 Entering Link 1 = C:\Gaussian\G09W\l1.exe PID=      3752.
  
 Copyright (c) 1988,1990,1992,1993,1995,1998,2003,2009,2013,
            Gaussian, Inc.  All Rights Reserved.
  
 This is part of the Gaussian(R) 09 program.  It is based on
 the Gaussian(R) 03 system (copyright 2003, Gaussian, Inc.),
 the Gaussian(R) 98 system (copyright 1998, Gaussian, Inc.),
 the Gaussian(R) 94 system (copyright 1995, Gaussian, Inc.),
 the Gaussian 92(TM) system (copyright 1992, Gaussian, Inc.),
 the Gaussian 90(TM) system (copyright 1990, Gaussian, Inc.),
 the Gaussian 88(TM) system (copyright 1988, Gaussian, Inc.),
 the Gaussian 86(TM) system (copyright 1986, Carnegie Mellon
 University), and the Gaussian 82(TM) system (copyright 1983,
 Carnegie Mellon University). Gaussian is a federally registered
 trademark of Gaussian, Inc.
  
 This software contains proprietary and confidential information,
 including trade secrets, belonging to Gaussian, Inc.
  
 This software is provided under written license and may be
 used, copied, transmitted, or stored only in accord with that
 written license.
  
 The following legend is applicable only to US Government
 contracts under FAR:
  
                    RESTRICTED RIGHTS LEGEND
  
 Use, reproduction and disclosure by the US Government is
 subject to restrictions as set forth in subparagraphs (a)
 and (c) of the Commercial Computer Software - Restricted
 Rights clause in FAR 52.227-19.
  
 Gaussian, Inc.
 340 Quinnipiac St., Bldg. 40, Wallingford CT 06492
  
  
 ---------------------------------------------------------------
 Warning -- This program may not be used in any manner that
 competes with the business of Gaussian, Inc. or will provide
 assistance to any competitor of Gaussian, Inc.  The licensee
 of this program is prohibited from giving any competitor of
 Gaussian, Inc. access to this program.  By using this program,
 the user acknowledges that Gaussian, Inc. is engaged in the
 business of creating and licensing software in the field of
 computational chemistry and represents and warrants to the
 licensee that it is not a competitor of Gaussian, Inc. and that
 it will not use this program in any manner prohibited above.
 ---------------------------------------------------------------
  

 Cite this work as:
 Gaussian 09, Revision D.01,
 M. J. Frisch, G. W. Trucks, H. B. Schlegel, G. E. Scuseria, 
 M. A. Robb, J. R. Cheeseman, G. Scalmani, V. Barone, B. Mennucci, 
 G. A. Petersson, H. Nakatsuji, M. Caricato, X. Li, H. P. Hratchian, 
 A. F. Izmaylov, J. Bloino, G. Zheng, J. L. Sonnenberg, M. Hada, 
 M. Ehara, K. Toyota, R. Fukuda, J. Hasegawa, M. Ishida, T. Nakajima, 
 Y. Honda, O. Kitao, H. Nakai, T. Vreven, J. A. Montgomery, Jr., 
 J. E. Peralta, F. Ogliaro, M. Bearpark, J. J. Heyd, E. Brothers, 
 K. N. Kudin, V. N. Staroverov, T. Keith, R. Kobayashi, J. Normand, 
 K. Raghavachari, A. Rendell, J. C. Burant, S. S. Iyengar, J. Tomasi, 
 M. Cossi, N. Rega, J. M. Millam, M. Klene, J. E. Knox, J. B. Cross, 
 V. Bakken, C. Adamo, J. Jaramillo, R. Gomperts, R. E. Stratmann, 
 O. Yazyev, A. J. Austin, R. Cammi, C. Pomelli, J. W. Ochterski, 
 R. L. Martin, K. Morokuma, V. G. Zakrzewski, G. A. Voth, 
 P. Salvador, J. J. Dannenberg, S. Dapprich, A. D. Daniels, 
 O. Farkas, J. B. Foresman, J. V. Ortiz, J. Cioslowski, 
 and D. J. Fox, Gaussian, Inc., Wallingford CT, 2013.
 
 ******************************************
 Gaussian 09:  IA32W-G09RevD.01 24-Apr-2013
                11-Mar-2026 
 ******************************************
 %chk=C:\Users\User\Desktop\IMRG\ECE+ML\Ag_Gr_NS.chk
 ---------------------------------------
 # opt freq pm6 scf=qc geom=connectivity
 ---------------------------------------
 1/14=-1,18=20,19=15,26=1,38=1,57=2/1,3;
 2/9=110,12=2,17=6,18=5,40=1/2;
 3/5=2,16=1,25=1,41=3900000,71=1/1,2,3;
 4/35=1/1;
 5/5=2,8=3,35=1,38=5/8;
 6/7=2,8=2,9=2,10=2,28=1/1;
 7//1,2,3,16;
 1/14=-1,18=20,19=15,26=1/3(2);
 2/9=110/2;
 99//99;
 2/9=110/2;
 3/5=2,16=1,25=1,41=3900000,71=1,135=20/1,2,3;
 4/5=5,16=3,35=1/1;
 5/5=2,8=3,35=1,38=5/8;
 7//1,2,3,16;
 1/14=-1,18=20,19=15,26=1/3(-5);
 2/9=110/2;
 6/7=2,8=2,9=2,10=2,19=2,28=1/1;
 99/9=1/99;
 --------
 Ag_Gr_NS
 --------
 Symbolic Z-matrix:
 Charge =  0 Multiplicity = 2
 C                    -1.48734   1.25527   0. 
 C                    -0.11458   1.26757   0.00021 
 C                     0.63784   2.49562   0.00024 
 C                     2.76155   3.73782  -0.0001 
 C                     4.87637   4.98541  -0.00058 
 C                     2.0603    2.51615  -0.00001 
 C                     4.19236   3.77104  -0.00038 
 C                    -3.68033   2.52318  -0.00036 
 C                    -5.85442   3.76459  -0.00032 
 C                    -2.22717   2.49171  -0.00016 
 C                    -4.4314    3.73294  -0.00038 
 C                    -6.52317   4.98925  -0.00022 
 C                    -1.49723   3.66543   0.00004 
 C                    -3.77063   4.98776  -0.00006 
 C                    -5.83173   6.21539  -0.00016 
 C                     0.61876   4.98443   0.00024 
 C                    -1.48853   6.30241   0.00019 
 C                    -3.64606   7.47395  -0.00004 
 C                     2.76334   6.23383  -0.00007 
 C                     0.64426   7.4887    0.0001 
 C                    -1.48605   8.7395   -0.00011 
 C                    -0.07268   3.72258   0.00025 
 C                    -4.42338   6.2256   -0.00018 
 C                     2.03942   4.98572   0.00009 
 C                    -0.08682   6.24592   0.00026 
 C                    -2.24783   7.50962   0.00012 
 C                     4.18329   6.20584  -0.00024 
 C                     2.05117   7.46407  -0.0001 
 C                    -0.10808   8.71832  -0.00011 
 H                     4.73683   7.14171  -0.00013 
 H                     2.60821   8.39816  -0.00027 
 H                     0.45062   9.65387  -0.00038 
 H                    -2.02415   9.68484  -0.0001 
 H                    -4.21082   8.4023   -0.00019 
 H                    -6.39162   7.1481   -0.0001 
 H                    -7.61353   5.00188  -0.00006 
 H                    -6.41745   2.83421  -0.00027 
 H                    -4.20834   1.57407  -0.00036 
 H                    -2.035     0.31468   0.00008 
 H                     0.44259   0.33017   0.00001 
 H                     2.60785   1.57708  -0.00018 
 H                     4.74181   2.8329   -0.00058 
 H                     5.96597   4.99136  -0.0008 
 Ag                   -2.25175   4.98582   0.00002 
 

 GradGradGradGradGradGradGradGradGradGradGradGradGradGradGradGradGradGrad
 Berny optimization.
 Initialization pass.
                           ----------------------------
                           !    Initial Parameters    !
                           ! (Angstroms and Degrees)  !
 --------------------------                            --------------------------
 ! Name  Definition              Value          Derivative Info.                !
 --------------------------------------------------------------------------------
 ! R1    R(1,2)                  1.3728         estimate D2E/DX2                !
 ! R2    R(1,10)                 1.4409         estimate D2E/DX2                !
 ! R3    R(1,39)                 1.0884         estimate D2E/DX2                !
 ! R4    R(2,3)                  1.4402         estimate D2E/DX2                !
 ! R5    R(2,40)                 1.0905         estimate D2E/DX2                !
 ! R6    R(3,6)                  1.4226         estimate D2E/DX2                !
 ! R7    R(3,22)                 1.4178         estimate D2E/DX2                !
 ! R8    R(4,6)                  1.4086         estimate D2E/DX2                !
 ! R9    R(4,7)                  1.4312         estimate D2E/DX2                !
 ! R10   R(4,24)                 1.4418         estimate D2E/DX2                !
 ! R11   R(5,7)                  1.3938         estimate D2E/DX2                !
 ! R12   R(5,27)                 1.4035         estimate D2E/DX2                !
 ! R13   R(5,43)                 1.0896         estimate D2E/DX2                !
 ! R14   R(6,41)                 1.087          estimate D2E/DX2                !
 ! R15   R(7,42)                 1.0872         estimate D2E/DX2                !
 ! R16   R(8,10)                 1.4535         estimate D2E/DX2                !
 ! R17   R(8,11)                 1.4239         estimate D2E/DX2                !
 ! R18   R(8,38)                 1.0861         estimate D2E/DX2                !
 ! R19   R(9,11)                 1.4234         estimate D2E/DX2                !
 ! R20   R(9,12)                 1.3954         estimate D2E/DX2                !
 ! R21   R(9,37)                 1.0875         estimate D2E/DX2                !
 ! R22   R(10,13)                1.3822         estimate D2E/DX2                !
 ! R23   R(11,14)                1.4182         estimate D2E/DX2                !
 ! R24   R(12,15)                1.4077         estimate D2E/DX2                !
 ! R25   R(12,36)                1.0904         estimate D2E/DX2                !
 ! R26   R(13,22)                1.4257         estimate D2E/DX2                !
 ! R27   R(13,44)                1.5208         estimate D2E/DX2                !
 ! R28   R(14,23)                1.3994         estimate D2E/DX2                !
 ! R29   R(14,44)                1.5189         estimate D2E/DX2                !
 ! R30   R(15,23)                1.4084         estimate D2E/DX2                !
 ! R31   R(15,35)                1.0879         estimate D2E/DX2                !
 ! R32   R(16,22)                1.4389         estimate D2E/DX2                !
 ! R33   R(16,24)                1.4207         estimate D2E/DX2                !
 ! R34   R(16,25)                1.4454         estimate D2E/DX2                !
 ! R35   R(17,25)                1.4028         estimate D2E/DX2                !
 ! R36   R(17,26)                1.4261         estimate D2E/DX2                !
 ! R37   R(17,44)                1.5218         estimate D2E/DX2                !
 ! R38   R(18,23)                1.4706         estimate D2E/DX2                !
 ! R39   R(18,26)                1.3987         estimate D2E/DX2                !
 ! R40   R(18,34)                1.0866         estimate D2E/DX2                !
 ! R41   R(19,24)                1.4429         estimate D2E/DX2                !
 ! R42   R(19,27)                1.4202         estimate D2E/DX2                !
 ! R43   R(19,28)                1.4215         estimate D2E/DX2                !
 ! R44   R(20,25)                1.4419         estimate D2E/DX2                !
 ! R45   R(20,28)                1.4071         estimate D2E/DX2                !
 ! R46   R(20,29)                1.4415         estimate D2E/DX2                !
 ! R47   R(21,26)                1.4467         estimate D2E/DX2                !
 ! R48   R(21,29)                1.3781         estimate D2E/DX2                !
 ! R49   R(21,33)                1.0878         estimate D2E/DX2                !
 ! R50   R(27,30)                1.0873         estimate D2E/DX2                !
 ! R51   R(28,31)                1.0876         estimate D2E/DX2                !
 ! R52   R(29,32)                1.0897         estimate D2E/DX2                !
 ! A1    A(2,1,10)             120.3811         estimate D2E/DX2                !
 ! A2    A(2,1,39)             120.7234         estimate D2E/DX2                !
 ! A3    A(10,1,39)            118.8954         estimate D2E/DX2                !
 ! A4    A(1,2,3)              122.0091         estimate D2E/DX2                !
 ! A5    A(1,2,40)             120.2126         estimate D2E/DX2                !
 ! A6    A(3,2,40)             117.7783         estimate D2E/DX2                !
 ! A7    A(2,3,6)              122.323          estimate D2E/DX2                !
 ! A8    A(2,3,22)             118.4295         estimate D2E/DX2                !
 ! A9    A(6,3,22)             119.2474         estimate D2E/DX2                !
 ! A10   A(6,4,7)              121.1867         estimate D2E/DX2                !
 ! A11   A(6,4,24)             120.0864         estimate D2E/DX2                !
 ! A12   A(7,4,24)             118.7269         estimate D2E/DX2                !
 ! A13   A(7,5,27)             121.017          estimate D2E/DX2                !
 ! A14   A(7,5,43)             119.7036         estimate D2E/DX2                !
 ! A15   A(27,5,43)            119.2794         estimate D2E/DX2                !
 ! A16   A(3,6,4)              120.6839         estimate D2E/DX2                !
 ! A17   A(3,6,41)             119.4183         estimate D2E/DX2                !
 ! A18   A(4,6,41)             119.8978         estimate D2E/DX2                !
 ! A19   A(4,7,5)              120.7208         estimate D2E/DX2                !
 ! A20   A(4,7,42)             119.0266         estimate D2E/DX2                !
 ! A21   A(5,7,42)             120.2526         estimate D2E/DX2                !
 ! A22   A(10,8,11)            123.0746         estimate D2E/DX2                !
 ! A23   A(10,8,38)            117.8469         estimate D2E/DX2                !
 ! A24   A(11,8,38)            119.0785         estimate D2E/DX2                !
 ! A25   A(11,9,12)            119.9113         estimate D2E/DX2                !
 ! A26   A(11,9,37)            119.9067         estimate D2E/DX2                !
 ! A27   A(12,9,37)            120.182          estimate D2E/DX2                !
 ! A28   A(1,10,8)             122.1353         estimate D2E/DX2                !
 ! A29   A(1,10,13)            117.2279         estimate D2E/DX2                !
 ! A30   A(8,10,13)            120.6368         estimate D2E/DX2                !
 ! A31   A(8,11,9)             123.1078         estimate D2E/DX2                !
 ! A32   A(8,11,14)            120.3955         estimate D2E/DX2                !
 ! A33   A(9,11,14)            116.4967         estimate D2E/DX2                !
 ! A34   A(9,12,15)            121.9432         estimate D2E/DX2                !
 ! A35   A(9,12,36)            119.3009         estimate D2E/DX2                !
 ! A36   A(15,12,36)           118.7559         estimate D2E/DX2                !
 ! A37   A(10,13,22)           124.1752         estimate D2E/DX2                !
 ! A38   A(10,13,44)           118.3771         estimate D2E/DX2                !
 ! A39   A(22,13,44)           117.4477         estimate D2E/DX2                !
 ! A40   A(11,14,23)           124.4256         estimate D2E/DX2                !
 ! A41   A(11,14,44)           117.6975         estimate D2E/DX2                !
 ! A42   A(23,14,44)           117.8769         estimate D2E/DX2                !
 ! A43   A(12,15,23)           119.8349         estimate D2E/DX2                !
 ! A44   A(12,15,35)           119.6049         estimate D2E/DX2                !
 ! A45   A(23,15,35)           120.5602         estimate D2E/DX2                !
 ! A46   A(22,16,24)           118.7733         estimate D2E/DX2                !
 ! A47   A(22,16,25)           122.0594         estimate D2E/DX2                !
 ! A48   A(24,16,25)           119.1674         estimate D2E/DX2                !
 ! A49   A(25,17,26)           124.4765         estimate D2E/DX2                !
 ! A50   A(25,17,44)           117.7927         estimate D2E/DX2                !
 ! A51   A(26,17,44)           117.7308         estimate D2E/DX2                !
 ! A52   A(23,18,26)           123.3713         estimate D2E/DX2                !
 ! A53   A(23,18,34)           116.7761         estimate D2E/DX2                !
 ! A54   A(26,18,34)           119.8525         estimate D2E/DX2                !
 ! A55   A(24,19,27)           118.9848         estimate D2E/DX2                !
 ! A56   A(24,19,28)           119.8195         estimate D2E/DX2                !
 ! A57   A(27,19,28)           121.1957         estimate D2E/DX2                !
 ! A58   A(25,20,28)           119.4641         estimate D2E/DX2                !
 ! A59   A(25,20,29)           118.073          estimate D2E/DX2                !
 ! A60   A(28,20,29)           122.4629         estimate D2E/DX2                !
 ! A61   A(26,21,29)           120.8936         estimate D2E/DX2                !
 ! A62   A(26,21,33)           118.5771         estimate D2E/DX2                !
 ! A63   A(29,21,33)           120.5293         estimate D2E/DX2                !
 ! A64   A(3,22,13)            117.777          estimate D2E/DX2                !
 ! A65   A(3,22,16)            121.2041         estimate D2E/DX2                !
 ! A66   A(13,22,16)           121.0189         estimate D2E/DX2                !
 ! A67   A(14,23,15)           117.3883         estimate D2E/DX2                !
 ! A68   A(14,23,18)           120.2865         estimate D2E/DX2                !
 ! A69   A(15,23,18)           122.3252         estimate D2E/DX2                !
 ! A70   A(4,24,16)            120.005          estimate D2E/DX2                !
 ! A71   A(4,24,19)            119.8289         estimate D2E/DX2                !
 ! A72   A(16,24,19)           120.1662         estimate D2E/DX2                !
 ! A73   A(16,25,17)           121.5273         estimate D2E/DX2                !
 ! A74   A(16,25,20)           120.3138         estimate D2E/DX2                !
 ! A75   A(17,25,20)           118.159          estimate D2E/DX2                !
 ! A76   A(17,26,18)           120.707          estimate D2E/DX2                !
 ! A77   A(17,26,21)           116.0575         estimate D2E/DX2                !
 ! A78   A(18,26,21)           123.2355         estimate D2E/DX2                !
 ! A79   A(5,27,19)            120.7216         estimate D2E/DX2                !
 ! A80   A(5,27,30)            119.8045         estimate D2E/DX2                !
 ! A81   A(19,27,30)           119.4739         estimate D2E/DX2                !
 ! A82   A(19,28,20)           121.0692         estimate D2E/DX2                !
 ! A83   A(19,28,31)           119.1239         estimate D2E/DX2                !
 ! A84   A(20,28,31)           119.8069         estimate D2E/DX2                !
 ! A85   A(20,29,21)           122.3405         estimate D2E/DX2                !
 ! A86   A(20,29,32)           117.6945         estimate D2E/DX2                !
 ! A87   A(21,29,32)           119.965          estimate D2E/DX2                !
 ! A88   A(13,44,14)           119.8184         estimate D2E/DX2                !
 ! A89   A(13,44,17)           120.1541         estimate D2E/DX2                !
 ! A90   A(14,44,17)           120.0275         estimate D2E/DX2                !
 ! D1    D(10,1,2,3)            -0.0025         estimate D2E/DX2                !
 ! D2    D(10,1,2,40)         -179.9806         estimate D2E/DX2                !
 ! D3    D(39,1,2,3)          -179.9941         estimate D2E/DX2                !
 ! D4    D(39,1,2,40)            0.0278         estimate D2E/DX2                !
 ! D5    D(2,1,10,8)          -179.9988         estimate D2E/DX2                !
 ! D6    D(2,1,10,13)           -0.0059         estimate D2E/DX2                !
 ! D7    D(39,1,10,8)           -0.0071         estimate D2E/DX2                !
 ! D8    D(39,1,10,13)         179.9859         estimate D2E/DX2                !
 ! D9    D(1,2,3,6)           -179.9775         estimate D2E/DX2                !
 ! D10   D(1,2,3,22)             0.0102         estimate D2E/DX2                !
 ! D11   D(40,2,3,6)             0.0012         estimate D2E/DX2                !
 ! D12   D(40,2,3,22)          179.9889         estimate D2E/DX2                !
 ! D13   D(2,3,6,4)            179.9947         estimate D2E/DX2                !
 ! D14   D(2,3,6,41)            -0.0032         estimate D2E/DX2                !
 ! D15   D(22,3,6,4)             0.0071         estimate D2E/DX2                !
 ! D16   D(22,3,6,41)         -179.9908         estimate D2E/DX2                !
 ! D17   D(2,3,22,13)           -0.0093         estimate D2E/DX2                !
 ! D18   D(2,3,22,16)         -179.9984         estimate D2E/DX2                !
 ! D19   D(6,3,22,13)          179.9788         estimate D2E/DX2                !
 ! D20   D(6,3,22,16)           -0.0104         estimate D2E/DX2                !
 ! D21   D(7,4,6,3)           -179.9983         estimate D2E/DX2                !
 ! D22   D(7,4,6,41)            -0.0004         estimate D2E/DX2                !
 ! D23   D(24,4,6,3)             0.0005         estimate D2E/DX2                !
 ! D24   D(24,4,6,41)          179.9984         estimate D2E/DX2                !
 ! D25   D(6,4,7,5)            179.9946         estimate D2E/DX2                !
 ! D26   D(6,4,7,42)             0.0023         estimate D2E/DX2                !
 ! D27   D(24,4,7,5)            -0.0043         estimate D2E/DX2                !
 ! D28   D(24,4,7,42)         -179.9966         estimate D2E/DX2                !
 ! D29   D(6,4,24,16)           -0.0051         estimate D2E/DX2                !
 ! D30   D(6,4,24,19)         -179.9968         estimate D2E/DX2                !
 ! D31   D(7,4,24,16)          179.9938         estimate D2E/DX2                !
 ! D32   D(7,4,24,19)            0.0021         estimate D2E/DX2                !
 ! D33   D(27,5,7,4)             0.0119         estimate D2E/DX2                !
 ! D34   D(27,5,7,42)         -179.9959         estimate D2E/DX2                !
 ! D35   D(43,5,7,4)          -179.9999         estimate D2E/DX2                !
 ! D36   D(43,5,7,42)           -0.0077         estimate D2E/DX2                !
 ! D37   D(7,5,27,19)           -0.0173         estimate D2E/DX2                !
 ! D38   D(7,5,27,30)          179.9838         estimate D2E/DX2                !
 ! D39   D(43,5,27,19)         179.9944         estimate D2E/DX2                !
 ! D40   D(43,5,27,30)          -0.0044         estimate D2E/DX2                !
 ! D41   D(11,8,10,1)          179.9932         estimate D2E/DX2                !
 ! D42   D(11,8,10,13)           0.0005         estimate D2E/DX2                !
 ! D43   D(38,8,10,1)            0.002          estimate D2E/DX2                !
 ! D44   D(38,8,10,13)        -179.9907         estimate D2E/DX2                !
 ! D45   D(10,8,11,9)         -179.9875         estimate D2E/DX2                !
 ! D46   D(10,8,11,14)          -0.0059         estimate D2E/DX2                !
 ! D47   D(38,8,11,9)            0.0036         estimate D2E/DX2                !
 ! D48   D(38,8,11,14)         179.9852         estimate D2E/DX2                !
 ! D49   D(12,9,11,8)          179.9943         estimate D2E/DX2                !
 ! D50   D(12,9,11,14)           0.012          estimate D2E/DX2                !
 ! D51   D(37,9,11,8)           -0.0011         estimate D2E/DX2                !
 ! D52   D(37,9,11,14)        -179.9834         estimate D2E/DX2                !
 ! D53   D(11,9,12,15)          -0.0008         estimate D2E/DX2                !
 ! D54   D(11,9,12,36)        -179.9935         estimate D2E/DX2                !
 ! D55   D(37,9,12,15)         179.9946         estimate D2E/DX2                !
 ! D56   D(37,9,12,36)           0.0019         estimate D2E/DX2                !
 ! D57   D(1,10,13,22)           0.0067         estimate D2E/DX2                !
 ! D58   D(1,10,13,44)        -179.9942         estimate D2E/DX2                !
 ! D59   D(8,10,13,22)         179.9997         estimate D2E/DX2                !
 ! D60   D(8,10,13,44)          -0.0012         estimate D2E/DX2                !
 ! D61   D(8,11,14,23)         179.9937         estimate D2E/DX2                !
 ! D62   D(8,11,14,44)           0.0113         estimate D2E/DX2                !
 ! D63   D(9,11,14,23)          -0.0235         estimate D2E/DX2                !
 ! D64   D(9,11,14,44)         179.9941         estimate D2E/DX2                !
 ! D65   D(9,12,15,23)          -0.0008         estimate D2E/DX2                !
 ! D66   D(9,12,15,35)         179.9989         estimate D2E/DX2                !
 ! D67   D(36,12,15,23)        179.9919         estimate D2E/DX2                !
 ! D68   D(36,12,15,35)         -0.0083         estimate D2E/DX2                !
 ! D69   D(10,13,22,3)           0.001          estimate D2E/DX2                !
 ! D70   D(10,13,22,16)        179.9902         estimate D2E/DX2                !
 ! D71   D(44,13,22,3)        -179.9981         estimate D2E/DX2                !
 ! D72   D(44,13,22,16)         -0.0089         estimate D2E/DX2                !
 ! D73   D(10,13,44,14)          0.0069         estimate D2E/DX2                !
 ! D74   D(10,13,44,17)       -179.9981         estimate D2E/DX2                !
 ! D75   D(22,13,44,14)       -179.9939         estimate D2E/DX2                !
 ! D76   D(22,13,44,17)          0.001          estimate D2E/DX2                !
 ! D77   D(11,14,23,15)          0.0221         estimate D2E/DX2                !
 ! D78   D(11,14,23,18)       -179.9904         estimate D2E/DX2                !
 ! D79   D(44,14,23,15)       -179.9955         estimate D2E/DX2                !
 ! D80   D(44,14,23,18)         -0.008          estimate D2E/DX2                !
 ! D81   D(11,14,44,13)         -0.012          estimate D2E/DX2                !
 ! D82   D(11,14,44,17)        179.993          estimate D2E/DX2                !
 ! D83   D(23,14,44,13)       -179.9956         estimate D2E/DX2                !
 ! D84   D(23,14,44,17)          0.0095         estimate D2E/DX2                !
 ! D85   D(12,15,23,14)         -0.0092         estimate D2E/DX2                !
 ! D86   D(12,15,23,18)       -179.9964         estimate D2E/DX2                !
 ! D87   D(35,15,23,14)        179.991          estimate D2E/DX2                !
 ! D88   D(35,15,23,18)          0.0039         estimate D2E/DX2                !
 ! D89   D(24,16,22,3)           0.0059         estimate D2E/DX2                !
 ! D90   D(24,16,22,13)       -179.9829         estimate D2E/DX2                !
 ! D91   D(25,16,22,3)        -179.9999         estimate D2E/DX2                !
 ! D92   D(25,16,22,13)          0.0113         estimate D2E/DX2                !
 ! D93   D(22,16,24,4)           0.0019         estimate D2E/DX2                !
 ! D94   D(22,16,24,19)        179.9936         estimate D2E/DX2                !
 ! D95   D(25,16,24,4)        -179.9925         estimate D2E/DX2                !
 ! D96   D(25,16,24,19)         -0.0008         estimate D2E/DX2                !
 ! D97   D(22,16,25,17)         -0.005          estimate D2E/DX2                !
 ! D98   D(22,16,25,20)       -179.9929         estimate D2E/DX2                !
 ! D99   D(24,16,25,17)        179.9893         estimate D2E/DX2                !
 ! D100  D(24,16,25,20)          0.0013         estimate D2E/DX2                !
 ! D101  D(26,17,25,16)       -179.9962         estimate D2E/DX2                !
 ! D102  D(26,17,25,20)         -0.008          estimate D2E/DX2                !
 ! D103  D(44,17,25,16)         -0.003          estimate D2E/DX2                !
 ! D104  D(44,17,25,20)        179.9852         estimate D2E/DX2                !
 ! D105  D(25,17,26,18)        179.9954         estimate D2E/DX2                !
 ! D106  D(25,17,26,21)          0.0108         estimate D2E/DX2                !
 ! D107  D(44,17,26,18)          0.0021         estimate D2E/DX2                !
 ! D108  D(44,17,26,21)       -179.9825         estimate D2E/DX2                !
 ! D109  D(25,17,44,13)          0.0049         estimate D2E/DX2                !
 ! D110  D(25,17,44,14)        179.9998         estimate D2E/DX2                !
 ! D111  D(26,17,44,13)        179.9986         estimate D2E/DX2                !
 ! D112  D(26,17,44,14)         -0.0065         estimate D2E/DX2                !
 ! D113  D(26,18,23,14)          0.0039         estimate D2E/DX2                !
 ! D114  D(26,18,23,15)        179.9907         estimate D2E/DX2                !
 ! D115  D(34,18,23,14)        179.9976         estimate D2E/DX2                !
 ! D116  D(34,18,23,15)         -0.0156         estimate D2E/DX2                !
 ! D117  D(23,18,26,17)         -0.0007         estimate D2E/DX2                !
 ! D118  D(23,18,26,21)        179.9827         estimate D2E/DX2                !
 ! D119  D(34,18,26,17)       -179.9942         estimate D2E/DX2                !
 ! D120  D(34,18,26,21)         -0.0107         estimate D2E/DX2                !
 ! D121  D(27,19,24,4)          -0.0072         estimate D2E/DX2                !
 ! D122  D(27,19,24,16)       -179.999          estimate D2E/DX2                !
 ! D123  D(28,19,24,4)         179.9902         estimate D2E/DX2                !
 ! D124  D(28,19,24,16)         -0.0015         estimate D2E/DX2                !
 ! D125  D(24,19,27,5)           0.0148         estimate D2E/DX2                !
 ! D126  D(24,19,27,30)       -179.9864         estimate D2E/DX2                !
 ! D127  D(28,19,27,5)        -179.9826         estimate D2E/DX2                !
 ! D128  D(28,19,27,30)          0.0163         estimate D2E/DX2                !
 ! D129  D(24,19,28,20)          0.0035         estimate D2E/DX2                !
 ! D130  D(24,19,28,31)       -179.9967         estimate D2E/DX2                !
 ! D131  D(27,19,28,20)       -179.9991         estimate D2E/DX2                !
 ! D132  D(27,19,28,31)          0.0007         estimate D2E/DX2                !
 ! D133  D(28,20,25,16)          0.0006         estimate D2E/DX2                !
 ! D134  D(28,20,25,17)       -179.9877         estimate D2E/DX2                !
 ! D135  D(29,20,25,16)        179.9894         estimate D2E/DX2                !
 ! D136  D(29,20,25,17)          0.0011         estimate D2E/DX2                !
 ! D137  D(25,20,28,19)         -0.003          estimate D2E/DX2                !
 ! D138  D(25,20,28,31)        179.9972         estimate D2E/DX2                !
 ! D139  D(29,20,28,19)       -179.9913         estimate D2E/DX2                !
 ! D140  D(29,20,28,31)          0.0089         estimate D2E/DX2                !
 ! D141  D(25,20,29,21)          0.0025         estimate D2E/DX2                !
 ! D142  D(25,20,29,32)       -179.9913         estimate D2E/DX2                !
 ! D143  D(28,20,29,21)        179.991          estimate D2E/DX2                !
 ! D144  D(28,20,29,32)         -0.0029         estimate D2E/DX2                !
 ! D145  D(29,21,26,17)         -0.0068         estimate D2E/DX2                !
 ! D146  D(29,21,26,18)       -179.9909         estimate D2E/DX2                !
 ! D147  D(33,21,26,17)       -179.9966         estimate D2E/DX2                !
 ! D148  D(33,21,26,18)          0.0193         estimate D2E/DX2                !
 ! D149  D(26,21,29,20)          0.0005         estimate D2E/DX2                !
 ! D150  D(26,21,29,32)        179.9942         estimate D2E/DX2                !
 ! D151  D(33,21,29,20)        179.9901         estimate D2E/DX2                !
 ! D152  D(33,21,29,32)         -0.0162         estimate D2E/DX2                !
 --------------------------------------------------------------------------------
 Trust Radius=3.00D-01 FncErr=1.00D-07 GrdErr=1.00D-07
 Number of steps in this run=    264 maximum allowed number of steps=    264.
 GradGradGradGradGradGradGradGradGradGradGradGradGradGradGradGradGradGrad

                          Input orientation:                          
 ---------------------------------------------------------------------
 Center     Atomic      Atomic             Coordinates (Angstroms)
 Number     Number       Type             X           Y           Z
 ---------------------------------------------------------------------
      1          6           0       -1.487342    1.255274    0.000000
      2          6           0       -0.114579    1.267573    0.000214
      3          6           0        0.637842    2.495615    0.000237
      4          6           0        2.761554    3.737816   -0.000096
      5          6           0        4.876369    4.985412   -0.000577
      6          6           0        2.060297    2.516154   -0.000014
      7          6           0        4.192364    3.771038   -0.000385
      8          6           0       -3.680332    2.523182   -0.000361
      9          6           0       -5.854424    3.764586   -0.000316
     10          6           0       -2.227169    2.491707   -0.000158
     11          6           0       -4.431403    3.732940   -0.000377
     12          6           0       -6.523170    4.989254   -0.000217
     13          6           0       -1.497229    3.665426    0.000042
     14          6           0       -3.770635    4.987756   -0.000065
     15          6           0       -5.831731    6.215386   -0.000158
     16          6           0        0.618765    4.984426    0.000243
     17          6           0       -1.488529    6.302410    0.000188
     18          6           0       -3.646057    7.473946   -0.000044
     19          6           0        2.763344    6.233835   -0.000066
     20          6           0        0.644264    7.488696    0.000097
     21          6           0       -1.486048    8.739497   -0.000106
     22          6           0       -0.072682    3.722583    0.000254
     23          6           0       -4.423380    6.225598   -0.000181
     24          6           0        2.039423    4.985716    0.000088
     25          6           0       -0.086819    6.245918    0.000262
     26          6           0       -2.247828    7.509622    0.000125
     27          6           0        4.183286    6.205843   -0.000242
     28          6           0        2.051167    7.464069   -0.000096
     29          6           0       -0.108077    8.718323   -0.000112
     30          1           0        4.736826    7.141709   -0.000134
     31          1           0        2.608212    8.398162   -0.000269
     32          1           0        0.450622    9.653867   -0.000382
     33          1           0       -2.024149    9.684844   -0.000104
     34          1           0       -4.210816    8.402296   -0.000186
     35          1           0       -6.391623    7.148101   -0.000098
     36          1           0       -7.613530    5.001882   -0.000063
     37          1           0       -6.417453    2.834207   -0.000272
     38          1           0       -4.208336    1.574068   -0.000359
     39          1           0       -2.035005    0.314677    0.000084
     40          1           0        0.442586    0.330166    0.000014
     41          1           0        2.607852    1.577080   -0.000179
     42          1           0        4.741811    2.832903   -0.000582
     43          1           0        5.965971    4.991361   -0.000799
     44         47           0       -2.251750    4.985817    0.000017
 ---------------------------------------------------------------------
                    Distance matrix (angstroms):
                    1          2          3          4          5
     1  C    0.000000
     2  C    1.372818   0.000000
     3  C    2.460661   1.440217   0.000000
     4  C    4.920988   3.791337   2.460328   0.000000
     5  C    7.376364   6.223494   4.915709   2.455390   0.000000
     6  C    3.765044   2.507795   1.422603   1.408623   3.745330
     7  C    6.211934   4.981675   3.776417   1.431196   1.393760
     8  C    2.533140   3.780364   4.318263   6.555397   8.903916
     9  C    5.036670   6.259464   6.615119   8.616019  10.800015
    10  C    1.440871   2.441627   2.865014   5.141998   7.528533
    11  C    3.847899   4.971218   5.218067   7.192959   9.391662
    12  C    6.269144   7.410867   7.582765   9.368681  11.399540
    13  C    2.410172   2.767927   2.434540   4.259398   6.508849
    14  C    4.375483   5.215986   5.064132   6.650702   8.647004
    15  C    6.593666   7.560866   7.462713   8.943316  10.778509
    16  C    4.282786   3.788507   2.488884   2.479028   4.257604
    17  C    5.047136   5.218939   4.360406   4.963904   6.499724
    18  C    6.582699   7.140757   6.567768   7.417287   8.878319
    19  C    6.546327   5.739878   4.300238   2.496019   2.454269
    20  C    6.587813   6.267233   4.993085   4.307204   4.917026
    21  C    7.484223   7.596748   6.595223   6.561930   7.387389
    22  C    2.844095   2.455367   1.417849   2.834277   5.107626
    23  C    5.772732   6.568697   6.287188   7.603442   9.382078
    24  C    5.133641   4.297012   2.857452   1.441779   2.836946
    25  C    5.183434   4.978422   3.819674   3.795234   5.120753
    26  C    6.300413   6.596509   5.785098   6.270600   7.558163
    27  C    7.527559   6.546613   5.131857   2.848241   1.403502
    28  C    7.146340   6.564070   5.165562   3.793364   3.758392
    29  C    7.589432   7.450753   6.267256   5.748063   6.227305
    30  H    8.566818   7.618504   6.195794   3.935503   2.160808
    31  H    8.233736   7.632751   6.222734   4.662868   4.097731
    32  H    8.619284   8.405318   7.160700   6.351382   6.432862
    33  H    8.446645   8.631159   7.666238   7.633485   8.348761
    34  H    7.648348   8.226994   7.641883   8.388761   9.708349
    35  H    7.666641   8.601273   8.429650   9.767839  11.473660
    36  H    7.181034   8.377311   8.623602  10.451805  12.489910
    37  H    5.176778   6.494657   7.063415   9.223376  11.496873
    38  H    2.739605   4.105214   4.933020   7.298025   9.704078
    39  H    1.088420   2.143839   3.449725   5.892780   8.341634
    40  H    2.140197   1.090488   2.174234   4.121855   6.428821
    41  H    4.107818   2.739967   2.173625   2.166196   4.094252
    42  H    6.425828   5.102429   4.117806   2.177221   2.156710
    43  H    8.337279   7.130195   5.883681   3.440881   1.089618
    44  Ag   3.808053   4.288687   3.814558   5.166306   7.128119
                    6          7          8          9         10
     6  C    0.000000
     7  C    2.473953   0.000000
     8  C    5.740633   7.970978   0.000000
     9  C    8.012576  10.046789   2.503549   0.000000
    10  C    4.287535   6.545768   1.453504   3.844112   0.000000
    11  C    6.604751   8.623851   1.423946   1.423372   2.529685
    12  C    8.932643  10.784559   3.763407   1.395361   4.969242
    13  C    3.738558   5.690573   2.463871   4.358323   1.382183
    14  C    6.333133   8.055417   2.466228   2.416262   2.934714
    15  C    8.715987  10.317816   4.273276   2.450906   5.182534
    16  C    2.858387   3.773979   4.953783   6.587123   3.783251
    17  C    5.189402   6.219356   4.368817   5.049910   3.881629
    18  C    7.559244   8.669047   4.950883   4.316971   5.180343
    19  C    3.783573   2.847361   7.435719   8.964548   6.237687
    20  C    5.170233   5.139065   6.584714   7.490123   5.763248
    21  C    7.162859   7.545194   6.592227   6.620608   6.291593
    22  C    2.450524   4.265321   3.801803   5.781894   2.481304
    23  C    7.469808   8.958565   3.776242   2.846835   4.331892
    24  C    2.469650   2.471962   6.227333   7.987739   4.942053
    25  C    4.303631   4.943322   5.174177   6.278716   4.321481
    26  C    6.595048   7.446683   5.188126   5.199311   5.017958
    27  C    4.256863   2.434822   8.683230  10.330312   7.408693
    28  C    4.947924   4.268865   7.567196   8.728376   6.559615
    29  C    6.570293   6.555106   7.151279   7.586832   6.577333
    30  H    5.344115   3.414361   9.601008  11.116633   8.373753
    31  H    5.907472   4.890788   8.605881   9.648121   7.633290
    32  H    7.316966   6.971965   8.240841   8.627702   7.646378
    33  H    8.250625   8.580101   7.350670   7.051274   7.196001
    34  H    8.600786   9.594894   5.902999   4.920346   6.234575
    35  H    9.637940  11.109695   5.361061   3.425895   6.246974
    36  H    9.988081  11.869882   4.649085   2.150664   5.942547
    37  H    8.483714  10.651096   2.754735   1.087477   4.204258
    38  H    6.339028   8.683227   1.086096   2.740068   2.183365
    39  H    4.649516   7.122257   2.754015   5.146827   2.185495
    40  H    2.719473   5.089246   4.669879   7.172696   3.435091
    41  H    1.087050   2.706313   6.358960   8.740440   4.920769
    42  H    2.700158   1.087194   8.427837  10.637116   6.977328
    43  H    4.623953   2.152875   9.957062  11.883884   8.565968
    44  Ag   4.969203   6.557613   2.847002   3.804032   2.494231
                   11         12         13         14         15
    11  C    0.000000
    12  C    2.440044   0.000000
    13  C    2.934951   5.197365   0.000000
    14  C    1.418161   2.752535   2.630006   0.000000
    15  C    2.850168   1.407654   5.028937   2.398999   0.000000
    16  C    5.202924   7.141937   2.493430   4.389401   6.566899
    17  C    3.906749   5.203075   2.636998   2.633690   4.344074
    18  C    3.822551   3.801510   4.372904   2.489309   2.522131
    19  C    7.617012   9.369543   4.974858   6.651736   8.595095
    20  C    6.314120   7.590740   4.382166   5.074055   6.599988
    21  C    5.808677   6.279882   5.074083   4.392596   5.025544
    22  C    4.358734   6.573679   1.425693   3.908391   6.275406
    23  C    2.492671   2.436733   3.888038   1.399403   1.408389
    24  C    6.590982   8.562594   3.775060   5.810059   7.966628
    25  C    5.019011   6.557882   2.940781   3.892746   5.744993
    26  C    4.362491   4.962943   3.916790   2.945972   3.810434
    27  C    8.962595  10.775355   6.222697   8.046651  10.015021
    28  C    7.479642   8.924347   5.198154   6.326571   7.981184
    29  C    6.598879   7.420201   5.240374   5.227950   6.246993
    30  H    9.781418  11.463882   7.137786   8.775899  10.609076
    31  H    8.445146   9.746938   6.265256   7.233295   8.717635
    32  H    7.674083   8.390018   6.297265   6.292186   7.161782
    33  H    6.420283   6.503057   6.042436   5.011272   5.151196
    34  H    4.674564   4.122601   5.459074   3.442796   2.722120
    35  H    3.937739   2.162852   6.007006   3.396567   1.087858
    36  H    3.425806   1.090433   6.260611   3.842921   2.155783
    37  H    2.179934   2.157638   4.989943   3.412245   3.431536
    38  H    2.170366   4.125767   3.424015   3.441635   4.917037
    39  H    4.174595   6.480378   3.393630   4.984985   7.016659
    40  H    5.944294   8.380265   3.858347   6.280475   8.602492
    41  H    7.361986   9.747743   4.605744   7.233105   9.630184
    42  H    9.217263  11.469510   6.294340   8.780953  11.101396
    43  H   10.473252  12.489141   7.580070   9.736606  11.861029
    44  Ag   2.514078   4.271421   1.520768   1.518886   3.785248
                   16         17         18         19         20
    16  C    0.000000
    17  C    2.485512   0.000000
    18  C    4.938261   2.455081   0.000000
    19  C    2.481984   4.252426   6.528269   0.000000
    20  C    2.504399   2.440509   4.290347   2.462758   0.000000
    21  C    4.304741   2.437089   2.503449   4.933121   2.470372
    22  C    1.438870   2.942810   5.180901   3.788064   3.833747
    23  C    5.192661   2.935855   1.470579   7.186729   5.222684
    24  C    1.420659   3.765651   6.206124   1.442866   2.865550
    25  C    1.445410   1.402848   3.765133   2.850189   1.441867
    26  C    3.820206   1.426147   1.398684   5.171023   2.892168
    27  C    3.767979   5.672637   7.931374   1.420217   3.764357
    28  C    2.863635   3.725440   5.697232   1.421504   1.407118
    29  C    3.803983   2.782497   3.750437   3.797070   1.441528
    30  H    4.648903   6.281678   8.389465   2.172295   4.107245
    31  H    3.951138   4.601681   6.322188   2.169880   2.164306
    32  H    4.672467   3.872024   4.640564   4.128595   2.173813
    33  H    5.392488   3.424580   2.742016   5.901657   3.455937
    34  H    5.916645   3.438077   1.086640   7.303502   4.940291
    35  H    7.336691   4.975492   2.764834   9.200506   7.044127
    36  H    8.232313   6.261550   4.674606  10.449748   8.624118
    37  H    7.357432   6.026833   5.404425   9.790021   8.457666
    38  H    5.910283   5.454775   5.926611   8.385568   7.650526
    39  H    5.371131   6.012618   7.338298   7.619749   7.658004
    40  H    4.657593   6.276695   8.231075   6.343439   7.161370
    41  H    3.945437   6.253725   8.595604   4.659350   6.229195
    42  H    4.650652   7.131243   9.586220   3.934548   6.202120
    43  H    5.347210   7.568911   9.927452   3.435194   5.878540
    44  Ag   2.870516   1.521816   2.852171   5.168048   3.827702
                   21         22         23         24         25
    21  C    0.000000
    22  C    5.212200   0.000000
    23  C    3.866213   5.019328   0.000000
    24  C    5.149740   2.460994   6.580663   0.000000
    25  C    2.859332   2.523375   4.336608   2.471643   0.000000
    26  C    1.446686   4.367256   2.526211   4.975000   2.503379
    27  C    6.209730   4.927458   8.606688   2.466750   4.270293
    28  C    3.760134   4.302262   6.591931   2.478382   2.460666
    29  C    1.378134   4.995866   4.983525   4.306288   2.472497
    30  H    6.424725   5.900999   9.205902   3.453156   4.906118
    31  H    4.108464   5.389641   7.359573   3.459524   3.448963
    32  H    2.141673   5.954324   5.958936   4.931118   3.450066
    33  H    1.087765   6.273498   4.209832   6.212441   3.947082
    34  H    2.745554   6.246909   2.187052   7.123097   4.653743
    35  H    5.157248   7.187711   2.173705   8.703933   6.369026
    36  H    7.177451   7.648594   3.416803   9.652967   7.628827
    37  H    7.693582   6.406663   3.934191   8.726267   7.191432
    38  H    7.665131   4.660445   4.656499   7.118556   6.230015
    39  H    8.442686   3.932497   6.375212   6.198352   6.243000
    40  H    8.627657   3.431325   7.644196   4.921791   5.939393
    41  H    8.249863   3.433431   8.428934   3.455707   5.390668
    42  H    8.583361   4.896006   9.772978   3.455069   5.913066
    43  H    8.341529   6.170505  10.462406   3.926552   6.181438
    44  Ag   3.830981   2.518749   2.500606   4.291174   2.504951
                   26         27         28         29         30
    26  C    0.000000
    27  C    6.561941   0.000000
    28  C    4.299236   2.475695   0.000000
    29  C    2.457539   4.972761   2.497095   0.000000
    30  H    6.994338   1.087314   2.704937   5.094978   0.000000
    31  H    4.936662   2.699466   1.087579   2.735092   2.471775
    32  H    3.446653   5.081500   2.712371   1.089672   4.968147
    33  H    2.186692   7.115876   4.641125   2.146042   7.223457
    34  H    2.156430   8.676713   6.331880   4.114893   9.036005
    35  H    4.159535  10.616805   8.448700   6.476770  11.128451
    36  H    5.922796  11.858093   9.973401   8.375188  12.534359
    37  H    6.264605  11.124009   9.651587   8.627343  11.957111
    38  H    6.250952   9.585022   8.594969   8.237264  10.536344
    39  H    7.198092   8.565802   8.234720   8.621736   9.615927
    40  H    7.667001   6.965372   7.313009   8.406212   8.052180
    41  H    7.666335   4.889524   5.913252   7.640264   5.957989
    42  H    8.409921   3.418871   5.356050   7.626243   4.308809
    43  H    8.591166   2.157066   4.630332   7.126310   2.476851
    44  Ag   2.523808   6.549668   4.965564   4.304293   7.313554
                   31         32         33         34         35
    31  H    0.000000
    32  H    2.496395   0.000000
    33  H    4.807736   2.474965   0.000000
    34  H    6.819030   4.826535   2.535043   0.000000
    35  H    9.086236   7.286644   5.050732   2.515735   0.000000
    36  H   10.771199   9.309754   7.291866   4.810538   2.469679
    37  H   10.602840   9.678750   8.138325   5.989395   4.313971
    38  H    9.645392   9.326792   8.399724   6.828229   5.986367
    39  H    9.322134   9.664306   9.370173   8.375186   8.104061
    40  H    8.353591   9.323704   9.674439   9.317372   9.653530
    41  H    6.821082   8.359912   9.337627   9.647684  10.584273
    42  H    5.960231   8.058527   9.629502  10.543609  11.940448
    43  H    4.783391   7.222051   9.266650  10.733195  12.544387
    44  Ag   5.938294   5.393840   4.704536   3.938308   4.670548
                   36         37         38         39         40
    36  H    0.000000
    37  H    2.475765   0.000000
    38  H    4.831693   2.543256   0.000000
    39  H    7.286277   5.055085   2.511858   0.000000
    40  H    9.312676   7.302763   4.814391   2.477639   0.000000
    41  H   10.779885   9.112436   6.816188   4.811421   2.498633
    42  H   12.544279  11.159264   9.038241   7.229571   4.974639
    43  H   13.579505  12.569904  10.732866   9.267523   7.227345
    44  Ag   5.361804   4.688550   3.932971   4.676166   5.379083
                   41         42         43         44
    41  H    0.000000
    42  H    2.476061   0.000000
    43  H    4.788975   2.481433   0.000000
    44  Ag   5.935926   7.317441   8.217723   0.000000
 Stoichiometry    C29H14Ag(2)
 Framework group  C1[X(C29H14Ag)]
 Deg. of freedom   126
 Full point group                 C1      NOp   1
 Largest Abelian subgroup         C1      NOp   1
 Largest concise Abelian subgroup C1      NOp   1
                         Standard orientation:                         
 ---------------------------------------------------------------------
 Center     Atomic      Atomic             Coordinates (Angstroms)
 Number     Number       Type             X           Y           Z
 ---------------------------------------------------------------------
      1          6           0        0.423840   -3.733659   -0.000057
      2          6           0       -0.948925   -3.721594   -0.000271
      3          6           0       -1.701554   -2.493679   -0.000294
      4          6           0       -3.825477   -1.251839    0.000038
      5          6           0       -5.940504   -0.004603    0.000520
      6          6           0       -3.124012   -2.473382   -0.000043
      7          6           0       -5.256292   -1.218860    0.000328
      8          6           0        2.616616   -2.465379    0.000304
      9          6           0        4.790496   -1.223607    0.000259
     10          6           0        1.163457   -2.497101    0.000101
     11          6           0        3.367481   -1.255494    0.000320
     12          6           0        5.459034    0.001175    0.000160
     13          6           0        0.433318   -1.323506   -0.000100
     14          6           0        2.706500   -0.000790    0.000007
     15          6           0        4.767388    1.227190    0.000100
     16          6           0       -1.682900   -0.004865   -0.000301
     17          6           0        0.424171    1.313476   -0.000246
     18          6           0        2.581500    2.485379   -0.000013
     19          6           0       -3.827691    1.244179    0.000009
     20          6           0       -1.708824    2.499400   -0.000154
     21          6           0        0.421276    3.750563    0.000048
     22          6           0       -0.991238   -1.266591   -0.000311
     23          6           0        3.359034    1.237163    0.000124
     24          6           0       -3.103558   -0.003817   -0.000146
     25          6           0       -0.977530    1.256746   -0.000319
     26          6           0        1.183265    2.520817   -0.000182
     27          6           0       -5.247628    1.215946    0.000185
     28          6           0       -3.115722    2.474535    0.000039
     29          6           0       -0.956692    3.729155    0.000054
     30          1           0       -5.801327    2.151718    0.000077
     31          1           0       -3.672927    3.408533    0.000211
     32          1           0       -1.515550    4.664604    0.000325
     33          1           0        0.959216    4.696001    0.000047
     34          1           0        3.146101    3.413825    0.000129
     35          1           0        5.327121    2.160000    0.000041
     36          1           0        6.549392    0.013988    0.000005
     37          1           0        5.353683   -2.153889    0.000215
     38          1           0        3.144780   -3.414404    0.000301
     39          1           0        0.971663   -4.674164   -0.000141
     40          1           0       -1.505930   -4.659095   -0.000072
     41          1           0       -3.671408   -3.412549    0.000122
     42          1           0       -5.805581   -2.157088    0.000524
     43          1           0       -7.030107    0.001162    0.000741
     44         47           0        1.187615   -0.002987   -0.000074
 ---------------------------------------------------------------------
 Rotational constants (GHZ):      0.3074628      0.1320932      0.0923972
 Standard basis: VSTO-6G (5D, 7F)
 There are   140 symmetry adapted cartesian basis functions of A   symmetry.
 There are   139 symmetry adapted basis functions of A   symmetry.
   139 basis functions,   840 primitive gaussians,   140 cartesian basis functions
    71 alpha electrons       70 beta electrons
       nuclear repulsion energy      1349.4668606526 Hartrees.
 Integral buffers will be    262144 words long.
 Regular integral format.
 Two-electron integral symmetry is turned off.
 Do NDO integrals.
 One-electron integrals computed using PRISM.
 NBasis=   139 RedAO= F EigKep=  0.00D+00  NBF=   139
 NBsUse=   139 1.00D-04 EigRej=  0.00D+00 NBFU=   139
 Simple Huckel Guess.
 Initial guess <Sx>= 0.0000 <Sy>= 0.0000 <Sz>= 0.5000 <S**2>= 0.7500 S= 0.5000
 Keep J ints in memory in canonical form, NReq=2111950.
 Gradient too large for Newton-Raphson -- use scaled steepest descent instead.
     Minimum is close to point  4 DX=  4.62D-02 DF= -4.94D-03 DXR=  7.15D-02 DFR=  3.29D-03 which will be used.
 Gradient too large for Newton-Raphson -- use scaled steepest descent instead.
     Minimum is close to point  4 DX=  3.83D-02 DF= -2.42D-04 DXR=  3.37D-02 DFR=  1.14D-03 which will be used.
 Gradient too large for Newton-Raphson -- use scaled steepest descent instead.
     Minimum is close to point  2 DX=  8.17D-02 DF= -2.86D-04 DXR=  8.32D-02 DFR=  6.98D-03 which will be used.
 Gradient too large for Newton-Raphson -- use scaled steepest descent instead.
     Accept linear search using points  2 and  3.
 Gradient too large for Newton-Raphson -- use scaled steepest descent instead.
     Accept linear search using points  1 and  2.
 Gradient too large for Newton-Raphson -- use scaled steepest descent instead.
     Accept linear search using points  1 and  2.
     Minimum is close to point  2 DX= -2.64D-02 DF= -3.16D-06 DXR=  2.08D-02 DFR=  6.63D-04 which will be used.
 Gradient too large for Newton-Raphson -- use scaled steepest descent instead.
     Accept linear search using points  1 and  2.
     Minimum is close to point  2 DX= -1.09D-02 DF= -3.74D-07 DXR=  1.00D-02 DFR=  1.19D-04 which will be used.
 Gradient too large for Newton-Raphson -- use scaled steepest descent instead.
 Gradient too large for Newton-Raphson -- use scaled steepest descent instead.
     Accept linear search using points  1 and  2.
     Minimum is close to point  2 DX= -3.14D-02 DF= -1.55D-06 DXR=  2.69D-02 DFR=  9.78D-04 which will be used.
 Gradient too large for Newton-Raphson -- use scaled steepest descent instead.
     Accept linear search using points  1 and  2.
     Minimum is close to point  2 DX= -1.65D-02 DF= -3.10D-07 DXR=  1.29D-02 DFR=  2.57D-04 which will be used.
 Gradient too large for Newton-Raphson -- use scaled steepest descent instead.
     Minimum is close to point  2 DX=  1.90D-02 DF= -2.31D-07 DXR=  1.56D-02 DFR=  2.42D-04 which will be used.
 Gradient too large for Newton-Raphson -- use scaled steepest descent instead.
     Minimum is close to point  2 DX=  9.44D-02 DF= -3.52D-06 DXR=  6.77D-02 DFR=  4.60D-03 which will be used.
 Gradient too large for Newton-Raphson -- use scaled steepest descent instead.
     Minimum is close to point  2 DX=  6.68D-02 DF= -1.48D-06 DXR=  4.89D-02 DFR=  2.40D-03 which will be used.
 Gradient too large for Newton-Raphson -- use scaled steepest descent instead.
     Accept linear search using points  1 and  2.
     Minimum is close to point  2 DX= -2.32D-02 DF= -2.45D-07 DXR=  1.69D-02 DFR=  4.90D-04 which will be used.
 Gradient too large for Newton-Raphson -- use scaled steepest descent instead.
     Accept linear search using points  1 and  2.
 Gradient too large for Newton-Raphson -- use scaled steepest descent instead.
     Accept linear search using points  1 and  2.
     Minimum is close to point  2 DX= -4.68D-02 DF= -6.98D-07 DXR=  3.73D-02 DFR=  2.11D-03 which will be used.
 Gradient too large for Newton-Raphson -- use scaled steepest descent instead.
     Accept linear search using points  1 and  2.
     Minimum is close to point  2 DX= -4.52D-02 DF= -5.29D-07 DXR=  3.60D-02 DFR=  1.96D-03 which will be used.
 LinEq1:  Iter=  0 NonCon=     1 RMS=2.25D-04 Max=8.44D-03 NDo=     1
 AX will form     1 AO Fock derivatives at one time.
 LinEq1:  Iter=  1 NonCon=     1 RMS=1.67D-04 Max=3.88D-03 NDo=     1
 LinEq1:  Iter=  2 NonCon=     1 RMS=1.89D-05 Max=6.37D-04 NDo=     1
 LinEq1:  Iter=  3 NonCon=     1 RMS=4.98D-06 Max=1.31D-04 NDo=     1
 LinEq1:  Iter=  4 NonCon=     1 RMS=1.92D-06 Max=4.78D-05 NDo=     1
 LinEq1:  Iter=  5 NonCon=     1 RMS=8.00D-07 Max=1.60D-05 NDo=     1
 LinEq1:  Iter=  6 NonCon=     1 RMS=2.45D-07 Max=4.66D-06 NDo=     1
 LinEq1:  Iter=  7 NonCon=     1 RMS=7.54D-08 Max=1.39D-06 NDo=     1
 LinEq1:  Iter=  8 NonCon=     1 RMS=2.23D-08 Max=4.36D-07 NDo=     1
 LinEq1:  Iter=  9 NonCon=     1 RMS=7.48D-09 Max=1.34D-07 NDo=     1
 LinEq1:  Iter= 10 NonCon=     0 RMS=2.76D-09 Max=6.29D-08 NDo=     1
 Linear equations converged to 9.828D-09 9.828D-08 after    10 iterations.
     Accept linear search using points  1 and  2.
 LinEq1:  Iter=  0 NonCon=     1 RMS=3.93D-05 Max=9.53D-04 NDo=     1
 LinEq1:  Iter=  1 NonCon=     1 RMS=2.17D-05 Max=6.65D-04 NDo=     1
 LinEq1:  Iter=  2 NonCon=     1 RMS=6.16D-06 Max=1.34D-04 NDo=     1
 LinEq1:  Iter=  3 NonCon=     1 RMS=1.52D-06 Max=2.62D-05 NDo=     1
 LinEq1:  Iter=  4 NonCon=     1 RMS=6.64D-07 Max=1.23D-05 NDo=     1
 LinEq1:  Iter=  5 NonCon=     1 RMS=2.55D-07 Max=4.95D-06 NDo=     1
 LinEq1:  Iter=  6 NonCon=     1 RMS=7.26D-08 Max=1.67D-06 NDo=     1
 LinEq1:  Iter=  7 NonCon=     1 RMS=2.53D-08 Max=3.94D-07 NDo=     1
 LinEq1:  Iter=  8 NonCon=     1 RMS=8.71D-09 Max=1.73D-07 NDo=     1
 LinEq1:  Iter=  9 NonCon=     0 RMS=3.15D-09 Max=5.30D-08 NDo=     1
 Linear equations converged to 9.828D-09 9.828D-08 after     9 iterations.
     Accept linear search using points  1 and  2.
     Minimum is close to point  2 DX= -9.39D-04 DF= -8.99D-12 DXR=  9.39D-04 DFR=  8.82D-07 which will be used.
 LinEq1:  Iter=  0 NonCon=     1 RMS=1.35D-06 Max=2.51D-05 NDo=     1
 LinEq1:  Iter=  1 NonCon=     1 RMS=7.10D-07 Max=1.68D-05 NDo=     1
 LinEq1:  Iter=  2 NonCon=     1 RMS=2.39D-07 Max=4.33D-06 NDo=     1
 LinEq1:  Iter=  3 NonCon=     1 RMS=8.12D-08 Max=1.58D-06 NDo=     1
 LinEq1:  Iter=  4 NonCon=     1 RMS=2.69D-08 Max=6.24D-07 NDo=     1
 LinEq1:  Iter=  5 NonCon=     1 RMS=1.12D-08 Max=2.12D-07 NDo=     1
 LinEq1:  Iter=  6 NonCon=     1 RMS=4.81D-09 Max=8.62D-08 NDo=     1
 LinEq1:  Iter=  7 NonCon=     1 RMS=1.67D-09 Max=4.15D-08 NDo=     1
 LinEq1:  Iter=  8 NonCon=     1 RMS=6.76D-10 Max=1.29D-08 NDo=     1
 LinEq1:  Iter=  9 NonCon=     0 RMS=2.48D-10 Max=5.23D-09 NDo=     1
 Linear equations converged to 6.756D-10 6.756D-09 after     9 iterations.
 LinEq1:  Iter=  0 NonCon=     1 RMS=7.64D-08 Max=1.61D-06 NDo=     1
 LinEq1:  Iter=  1 NonCon=     1 RMS=3.85D-08 Max=8.60D-07 NDo=     1
 LinEq1:  Iter=  2 NonCon=     1 RMS=1.29D-08 Max=3.17D-07 NDo=     1
 LinEq1:  Iter=  3 NonCon=     1 RMS=4.87D-09 Max=8.75D-08 NDo=     1
 LinEq1:  Iter=  4 NonCon=     1 RMS=1.94D-09 Max=3.55D-08 NDo=     1
 LinEq1:  Iter=  5 NonCon=     1 RMS=8.35D-10 Max=1.59D-08 NDo=     1
 LinEq1:  Iter=  6 NonCon=     1 RMS=2.88D-10 Max=5.80D-09 NDo=     1
 LinEq1:  Iter=  7 NonCon=     1 RMS=1.01D-10 Max=1.95D-09 NDo=     1
 LinEq1:  Iter=  8 NonCon=     1 RMS=3.23D-11 Max=7.15D-10 NDo=     1
 LinEq1:  Iter=  9 NonCon=     0 RMS=1.45D-11 Max=2.87D-10 NDo=     1
 Linear equations converged to 3.255D-11 3.255D-10 after     9 iterations.
 SCF Done:  E(UPM6) =  0.927705980757     a.u. after   22 cycles
            Convg  =    0.2665D-06                    76 Fock formations.
              S**2 =  2.2533                  -V/T =  1.0094
 <Sx>= 0.0000 <Sy>= 0.0000 <Sz>= 0.5000 <S**2>= 2.2533 S= 1.0822
 <L.S>= 0.000000000000E+00
 Annihilation of the first spin contaminant:
 S**2 before annihilation     2.2533,   after     4.5841

 **********************************************************************

            Population analysis using the SCF density.

 **********************************************************************

 Orbital symmetries:
 Alpha Orbitals:
       Occupied  (A) (A) (A) (A) (A) (A) (A) (A) (A) (A) (A) (A)
                 (A) (A) (A) (A) (A) (A) (A) (A) (A) (A) (A) (A)
                 (A) (A) (A) (A) (A) (A) (A) (A) (A) (A) (A) (A)
                 (A) (A) (A) (A) (A) (A) (A) (A) (A) (A) (A) (A)
                 (A) (A) (A) (A) (A) (A) (A) (A) (A) (A) (A) (A)
                 (A) (A) (A) (A) (A) (A) (A) (A) (A) (A) (A)
       Virtual   (A) (A) (A) (A) (A) (A) (A) (A) (A) (A) (A) (A)
                 (A) (A) (A) (A) (A) (A) (A) (A) (A) (A) (A) (A)
                 (A) (A) (A) (A) (A) (A) (A) (A) (A) (A) (A) (A)
                 (A) (A) (A) (A) (A) (A) (A) (A) (A) (A) (A) (A)
                 (A) (A) (A) (A) (A) (A) (A) (A) (A) (A) (A) (A)
                 (A) (A) (A) (A) (A) (A) (A) (A)
 Beta  Orbitals:
       Occupied  (A) (A) (A) (A) (A) (A) (A) (A) (A) (A) (A) (A)
                 (A) (A) (A) (A) (A) (A) (A) (A) (A) (A) (A) (A)
                 (A) (A) (A) (A) (A) (A) (A) (A) (A) (A) (A) (A)
                 (A) (A) (A) (A) (A) (A) (A) (A) (A) (A) (A) (A)
                 (A) (A) (A) (A) (A) (A) (A) (A) (A) (A) (A) (A)
                 (A) (A) (A) (A) (A) (A) (A) (A) (A) (A)
       Virtual   (A) (A) (A) (A) (A) (A) (A) (A) (A) (A) (A) (A)
                 (A) (A) (A) (A) (A) (A) (A) (A) (A) (A) (A) (A)
                 (A) (A) (A) (A) (A) (A) (A) (A) (A) (A) (A) (A)
                 (A) (A) (A) (A) (A) (A) (A) (A) (A) (A) (A) (A)
                 (A) (A) (A) (A) (A) (A) (A) (A) (A) (A) (A) (A)
                 (A) (A) (A) (A) (A) (A) (A) (A) (A)
 The electronic state is 2-A.
 Alpha  occ. eigenvalues --   -1.12381  -1.09442  -1.08896  -1.05990  -1.01893
 Alpha  occ. eigenvalues --   -1.01529  -0.98224  -0.97004  -0.94058  -0.92064
 Alpha  occ. eigenvalues --   -0.90886  -0.90119  -0.86897  -0.85185  -0.83240
 Alpha  occ. eigenvalues --   -0.79433  -0.78838  -0.76361  -0.75806  -0.73114
 Alpha  occ. eigenvalues --   -0.72635  -0.68825  -0.67013  -0.65074  -0.64866
 Alpha  occ. eigenvalues --   -0.61862  -0.60226  -0.57357  -0.56003  -0.55749
 Alpha  occ. eigenvalues --   -0.55341  -0.53997  -0.53853  -0.52418  -0.52032
 Alpha  occ. eigenvalues --   -0.50663  -0.50437  -0.49400  -0.49181  -0.48603
 Alpha  occ. eigenvalues --   -0.47454  -0.47339  -0.47079  -0.46400  -0.45809
 Alpha  occ. eigenvalues --   -0.45350  -0.45111  -0.44690  -0.43533  -0.43151
 Alpha  occ. eigenvalues --   -0.41704  -0.41104  -0.40718  -0.40459  -0.40138
 Alpha  occ. eigenvalues --   -0.38195  -0.37263  -0.37188  -0.35359  -0.34673
 Alpha  occ. eigenvalues --   -0.33223  -0.32904  -0.32589  -0.32440  -0.31557
 Alpha  occ. eigenvalues --   -0.28739  -0.24773  -0.23953  -0.20244  -0.19900
 Alpha  occ. eigenvalues --   -0.18232
 Alpha virt. eigenvalues --   -0.05330  -0.01943  -0.01017  -0.00960  -0.00846
 Alpha virt. eigenvalues --    0.02252   0.02797   0.03192   0.04780   0.05700
 Alpha virt. eigenvalues --    0.05937   0.07445   0.08466   0.08580   0.10669
 Alpha virt. eigenvalues --    0.12424   0.13188   0.13842   0.14834   0.14908
 Alpha virt. eigenvalues --    0.16938   0.17215   0.17377   0.17618   0.17972
 Alpha virt. eigenvalues --    0.18235   0.18646   0.18780   0.18956   0.19236
 Alpha virt. eigenvalues --    0.19433   0.19598   0.19967   0.20002   0.20193
 Alpha virt. eigenvalues --    0.20353   0.20561   0.20853   0.20929   0.21206
 Alpha virt. eigenvalues --    0.21413   0.21609   0.21840   0.22029   0.22142
 Alpha virt. eigenvalues --    0.22297   0.22389   0.22631   0.23003   0.23082
 Alpha virt. eigenvalues --    0.23240   0.23417   0.23777   0.23794   0.23957
 Alpha virt. eigenvalues --    0.24001   0.24058   0.24387   0.24431   0.24923
 Alpha virt. eigenvalues --    0.24974   0.24994   0.25129   0.25681   0.26498
 Alpha virt. eigenvalues --    0.26811   0.27692   0.28334
  Beta  occ. eigenvalues --   -1.12363  -1.09427  -1.08885  -1.05940  -1.01844
  Beta  occ. eigenvalues --   -1.01473  -0.98206  -0.96911  -0.94012  -0.91980
  Beta  occ. eigenvalues --   -0.90861  -0.90051  -0.86852  -0.84919  -0.83282
  Beta  occ. eigenvalues --   -0.79298  -0.78795  -0.76247  -0.75629  -0.73075
  Beta  occ. eigenvalues --   -0.72591  -0.68745  -0.66911  -0.64966  -0.64791
  Beta  occ. eigenvalues --   -0.61783  -0.60150  -0.57298  -0.55854  -0.55595
  Beta  occ. eigenvalues --   -0.55227  -0.53963  -0.53711  -0.52486  -0.51900
  Beta  occ. eigenvalues --   -0.50573  -0.50354  -0.49161  -0.49034  -0.48514
  Beta  occ. eigenvalues --   -0.47256  -0.47107  -0.46968  -0.46184  -0.45675
  Beta  occ. eigenvalues --   -0.45048  -0.44905  -0.44615  -0.43403  -0.43085
  Beta  occ. eigenvalues --   -0.41008  -0.40746  -0.40688  -0.40423  -0.40310
  Beta  occ. eigenvalues --   -0.37693  -0.37389  -0.35939  -0.35211  -0.34471
  Beta  occ. eigenvalues --   -0.33082  -0.32852  -0.32197  -0.31711  -0.30936
  Beta  occ. eigenvalues --   -0.24653  -0.23756  -0.20199  -0.19495  -0.18256
  Beta virt. eigenvalues --   -0.05334  -0.01989  -0.01636  -0.01374  -0.00679
  Beta virt. eigenvalues --    0.01230   0.02447   0.02882   0.04085   0.04808
  Beta virt. eigenvalues --    0.06241   0.06348   0.07772   0.08474   0.09577
  Beta virt. eigenvalues --    0.10926   0.12507   0.13435   0.14349   0.14836
  Beta virt. eigenvalues --    0.14887   0.16888   0.17298   0.17446   0.17602
  Beta virt. eigenvalues --    0.17995   0.18196   0.18590   0.18762   0.19073
  Beta virt. eigenvalues --    0.19323   0.19456   0.19574   0.19930   0.20018
  Beta virt. eigenvalues --    0.20191   0.20446   0.20596   0.20837   0.21043
  Beta virt. eigenvalues --    0.21293   0.21565   0.21649   0.21870   0.21971
  Beta virt. eigenvalues --    0.22207   0.22421   0.22445   0.22637   0.23090
  Beta virt. eigenvalues --    0.23230   0.23438   0.23547   0.23877   0.24015
  Beta virt. eigenvalues --    0.24075   0.24251   0.24278   0.24493   0.24564
  Beta virt. eigenvalues --    0.24802   0.24913   0.24956   0.25254   0.25868
  Beta virt. eigenvalues --    0.26622   0.27000   0.27897   0.28421
          Condensed to atoms (all electrons):
               1          2          3          4          5          6
     1  C    4.199649   0.000000   0.000000   0.000000   0.000000   0.000000
     2  C    0.000000   4.164953   0.000000   0.000000   0.000000   0.000000
     3  C    0.000000   0.000000   4.019419   0.000000   0.000000   0.000000
     4  C    0.000000   0.000000   0.000000   3.980284   0.000000   0.000000
     5  C    0.000000   0.000000   0.000000   0.000000   4.131505   0.000000
     6  C    0.000000   0.000000   0.000000   0.000000   0.000000   4.200454
     7  C    0.000000   0.000000   0.000000   0.000000   0.000000   0.000000
     8  C    0.000000   0.000000   0.000000   0.000000   0.000000   0.000000
     9  C    0.000000   0.000000   0.000000   0.000000   0.000000   0.000000
    10  C    0.000000   0.000000   0.000000   0.000000   0.000000   0.000000
    11  C    0.000000   0.000000   0.000000   0.000000   0.000000   0.000000
    12  C    0.000000   0.000000   0.000000   0.000000   0.000000   0.000000
    13  C    0.000000   0.000000   0.000000   0.000000   0.000000   0.000000
    14  C    0.000000   0.000000   0.000000   0.000000   0.000000   0.000000
    15  C    0.000000   0.000000   0.000000   0.000000   0.000000   0.000000
    16  C    0.000000   0.000000   0.000000   0.000000   0.000000   0.000000
    17  C    0.000000   0.000000   0.000000   0.000000   0.000000   0.000000
    18  C    0.000000   0.000000   0.000000   0.000000   0.000000   0.000000
    19  C    0.000000   0.000000   0.000000   0.000000   0.000000   0.000000
    20  C    0.000000   0.000000   0.000000   0.000000   0.000000   0.000000
    21  C    0.000000   0.000000   0.000000   0.000000   0.000000   0.000000
    22  C    0.000000   0.000000   0.000000   0.000000   0.000000   0.000000
    23  C    0.000000   0.000000   0.000000   0.000000   0.000000   0.000000
    24  C    0.000000   0.000000   0.000000   0.000000   0.000000   0.000000
    25  C    0.000000   0.000000   0.000000   0.000000   0.000000   0.000000
    26  C    0.000000   0.000000   0.000000   0.000000   0.000000   0.000000
    27  C    0.000000   0.000000   0.000000   0.000000   0.000000   0.000000
    28  C    0.000000   0.000000   0.000000   0.000000   0.000000   0.000000
    29  C    0.000000   0.000000   0.000000   0.000000   0.000000   0.000000
    30  H    0.000000   0.000000   0.000000   0.000000   0.000000   0.000000
    31  H    0.000000   0.000000   0.000000   0.000000   0.000000   0.000000
    32  H    0.000000   0.000000   0.000000   0.000000   0.000000   0.000000
    33  H    0.000000   0.000000   0.000000   0.000000   0.000000   0.000000
    34  H    0.000000   0.000000   0.000000   0.000000   0.000000   0.000000
    35  H    0.000000   0.000000   0.000000   0.000000   0.000000   0.000000
    36  H    0.000000   0.000000   0.000000   0.000000   0.000000   0.000000
    37  H    0.000000   0.000000   0.000000   0.000000   0.000000   0.000000
    38  H    0.000000   0.000000   0.000000   0.000000   0.000000   0.000000
    39  H    0.000000   0.000000   0.000000   0.000000   0.000000   0.000000
    40  H    0.000000   0.000000   0.000000   0.000000   0.000000   0.000000
    41  H    0.000000   0.000000   0.000000   0.000000   0.000000   0.000000
    42  H    0.000000   0.000000   0.000000   0.000000   0.000000   0.000000
    43  H    0.000000   0.000000   0.000000   0.000000   0.000000   0.000000
    44  Ag   0.000000   0.000000   0.000000   0.000000   0.000000   0.000000
               7          8          9         10         11         12
     1  C    0.000000   0.000000   0.000000   0.000000   0.000000   0.000000
     2  C    0.000000   0.000000   0.000000   0.000000   0.000000   0.000000
     3  C    0.000000   0.000000   0.000000   0.000000   0.000000   0.000000
     4  C    0.000000   0.000000   0.000000   0.000000   0.000000   0.000000
     5  C    0.000000   0.000000   0.000000   0.000000   0.000000   0.000000
     6  C    0.000000   0.000000   0.000000   0.000000   0.000000   0.000000
     7  C    4.188637   0.000000   0.000000   0.000000   0.000000   0.000000
     8  C    0.000000   4.600910   0.000000   0.000000   0.000000   0.000000
     9  C    0.000000   0.000000   4.351541   0.000000   0.000000   0.000000
    10  C    0.000000   0.000000   0.000000   3.880695   0.000000   0.000000
    11  C    0.000000   0.000000   0.000000   0.000000   3.782539   0.000000
    12  C    0.000000   0.000000   0.000000   0.000000   0.000000   4.031684
    13  C    0.000000   0.000000   0.000000   0.000000   0.000000   0.000000
    14  C    0.000000   0.000000   0.000000   0.000000   0.000000   0.000000
    15  C    0.000000   0.000000   0.000000   0.000000   0.000000   0.000000
    16  C    0.000000   0.000000   0.000000   0.000000   0.000000   0.000000
    17  C    0.000000   0.000000   0.000000   0.000000   0.000000   0.000000
    18  C    0.000000   0.000000   0.000000   0.000000   0.000000   0.000000
    19  C    0.000000   0.000000   0.000000   0.000000   0.000000   0.000000
    20  C    0.000000   0.000000   0.000000   0.000000   0.000000   0.000000
    21  C    0.000000   0.000000   0.000000   0.000000   0.000000   0.000000
    22  C    0.000000   0.000000   0.000000   0.000000   0.000000   0.000000
    23  C    0.000000   0.000000   0.000000   0.000000   0.000000   0.000000
    24  C    0.000000   0.000000   0.000000   0.000000   0.000000   0.000000
    25  C    0.000000   0.000000   0.000000   0.000000   0.000000   0.000000
    26  C    0.000000   0.000000   0.000000   0.000000   0.000000   0.000000
    27  C    0.000000   0.000000   0.000000   0.000000   0.000000   0.000000
    28  C    0.000000   0.000000   0.000000   0.000000   0.000000   0.000000
    29  C    0.000000   0.000000   0.000000   0.000000   0.000000   0.000000
    30  H    0.000000   0.000000   0.000000   0.000000   0.000000   0.000000
    31  H    0.000000   0.000000   0.000000   0.000000   0.000000   0.000000
    32  H    0.000000   0.000000   0.000000   0.000000   0.000000   0.000000
    33  H    0.000000   0.000000   0.000000   0.000000   0.000000   0.000000
    34  H    0.000000   0.000000   0.000000   0.000000   0.000000   0.000000
    35  H    0.000000   0.000000   0.000000   0.000000   0.000000   0.000000
    36  H    0.000000   0.000000   0.000000   0.000000   0.000000   0.000000
    37  H    0.000000   0.000000   0.000000   0.000000   0.000000   0.000000
    38  H    0.000000   0.000000   0.000000   0.000000   0.000000   0.000000
    39  H    0.000000   0.000000   0.000000   0.000000   0.000000   0.000000
    40  H    0.000000   0.000000   0.000000   0.000000   0.000000   0.000000
    41  H    0.000000   0.000000   0.000000   0.000000   0.000000   0.000000
    42  H    0.000000   0.000000   0.000000   0.000000   0.000000   0.000000
    43  H    0.000000   0.000000   0.000000   0.000000   0.000000   0.000000
    44  Ag   0.000000   0.000000   0.000000   0.000000   0.000000   0.000000
              13         14         15         16         17         18
     1  C    0.000000   0.000000   0.000000   0.000000   0.000000   0.000000
     2  C    0.000000   0.000000   0.000000   0.000000   0.000000   0.000000
     3  C    0.000000   0.000000   0.000000   0.000000   0.000000   0.000000
     4  C    0.000000   0.000000   0.000000   0.000000   0.000000   0.000000
     5  C    0.000000   0.000000   0.000000   0.000000   0.000000   0.000000
     6  C    0.000000   0.000000   0.000000   0.000000   0.000000   0.000000
     7  C    0.000000   0.000000   0.000000   0.000000   0.000000   0.000000
     8  C    0.000000   0.000000   0.000000   0.000000   0.000000   0.000000
     9  C    0.000000   0.000000   0.000000   0.000000   0.000000   0.000000
    10  C    0.000000   0.000000   0.000000   0.000000   0.000000   0.000000
    11  C    0.000000   0.000000   0.000000   0.000000   0.000000   0.000000
    12  C    0.000000   0.000000   0.000000   0.000000   0.000000   0.000000
    13  C    4.586976   0.000000   0.000000   0.000000   0.000000   0.000000
    14  C    0.000000   4.650054   0.000000   0.000000   0.000000   0.000000
    15  C    0.000000   0.000000   4.358648   0.000000   0.000000   0.000000
    16  C    0.000000   0.000000   0.000000   4.108149   0.000000   0.000000
    17  C    0.000000   0.000000   0.000000   0.000000   4.576546   0.000000
    18  C    0.000000   0.000000   0.000000   0.000000   0.000000   4.548250
    19  C    0.000000   0.000000   0.000000   0.000000   0.000000   0.000000
    20  C    0.000000   0.000000   0.000000   0.000000   0.000000   0.000000
    21  C    0.000000   0.000000   0.000000   0.000000   0.000000   0.000000
    22  C    0.000000   0.000000   0.000000   0.000000   0.000000   0.000000
    23  C    0.000000   0.000000   0.000000   0.000000   0.000000   0.000000
    24  C    0.000000   0.000000   0.000000   0.000000   0.000000   0.000000
    25  C    0.000000   0.000000   0.000000   0.000000   0.000000   0.000000
    26  C    0.000000   0.000000   0.000000   0.000000   0.000000   0.000000
    27  C    0.000000   0.000000   0.000000   0.000000   0.000000   0.000000
    28  C    0.000000   0.000000   0.000000   0.000000   0.000000   0.000000
    29  C    0.000000   0.000000   0.000000   0.000000   0.000000   0.000000
    30  H    0.000000   0.000000   0.000000   0.000000   0.000000   0.000000
    31  H    0.000000   0.000000   0.000000   0.000000   0.000000   0.000000
    32  H    0.000000   0.000000   0.000000   0.000000   0.000000   0.000000
    33  H    0.000000   0.000000   0.000000   0.000000   0.000000   0.000000
    34  H    0.000000   0.000000   0.000000   0.000000   0.000000   0.000000
    35  H    0.000000   0.000000   0.000000   0.000000   0.000000   0.000000
    36  H    0.000000   0.000000   0.000000   0.000000   0.000000   0.000000
    37  H    0.000000   0.000000   0.000000   0.000000   0.000000   0.000000
    38  H    0.000000   0.000000   0.000000   0.000000   0.000000   0.000000
    39  H    0.000000   0.000000   0.000000   0.000000   0.000000   0.000000
    40  H    0.000000   0.000000   0.000000   0.000000   0.000000   0.000000
    41  H    0.000000   0.000000   0.000000   0.000000   0.000000   0.000000
    42  H    0.000000   0.000000   0.000000   0.000000   0.000000   0.000000
    43  H    0.000000   0.000000   0.000000   0.000000   0.000000   0.000000
    44  Ag   0.000000   0.000000   0.000000   0.000000   0.000000   0.000000
              19         20         21         22         23         24
     1  C    0.000000   0.000000   0.000000   0.000000   0.000000   0.000000
     2  C    0.000000   0.000000   0.000000   0.000000   0.000000   0.000000
     3  C    0.000000   0.000000   0.000000   0.000000   0.000000   0.000000
     4  C    0.000000   0.000000   0.000000   0.000000   0.000000   0.000000
     5  C    0.000000   0.000000   0.000000   0.000000   0.000000   0.000000
     6  C    0.000000   0.000000   0.000000   0.000000   0.000000   0.000000
     7  C    0.000000   0.000000   0.000000   0.000000   0.000000   0.000000
     8  C    0.000000   0.000000   0.000000   0.000000   0.000000   0.000000
     9  C    0.000000   0.000000   0.000000   0.000000   0.000000   0.000000
    10  C    0.000000   0.000000   0.000000   0.000000   0.000000   0.000000
    11  C    0.000000   0.000000   0.000000   0.000000   0.000000   0.000000
    12  C    0.000000   0.000000   0.000000   0.000000   0.000000   0.000000
    13  C    0.000000   0.000000   0.000000   0.000000   0.000000   0.000000
    14  C    0.000000   0.000000   0.000000   0.000000   0.000000   0.000000
    15  C    0.000000   0.000000   0.000000   0.000000   0.000000   0.000000
    16  C    0.000000   0.000000   0.000000   0.000000   0.000000   0.000000
    17  C    0.000000   0.000000   0.000000   0.000000   0.000000   0.000000
    18  C    0.000000   0.000000   0.000000   0.000000   0.000000   0.000000
    19  C    3.982131   0.000000   0.000000   0.000000   0.000000   0.000000
    20  C    0.000000   4.020126   0.000000   0.000000   0.000000   0.000000
    21  C    0.000000   0.000000   4.201931   0.000000   0.000000   0.000000
    22  C    0.000000   0.000000   0.000000   4.008994   0.000000   0.000000
    23  C    0.000000   0.000000   0.000000   0.000000   3.800385   0.000000
    24  C    0.000000   0.000000   0.000000   0.000000   0.000000   3.993053
    25  C    0.000000   0.000000   0.000000   0.000000   0.000000   0.000000
    26  C    0.000000   0.000000   0.000000   0.000000   0.000000   0.000000
    27  C    0.000000   0.000000   0.000000   0.000000   0.000000   0.000000
    28  C    0.000000   0.000000   0.000000   0.000000   0.000000   0.000000
    29  C    0.000000   0.000000   0.000000   0.000000   0.000000   0.000000
    30  H    0.000000   0.000000   0.000000   0.000000   0.000000   0.000000
    31  H    0.000000   0.000000   0.000000   0.000000   0.000000   0.000000
    32  H    0.000000   0.000000   0.000000   0.000000   0.000000   0.000000
    33  H    0.000000   0.000000   0.000000   0.000000   0.000000   0.000000
[...]
 ,0.00001333,0.00000582,0.00000429,0.00001327,0.00000323,-0.00001264,-0
 .00000063,0.00001123,0.00000218,-0.00001769,0.00000797,0.00000282,-0.0
 0000375,0.00009850,0.00007918,-0.00034447,-0.00156176,0.01589446,-0.02
 773216,0.02548126,0.00004481,0.00011280,0.00000539,-0.00153300,0.00004
 647,0.00001711,-0.03086046,0.02510241,-0.00508876,0.00746646,-0.009153
 68,0.00080796,-0.00012102,0.00006243,-0.00001003,-0.08021624,0.0804017
 4,-0.00937219,-0.00035899,-0.00116322,0.00011064,-0.00005402,0.0000088
 3,0.00002239,-0.00000755,-0.00000562,0.00000686,0.00010294,0.00007428,
 -0.00001574,0.00000423,-0.00000330,-0.00000972,0.00001218,-0.00001211,
 -0.00000286,-0.00018173,0.00029721,-0.00007897,0.00009140,0.00001516,-
 0.00002458,0.00001114,-0.00000512,0.00000463,-0.00002847,-0.00016205,0
 .00003567,-0.00004863,-0.00008727,-0.00001783,0.00000476,-0.00001809,-
 0.00000296,0.00019771,-0.00022975,0.00002358,0.00000971,0.00000310,0.0
 0000644,0.00001083,-0.00001696,0.00000496,-0.00267375,-0.00019191,-0.0
 0052675,-0.00001675,-0.00000860,-0.00000516,-0.00092869,-0.00130047,-0
 .00033717,-0.00002576,0.00005957,0.00001786,0.00001578,0.00002563,-0.0
 0000330,-0.00001491,-0.00001401,-0.00000013,-0.00006953,-0.00011318,-0
 .00000973,-0.00000568,-0.00001584,-0.00000320,0.00001292,0.00003156,0.
 00000020,0.00002837,0.00000658,0.00000111,0.00000869,0.00001577,0.0000
 0135,-0.00000697,0.00001874,0.00000122,-0.00000728,0.00001390,0.000002
 47,-0.00001130,0.00001405,0.00000370,-0.00001605,-0.00000066,0.0000037
 2,-0.00001297,-0.00001058,0.00000302,-0.00002260,-0.00002003,0.0000000
 3,0.00000179,-0.00008350,-0.00000142,-0.00057029,-0.00068550,0.0000173
 9,0.11040097,-0.00011007,-0.00018504,0.00001643,-0.00023119,0.00027359
 ,-0.00016503,0.01228412,-0.00156675,0.00157099,0.00365539,-0.03964978,
 0.00344294,0.00022387,0.00000338,0.00001000,0.08032331,-0.17004491,0.0
 1679280,-0.00075845,-0.00122695,-0.00004168,-0.00001532,-0.00004908,-0
 .00000614,-0.00000713,-0.00002761,0.00002026,-0.00004185,-0.00005521,0
 .00001087,-0.00003861,-0.00000577,0.00000412,-0.00002648,0.00000276,0.
 00000809,0.00016436,-0.00023447,0.00005354,0.00011057,0.00003354,-0.00
 008938,-0.00001231,0.00003406,0.00001956,-0.00012614,0.00013363,-0.000
 05962,-0.00002383,0.00017502,0.00000300,-0.00001853,0.00002371,0.00000
 307,0.00027620,-0.00029919,-0.00001203,-0.00003018,-0.00000432,-0.0000
 0130,-0.00001939,0.00002856,0.00000202,-0.00038061,0.00017266,0.000308
 71,-0.00004986,-0.00001379,-0.00000174,-0.00142149,-0.00175965,0.00020
 488,0.00001931,-0.00004918,-0.00001964,0.00001051,-0.00002923,-0.00000
 850,0.00007962,0.00005477,0.00000442,-0.00003343,-0.00004178,-0.000015
 83,0.00000833,0.00002250,0.00000459,-0.00004106,-0.00005829,-0.0000005
 0,-0.00000665,-0.00004386,-0.00000260,-0.00001205,-0.00002482,-0.00000
 360,0.00001309,-0.00002782,-0.00000276,0.00001449,-0.00002412,-0.00000
 397,0.00001266,-0.00002393,-0.00000523,0.00002910,0.00000144,-0.000012
 34,0.00001623,0.00003037,-0.00000668,0.00002563,0.00005255,-0.00000602
 ,-0.00001340,0.00010134,-0.00000571,-0.00056646,0.00015041,-0.00001997
 ,-0.09256067,0.21400671,-0.00012374,0.00010981,0.00004614,0.00028819,0
 .00001888,-0.00121744,-0.00544344,0.00269682,0.00572614,-0.00071925,0.
 00154548,0.00618155,-0.00001020,-0.00005977,-0.00001758,-0.00812798,0.
 01740531,-0.03944261,0.00028278,-0.00008596,-0.00103889,0.00001535,-0.
 00000848,-0.00003197,-0.00001097,0.00002936,-0.00000556,-0.00004635,-0
 .00008444,-0.00003536,0.00005787,-0.00000090,0.00001301,0.00001011,-0.
 00001705,-0.00000669,0.00016338,0.00012421,-0.00029783,-0.00015519,-0.
 00003573,0.00003150,0.00000949,-0.00000910,-0.00003215,0.00029586,0.00
 026908,0.00003016,-0.00004085,0.00003908,0.00002189,0.00000005,0.00000
 204,-0.00001329,-0.00008189,0.00007107,-0.00021616,-0.00000310,-0.0000
 2281,0.00000603,0.00002587,-0.00000439,0.00002936,-0.00059778,-0.00026
 218,0.00391477,0.00001985,0.00002601,0.00002684,-0.00049606,0.00042903
 ,0.00354027,0.00014087,-0.00000338,-0.00044533,-0.00000771,-0.00004789
 ,-0.00001820,0.00002661,0.00003270,-0.00002688,0.00002813,-0.00002711,
 -0.00007132,-0.00002173,0.00000409,0.00001157,0.00000181,0.00000566,0.
 00003316,0.00000112,0.00000261,0.00001976,0.00000260,0.00000319,0.0000
 0152,-0.00000376,0.00000235,0.00000493,-0.00000402,0.00000554,0.000003
 86,-0.00000066,0.00000677,0.00000113,-0.00000547,-0.00000020,0.0000071
 3,0.00000241,-0.00000693,0.00000835,-0.00000262,-0.00000343,0.00001342
 ,-0.00000208,0.00000026,0.00010900,0.00000623,-0.00002301,0.00028735,0
 .01450241,-0.02206786,0.02242557,0.00001189,0.00001831,0.00001122,0.00
 004316,-0.00001878,0.00000712,0.00005274,0.00010507,-0.00000572,-0.030
 63636,0.02505491,-0.00333788,0.00705686,-0.00902575,0.00017903,-0.0018
 0400,0.00005893,-0.00003454,-0.08113357,0.08144720,-0.00438545,0.00000
 182,0.00001402,0.00000499,0.00000440,0.00001228,-0.00000785,0.00002846
 ,0.00000453,-0.00000524,0.00001829,-0.00000103,-0.00000198,0.00001516,
 -0.00000163,-0.00000399,-0.00005681,0.00011085,-0.00004077,-0.00003832
 ,-0.00001109,0.00003689,0.00000722,-0.00001479,-0.00000901,-0.00023442
 ,0.00045548,-0.00002946,0.00000632,-0.00005059,-0.00000990,0.00001120,
 -0.00000941,0.00000332,-0.00002158,-0.00018832,0.00000074,0.00000372,-
 0.00001778,-0.00000139,0.00000997,-0.00000997,0.00000237,0.00004802,0.
 00003807,-0.00000207,0.00001956,0.00000352,0.00000007,-0.00266343,-0.0
 0043708,-0.00051636,-0.00011998,-0.00001853,-0.00002375,-0.00000925,-0
 .00000059,0.00000217,-0.00088052,-0.00154288,-0.00045339,-0.00001490,0
 .00004111,0.00003988,0.00000820,0.00000712,0.00000110,0.00023528,-0.00
 014839,0.00003878,0.00001293,0.00004099,0.00000180,0.00000593,0.000021
 57,0.00000150,-0.00000774,0.00002126,0.00000213,-0.00001098,0.00001516
 ,0.00000148,-0.00000837,0.00001357,0.00000248,-0.00001645,-0.00000031,
 0.00000581,-0.00000914,-0.00001402,0.00000292,-0.00001374,-0.00001905,
 0.00000189,-0.00000696,-0.00003370,0.00000303,0.00000792,-0.00004377,0
 .00000053,-0.00055464,-0.00071511,-0.00000243,0.11014457,-0.00002827,-
 0.00002988,0.00000043,0.00003277,-0.00003387,-0.00000382,-0.00005147,-
 0.00013749,0.00001842,0.01167888,-0.00150027,0.00105455,0.00476898,-0.
 04064934,0.00088820,-0.00026107,0.00028756,-0.00007535,0.08103288,-0.1
 7170279,0.00836077,-0.00002482,-0.00002557,0.00000193,-0.00001383,-0.0
 0002639,0.00001567,0.00001540,0.00001332,-0.00001054,-0.00002747,0.000
 00016,-0.00000221,-0.00002138,-0.00000571,0.00000628,-0.00002185,-0.00
 014881,0.00002121,0.00007797,-0.00002456,-0.00005817,-0.00000465,0.000
 01799,0.00001284,0.00004347,0.00009025,-0.00000543,0.00006302,0.000219
 13,0.00006294,-0.00001658,0.00001526,-0.00000364,-0.00011233,0.0002960
 6,-0.00000880,-0.00002453,0.00002126,-0.00001437,-0.00001156,0.0000101
 9,-0.00001589,0.00002856,-0.00000372,0.00000409,-0.00002823,0.00000294
 ,0.00000192,-0.00038808,0.00002166,0.00002360,-0.00003417,-0.00003352,
 0.00000441,-0.00002528,-0.00001447,0.00000290,-0.00149493,-0.00191117,
 -0.00006135,0.00004538,-0.00005064,-0.00000976,-0.00001359,-0.00001582
 ,-0.00000514,0.00014776,-0.00040331,-0.00001551,-0.00003163,-0.0000583
 0,-0.00000565,-0.00000862,-0.00002990,-0.00000045,0.00001032,-0.000035
 01,-0.00000296,0.00001548,-0.00002008,-0.00000271,0.00001053,-0.000015
 98,-0.00000355,0.00002192,0.00000042,-0.00000862,0.00001141,0.00002256
 ,-0.00000411,0.00001449,0.00002962,-0.00000394,0.00000775,0.00003737,-
 0.00000351,-0.00008299,0.00008017,-0.00000972,-0.00053153,0.00013622,-
 0.00002531,-0.09426214,0.21593930,-0.00000139,0.00000795,-0.00000790,0
 .00000612,0.00001518,0.00000749,-0.00007574,0.00002545,0.00001516,-0.0
 0393844,0.00194805,0.00581650,-0.00016029,-0.00087802,0.00636032,0.000
 11956,0.00013989,-0.00097519,-0.00361494,0.00882163,-0.03887806,-0.000
 01204,0.00000579,-0.00000772,-0.00000147,0.00000387,-0.00000494,0.0000
 2154,0.00000793,0.00000622,0.00000901,-0.00000780,0.00000233,0.0000021
 9,-0.00000058,-0.00000278,-0.00003228,-0.00000962,-0.00001003,-0.00002
 253,-0.00000074,0.00000179,0.00000080,-0.00000343,-0.00000348,-0.00000
 231,-0.00002317,-0.00014733,0.00001380,0.00000225,-0.00001575,-0.00000
 251,-0.00000299,-0.00000477,0.00011181,0.00009825,0.00005743,-0.000033
 21,0.00001550,0.00003083,-0.00000834,-0.00000645,-0.00000917,0.0000599
 1,-0.00000276,0.00002270,0.00000589,0.00000529,0.00000190,-0.00050596,
 -0.00015430,0.00352892,-0.00000339,0.00001725,-0.00008604,0.00000511,0
 .00000453,0.00000351,-0.00055390,0.00017464,0.00454787,0.00007412,0.00
 000689,-0.00048848,0.00001104,-0.00001704,0.00002834,0.00003877,0.0000
 1548,-0.00040782,0.00000020,0.00000052,0.00003316,0.00000113,0.0000021
 6,0.00000657,-0.00000126,0.00000254,0.00000117,-0.00000127,0.00000256,
 0.00000494,-0.00000067,0.00000275,0.00000212,-0.00000244,-0.00000007,0
 .00000280,-0.00000037,-0.00000292,0.00000335,-0.00000140,-0.00000279,0
 .00000534,-0.00000103,-0.00000361,0.00000654,0.00000430,-0.00000441,0.
 00003078,-0.00001897,-0.00002232,0.00030314,0.00841101,-0.01011711,0.0
 2124321,0.00001505,0.00002192,0.00000950,0.00000956,0.00001312,0.00000
 342,-0.00001557,-0.00002218,0.00002584,-0.00041459,-0.00114087,-0.0003
 8206,-0.21771027,0.00008906,-0.01350687,-0.00017809,-0.00001450,0.0000
 0994,-0.02636049,-0.01510302,-0.00237806,0.00002101,0.00002595,0.00000
 175,0.00001149,0.00002963,-0.00001926,0.00001729,-0.00002110,0.0000040
 3,0.00004009,-0.00000263,0.00000042,0.00002918,0.,-0.00000837,-0.00003
 618,0.00021961,-0.00005617,-0.00011256,0.00000003,0.00007942,0.0000114
 6,-0.00002962,-0.00001927,-0.00013896,-0.00000004,0.00001362,-0.000036
 03,-0.00021908,-0.00005587,0.00002096,-0.00002600,0.00000176,-0.000412
 44,0.00113879,-0.00038225,-0.00001565,0.00002213,0.00002578,0.00001507
 ,-0.00002199,0.00000945,0.00003002,-0.00005630,-0.00000120,0.00004009,
 0.00000262,0.00000043,0.00037382,-0.00000020,0.00004055,0.00003003,0.0
 0005620,-0.00000119,0.00001713,0.00002103,0.00000403,-0.02631720,0.015
 12136,-0.00237860,-0.00017754,0.00001472,0.00001000,0.00000959,-0.0000
 1316,0.00000342,0.00048917,0.00051516,0.00011341,0.00004589,0.00007924
 ,-0.00000139,0.00001868,0.00004434,0.00000257,-0.00001382,0.00004217,0
 .00000337,-0.00001969,0.00002996,0.00000363,-0.00001415,0.00002482,0.0
 0000459,-0.00002958,0.00000002,0.00001126,-0.00001417,-0.00002481,0.00
 000460,-0.00001972,-0.00002993,0.00000363,-0.00001385,-0.00004215,0.00
 000337,0.00001862,-0.00004433,0.00000257,0.00004578,-0.00007922,-0.000
 00138,0.00048778,-0.00051596,0.00011344,0.27024888,-0.00000196,-0.0000
 0749,-0.00000243,-0.00003106,0.00000237,-0.00000374,-0.00001496,-0.000
 09889,0.00000874,-0.00097446,-0.00235548,-0.00002394,0.00008930,-0.033
 49015,0.00000596,-0.00052235,-0.00002041,-0.00004896,-0.02900676,-0.00
 748195,-0.00221237,0.00000161,-0.00000049,-0.00000073,0.00000129,0.000
 00151,-0.00000061,-0.00000881,0.00000150,0.00000161,0.00000090,-0.0000
 0228,0.00000097,-0.00000001,0.00000145,0.,0.00002117,-0.00002206,0.000
 01209,0.00000012,0.00001040,-0.00000007,-0.00000130,0.00000156,0.00000
 064,0.00000006,0.00000723,-0.00000005,-0.00002115,-0.00002179,-0.00001
 200,-0.00000163,-0.00000047,0.00000072,0.00097250,-0.00235758,0.000025
 62,0.00001488,-0.00009892,-0.00000879,0.00000194,-0.00000747,0.0000024
 2,-0.00000171,0.00000433,0.00000164,-0.00000097,-0.00000230,-0.0000009
 7,-0.00000021,-0.00009888,0.,0.00000169,0.00000425,-0.00000163,0.00000
 878,0.00000146,-0.00000162,0.02902483,-0.00752482,0.00221705,0.0005225
 1,-0.00002093,0.00004889,0.00003106,0.00000235,0.00000372,0.00089718,-
 0.00033918,0.00006879,0.00002822,0.00005795,0.00000661,0.00000454,0.00
 001013,0.00000057,0.00000105,0.00000539,0.00000041,-0.00000117,0.00000
 161,0.00000026,-0.00000030,0.00000005,0.00000026,0.00000002,0.00000028
 ,0.,0.00000031,0.00000007,-0.00000027,0.00000119,0.00000164,-0.0000002
 6,-0.00000104,0.00000543,-0.00000041,-0.00000455,0.00001018,-0.0000005
 7,-0.00002821,0.00005805,-0.00000660,-0.00089796,-0.00033781,-0.000069
 03,-0.00010453,0.05409378,0.00000030,0.00000273,0.00000897,0.00000100,
 0.00000316,0.00000069,0.00001893,-0.00002938,-0.00021833,-0.00045813,0
 .00001965,0.00481984,-0.01340290,0.00000601,-0.04129895,-0.00002264,-0
 .00001450,-0.00024060,-0.00236737,-0.00112155,0.00558369,0.00000401,0.
 00000179,-0.00000727,0.00000116,0.00000378,-0.00000386,-0.00000457,-0.
 00000543,0.00000364,0.00000462,-0.00000215,0.00000072,0.00000295,0.,-0
 .00000225,-0.00000347,0.00001381,0.00001282,-0.00002014,0.,0.00000659,
 0.00000116,-0.00000378,-0.00000386,0.00001653,-0.00000003,-0.00045045,
 -0.00000346,-0.00001376,0.00001286,0.00000400,-0.00000180,-0.00000727,
 -0.00045834,-0.00001799,0.00481977,0.00001895,0.00002932,-0.00021833,0
 .00000031,-0.00000273,0.00000897,0.00000815,0.00001151,0.00001693,0.00
 000463,0.00000215,0.00000072,0.00006981,0.00000005,0.00003272,0.000008
 15,-0.00001154,0.00001693,-0.00000458,0.00000542,0.00000364,-0.0023713
 7,0.00112610,0.00558310,-0.00002275,0.00001453,-0.00024062,0.00000099,
 -0.00000315,0.00000069,0.00013326,0.00004080,-0.00103825,0.00000051,-0
 .00000036,0.00009151,0.00000207,0.00000408,0.00000724,-0.00000166,0.00
 000346,0.00000317,-0.00000172,0.00000317,0.00000371,-0.00000097,0.0000
 0295,0.00000217,-0.00000296,0.,0.00000245,-0.00000097,-0.00000295,0.00
 000217,-0.00000172,-0.00000316,0.00000371,-0.00000167,-0.00000346,0.00
 000318,0.00000207,-0.00000408,0.00000724,0.00000051,0.00000037,0.00009
 150,0.00013339,-0.00004106,-0.00103825,0.01872056,-0.00001195,0.023608
 70,0.00102032,0.00094810,-0.00174204,-0.00016574,0.00037333,0.00008598
 ,-0.00217957,-0.00004391,-0.00248995,-0.00015571,-0.00011100,0.0000612
 4,-0.00007699,-0.00000007,-0.00000411,0.00007656,0.00057914,0.00012860
 ,-0.00003632,0.00001797,0.00002249,-0.00243579,0.00058724,0.00045065,-
 0.00127576,-0.00347569,0.00389640,0.00148422,0.00287943,-0.00030195,-0
 .00875316,-0.00185671,0.00373789,-0.00083500,0.00000011,-0.00000978,-0
 .00047450,-0.01009554,0.00304748,0.01289153,-0.00000436,-0.00661973,-0
 .00127152,0.00347563,0.00389579,-0.00147209,0.00000555,-0.00082962,-0.
 00048398,0.01005941,0.00303498,-0.00242978,-0.00058419,0.00044914,-0.0
 0015595,0.00011115,0.00006113,-0.00217630,0.00004120,-0.00248641,0.001
 01570,-0.00094680,-0.00173806,-0.00336270,0.00729570,-0.00217445,-0.00
 874674,0.00186494,0.00373368,-0.00043273,-0.00000011,0.00004786,-0.003
 36204,-0.00727566,-0.00217273,0.00148530,-0.00287688,-0.00030583,-0.00
 003648,-0.00001849,0.00002246,0.00007574,-0.00057772,0.00012907,-0.000
 16514,-0.00037053,0.00008678,-0.00000550,-0.00000992,-0.00001439,-0.00
 012482,-0.00007487,0.00002720,-0.00005060,-0.00007935,0.00023457,-0.00
 019909,-0.00014152,0.00002031,-0.00002773,0.00025549,0.00017688,-0.000
 57986,0.00000984,0.00009833,-0.00014243,0.,-0.00046896,-0.00058009,-0.
 00000924,0.00009821,-0.00002828,-0.00025652,0.00017707,-0.00020040,0.0
 0014152,0.00002044,-0.00005009,0.00007861,0.00023543,-0.00012483,0.000
 07470,0.00002725,-0.00000541,0.00001004,-0.00001438,0.00000732,-0.0000
 0003,-0.00000632,0.02458691,-0.00121714,-0.00285899,0.00311037,0.00007
 537,-0.00052220,-0.00015882,0.00181564,0.00078439,0.00291841,-0.000070
 69,0.00009299,-0.00007381,0.00000021,0.00000434,0.00000002,0.00000454,
 -0.00034656,-0.00003757,0.00004307,0.00008944,-0.00000408,-0.00013213,
 -0.00154889,0.00055728,-0.00076846,-0.00045021,0.00035795,0.00389795,-
 0.00797724,0.00288324,-0.00363115,0.00151306,0.00182545,0.00000152,-0.
 00009516,-0.00000039,-0.00699882,0.00660654,-0.00281680,-0.00005528,-0
 .00611908,0.00002761,0.00077028,-0.00046305,-0.00036935,-0.00000288,-0
 .00061396,-0.00000010,0.00701714,0.00659372,0.00282919,0.00014445,-0.0
 0154308,-0.00055747,0.00007081,0.00009118,0.00007371,-0.00180953,0.000
 78264,-0.00291224,0.00120921,-0.00285428,-0.00310513,0.00479727,-0.004
 06578,0.00145040,0.00365937,0.00151033,-0.00182869,0.00000201,0.000041
 06,0.00000036,-0.00479264,-0.00404578,-0.00144734,-0.00390692,-0.00795
 594,-0.00287611,-0.00004265,0.00008969,0.00000404,-0.00000563,-0.00034
 376,0.00003777,-0.00007511,-0.00051903,0.00015927,0.00000049,-0.000021
 09,-0.00000275,-0.00011117,-0.00005007,0.00002778,-0.00006999,-0.00017
 160,0.00034485,-0.00009081,-0.00055467,-0.00002341,0.00024182,-0.00037
 265,-0.00028505,0.00011220,-0.00014125,-0.00004335,-0.00000028,-0.0000
 2187,0.00000095,-0.00011054,-0.00014237,0.00004323,-0.00024256,-0.0003
 7190,0.00028505,0.00009163,-0.00055512,0.00002339,0.00006962,-0.000171
 38,-0.00034555,0.00011125,-0.00004981,-0.00002801,-0.00000071,-0.00002
 076,0.00000276,-0.00000022,0.00000618,0.,-0.00000083,0.02678693,0.0001
 7147,0.00104768,-0.00032976,0.00009667,-0.00008810,-0.00004932,-0.0009
 3276,0.00026233,-0.00018315,-0.00002102,0.00003556,0.00004910,0.000009
 38,-0.00000002,-0.00000025,0.00001435,0.00001461,-0.00004353,-0.000013
 70,-0.00002570,-0.00001635,0.00066166,0.00131417,-0.00043049,0.0008001
 4,0.00079369,-0.00036019,-0.00125792,0.00471748,-0.00121107,0.00506752
 ,0.00127223,-0.00179027,-0.00014590,0.00000010,0.00002955,-0.00842859,
 0.01303043,-0.01661670,0.01814393,-0.00001630,-0.02133429,0.00079920,-
 0.00079469,-0.00035997,-0.00172052,0.00000004,-0.00029221,-0.00840278,
 -0.01297379,-0.01655717,0.00065920,-0.00131522,-0.00043055,-0.00002103
 ,-0.00003550,0.00004912,-0.00093260,-0.00026121,-0.00018422,0.00017024
 ,-0.00104732,-0.00033048,-0.00346139,0.00331136,-0.00112780,0.00506639
 ,-0.00127632,-0.00178965,0.00000869,-0.00000002,0.00001305,-0.00346369
 ,-0.00330453,-0.00112699,-0.00125997,-0.00471290,-0.00120958,-0.000013
 69,0.00002574,-0.00001636,0.00001454,-0.00001451,-0.00004344,0.0000968
 1,0.00008776,-0.00004934,-0.00002514,-0.00003786,0.00001262,-0.0000712
 3,-0.00010016,0.00002518,-0.00006842,-0.00014269,0.00001536,0.00012148
 ,-0.00025452,0.00001364,0.00023783,-0.00040177,-0.00002275,0.00019751,
 -0.00026700,-0.00002898,0.00019122,-0.00000009,-0.00002750,0.00019771,
 0.00026687,-0.00002908,0.00023826,0.00040170,-0.00002284,0.00012175,0.
 00025455,0.00001348,-0.00006831,0.00014282,0.00001515,-0.00007116,0.00
 010024,0.00002513,-0.00002510,0.00003789,0.00001261,-0.00003729,0.0000
 0002,0.00000673,-0.00263960,-0.00004702,0.06573703||-0.00000494,0.0000
 0379,0.00000128,0.00000140,0.00000337,0.00000128,0.00000002,-0.0000152
 7,0.00000142,-0.00000051,-0.00000703,0.00000026,0.00000554,-0.00000035
 ,-0.00000010,-0.00000319,0.00000237,-0.00000023,0.00000109,-0.00000240
 ,-0.00000040,0.00000466,-0.00000361,-0.00000050,0.00001836,-0.00000038
 ,-0.00000179,0.00000927,0.00001635,-0.00000727,-0.00003413,0.00002605,
 0.00001916,-0.00000350,-0.00000223,0.00000231,0.00000172,-0.00000657,0
 .00000158,-0.00000016,0.00000216,-0.00002138,0.00002732,0.00000459,-0.
 00000359,0.00001816,0.00000588,0.00000260,0.00001710,0.00002491,0.0000
 1765,0.00000291,0.00000861,0.00000056,-0.00000022,0.00000608,-0.000000
 02,0.00000799,0.00001646,0.00000290,0.00000053,-0.00000577,0.00000114,
 -0.00001679,-0.00000687,-0.00000651,-0.00004405,-0.00003090,0.00001984
 ,-0.00000831,0.00000313,-0.00000035,-0.00002245,-0.00000062,-0.0000109
 5,0.00000651,-0.00002378,-0.00001085,-0.00000195,0.00000377,-0.0000006
 9,-0.00001624,-0.00000059,-0.00000047,0.00000258,-0.00000962,-0.000000
 80,0.00000125,0.00000113,0.00000064,-0.00000114,-0.00000015,0.00000007
 ,-0.00000261,-0.00000193,-0.00000224,0.00000496,-0.00000006,0.00000143
 ,0.00000219,-0.00000671,-0.00000239,-0.00000621,-0.00000264,0.00000063
 ,0.00000540,0.00000140,-0.00000212,-0.00000524,-0.00000009,0.00000244,
 0.00000039,0.00000603,-0.00000283,0.00000660,0.,0.00000076,-0.00000442
 ,-0.00000012,-0.00000247,0.00000005,-0.00000177,0.00000073,0.00000156,
 -0.00000127,0.00000064,0.00000337,0.00000004,0.00000039,0.00002511,-0.
 00000538,-0.00000174|||@


 IF AT FIRST YOU DON'T SUCCEED, TRY LOOKING IN 
 THE WASTEBASKET FOR THE DIRECTIONS.
 Job cpu time:       0 days  0 hours  0 minutes 26.0 seconds.
 File lengths (MBytes):  RWF=    715 Int=      0 D2E=      0 Chk=      5 Scr=      1
 Normal termination of Gaussian 09 at Wed Mar 11 11:35:03 2026.
