 Entering Link 1 = C:\Gaussian\G09W\l1.exe PID=     39020.
  
 Copyright (c) 1988,1990,1992,1993,1995,1998,2003,2009,2013,
            Gaussian, Inc.  All Rights Reserved.
  
 This is part of the Gaussian(R) 09 program.  It is based on
 the Gaussian(R) 03 system (copyright 2003, Gaussian, Inc.),
 the Gaussian(R) 98 system (copyright 1998, Gaussian, Inc.),
 the Gaussian(R) 94 system (copyright 1995, Gaussian, Inc.),
 the Gaussian 92(TM) system (copyright 1992, Gaussian, Inc.),
 the Gaussian 90(TM) system (copyright 1990, Gaussian, Inc.),
 the Gaussian 88(TM) system (copyright 1988, Gaussian, Inc.),
 the Gaussian 86(TM) system (copyright 1986, Carnegie Mellon
 University), and the Gaussian 82(TM) system (copyright 1983,
 Carnegie Mellon University). Gaussian is a federally registered
 trademark of Gaussian, Inc.
  
 This software contains proprietary and confidential information,
 including trade secrets, belonging to Gaussian, Inc.
  
 This software is provided under written license and may be
 used, copied, transmitted, or stored only in accord with that
 written license.
  
 The following legend is applicable only to US Government
 contracts under FAR:
  
                    RESTRICTED RIGHTS LEGEND
  
 Use, reproduction and disclosure by the US Government is
 subject to restrictions as set forth in subparagraphs (a)
 and (c) of the Commercial Computer Software - Restricted
 Rights clause in FAR 52.227-19.
  
 Gaussian, Inc.
 340 Quinnipiac St., Bldg. 40, Wallingford CT 06492
  
  
 ---------------------------------------------------------------
 Warning -- This program may not be used in any manner that
 competes with the business of Gaussian, Inc. or will provide
 assistance to any competitor of Gaussian, Inc.  The licensee
 of this program is prohibited from giving any competitor of
 Gaussian, Inc. access to this program.  By using this program,
 the user acknowledges that Gaussian, Inc. is engaged in the
 business of creating and licensing software in the field of
 computational chemistry and represents and warrants to the
 licensee that it is not a competitor of Gaussian, Inc. and that
 it will not use this program in any manner prohibited above.
 ---------------------------------------------------------------
  

 Cite this work as:
 Gaussian 09, Revision D.01,
 M. J. Frisch, G. W. Trucks, H. B. Schlegel, G. E. Scuseria, 
 M. A. Robb, J. R. Cheeseman, G. Scalmani, V. Barone, B. Mennucci, 
 G. A. Petersson, H. Nakatsuji, M. Caricato, X. Li, H. P. Hratchian, 
 A. F. Izmaylov, J. Bloino, G. Zheng, J. L. Sonnenberg, M. Hada, 
 M. Ehara, K. Toyota, R. Fukuda, J. Hasegawa, M. Ishida, T. Nakajima, 
 Y. Honda, O. Kitao, H. Nakai, T. Vreven, J. A. Montgomery, Jr., 
 J. E. Peralta, F. Ogliaro, M. Bearpark, J. J. Heyd, E. Brothers, 
 K. N. Kudin, V. N. Staroverov, T. Keith, R. Kobayashi, J. Normand, 
 K. Raghavachari, A. Rendell, J. C. Burant, S. S. Iyengar, J. Tomasi, 
 M. Cossi, N. Rega, J. M. Millam, M. Klene, J. E. Knox, J. B. Cross, 
 V. Bakken, C. Adamo, J. Jaramillo, R. Gomperts, R. E. Stratmann, 
 O. Yazyev, A. J. Austin, R. Cammi, C. Pomelli, J. W. Ochterski, 
 R. L. Martin, K. Morokuma, V. G. Zakrzewski, G. A. Voth, 
 P. Salvador, J. J. Dannenberg, S. Dapprich, A. D. Daniels, 
 O. Farkas, J. B. Foresman, J. V. Ortiz, J. Cioslowski, 
 and D. J. Fox, Gaussian, Inc., Wallingford CT, 2013.
 
 ******************************************
 Gaussian 09:  IA32W-G09RevD.01 24-Apr-2013
                13-Mar-2026 
 ******************************************
 %chk=C:\Users\User\Desktop\IMRG\ECE+ML\B_Gr_NS_NH3.chk
 ---------------------------------------
 # opt freq pm6 scf=qc geom=connectivity
 ---------------------------------------
 1/14=-1,18=20,19=15,26=1,38=1,57=2/1,3;
 2/9=110,12=2,17=6,18=5,40=1/2;
 3/5=2,16=1,25=1,41=3900000,71=1/1,2,3;
 4/35=1/1;
 5/5=2,8=3,35=1,38=5/8;
 6/7=2,8=2,9=2,10=2,28=1/1;
 7//1,2,3,16;
 1/14=-1,18=20,19=15,26=1/3(2);
 2/9=110/2;
 99//99;
 2/9=110/2;
 3/5=2,16=1,25=1,41=3900000,71=1,135=20/1,2,3;
 4/5=5,16=3,35=1/1;
 5/5=2,8=3,35=1,38=5/8;
 7//1,2,3,16;
 1/14=-1,18=20,19=15,26=1/3(-5);
 2/9=110/2;
 6/7=2,8=2,9=2,10=2,19=2,28=1/1;
 99/9=1/99;
 -----------
 B_Gr_NS_NH3
 -----------
 Symbolic Z-matrix:
 Charge =  0 Multiplicity = 2
 C                     0.17695   1.02371   2.99497 
 C                     1.43495   0.29741   2.57781 
 C                     2.69295   1.02371   2.99497 
 C                     5.20895   1.02371   2.99497 
 C                     7.72495   1.02371   2.99497 
 C                     3.95095   0.29741   2.57781 
 C                     6.46695   0.29741   2.57781 
 C                    -1.08105   3.20263   2.99497 
 C                    -2.33905   5.38155   2.99497 
 C                     0.17695   2.47633   2.57781 
 C                    -1.08105   4.65525   2.57781 
 C                    -2.33905   6.83417   2.57781 
 C                     1.43495   3.20263   2.99497 
 C                     0.17695   5.38155   2.99497 
 C                    -1.08105   7.56047   2.99497 
 C                     3.95095   3.20263   2.99497 
 C                     2.69295   5.38155   2.99497 
 C                     1.43495   7.56047   2.99497 
 C                     6.46695   3.20263   2.99497 
 C                     5.20895   5.38155   2.99497 
 C                     3.95095   7.56047   2.99497 
 C                     2.69295   2.47633   2.57781 
 C                     0.17695   6.83417   2.57781 
 C                     5.20895   2.47633   2.57781 
 C                     3.95095   4.65525   2.57781 
 C                     2.69295   6.83417   2.57781 
 C                     7.72495   2.47633   2.57781 
 C                     6.46695   4.65525   2.57781 
 C                     5.20895   6.83417   2.57781 
 H                     8.6156    2.99054   2.87315 
 H                     7.3576    5.16946   2.87315 
 H                     6.0996    7.34838   2.87315 
 H                     3.95095   8.58891   2.69962 
 H                     1.43495   8.58891   2.69962 
 H                    -1.08105   8.58891   2.69962 
 H                    -3.2297    7.34838   2.87315 
 H                    -3.2297    4.86734   2.69962 
 H                    -1.9717    2.68842   2.69962 
 H                    -0.7137    0.5095    2.69962 
 H                     1.43495  -0.73103   2.87315 
 H                     3.95095  -0.73103   2.87315 
 H                     6.49522  -0.60455   3.15277 
 H                     8.37341   0.35071   3.51599 
 B                     1.43495   4.65525   2.57781 
 N                     2.94539   3.45521   1.2471 
 H                     2.94539   4.39317   0.88455 
 H                     2.1331    2.98624   0.88455 
 H                     3.75768   2.98624   0.88455 
 
 Add virtual bond connecting atoms N45        and C22        Dist= 3.16D+00.

 GradGradGradGradGradGradGradGradGradGradGradGradGradGradGradGradGradGrad
 Berny optimization.
 Initialization pass.
                           ----------------------------
                           !    Initial Parameters    !
                           ! (Angstroms and Degrees)  !
 --------------------------                            --------------------------
 ! Name  Definition              Value          Derivative Info.                !
 --------------------------------------------------------------------------------
 ! R1    R(1,2)                  1.5113         estimate D2E/DX2                !
 ! R2    R(1,10)                 1.5113         estimate D2E/DX2                !
 ! R3    R(1,39)                 1.07           estimate D2E/DX2                !
 ! R4    R(2,3)                  1.5113         estimate D2E/DX2                !
 ! R5    R(2,40)                 1.07           estimate D2E/DX2                !
 ! R6    R(3,6)                  1.5113         estimate D2E/DX2                !
 ! R7    R(3,22)                 1.5113         estimate D2E/DX2                !
 ! R8    R(4,6)                  1.5113         estimate D2E/DX2                !
 ! R9    R(4,7)                  1.5113         estimate D2E/DX2                !
 ! R10   R(4,24)                 1.5113         estimate D2E/DX2                !
 ! R11   R(5,7)                  1.5113         estimate D2E/DX2                !
 ! R12   R(5,27)                 1.5113         estimate D2E/DX2                !
 ! R13   R(5,43)                 1.07           estimate D2E/DX2                !
 ! R14   R(6,41)                 1.07           estimate D2E/DX2                !
 ! R15   R(7,42)                 1.07           estimate D2E/DX2                !
 ! R16   R(8,10)                 1.5113         estimate D2E/DX2                !
 ! R17   R(8,11)                 1.5113         estimate D2E/DX2                !
 ! R18   R(8,38)                 1.07           estimate D2E/DX2                !
 ! R19   R(9,11)                 1.5113         estimate D2E/DX2                !
 ! R20   R(9,12)                 1.5113         estimate D2E/DX2                !
 ! R21   R(9,37)                 1.07           estimate D2E/DX2                !
 ! R22   R(10,13)                1.5113         estimate D2E/DX2                !
 ! R23   R(11,14)                1.5113         estimate D2E/DX2                !
 ! R24   R(12,15)                1.5113         estimate D2E/DX2                !
 ! R25   R(12,36)                1.07           estimate D2E/DX2                !
 ! R26   R(13,22)                1.5113         estimate D2E/DX2                !
 ! R27   R(13,44)                1.5113         estimate D2E/DX2                !
 ! R28   R(14,23)                1.5113         estimate D2E/DX2                !
 ! R29   R(14,44)                1.5113         estimate D2E/DX2                !
 ! R30   R(15,23)                1.5113         estimate D2E/DX2                !
 ! R31   R(15,35)                1.07           estimate D2E/DX2                !
 ! R32   R(16,22)                1.5113         estimate D2E/DX2                !
 ! R33   R(16,24)                1.5113         estimate D2E/DX2                !
 ! R34   R(16,25)                1.5113         estimate D2E/DX2                !
 ! R35   R(17,25)                1.5113         estimate D2E/DX2                !
 ! R36   R(17,26)                1.5113         estimate D2E/DX2                !
 ! R37   R(17,44)                1.5113         estimate D2E/DX2                !
 ! R38   R(18,23)                1.5113         estimate D2E/DX2                !
 ! R39   R(18,26)                1.5113         estimate D2E/DX2                !
 ! R40   R(18,34)                1.07           estimate D2E/DX2                !
 ! R41   R(19,24)                1.5113         estimate D2E/DX2                !
 ! R42   R(19,27)                1.5113         estimate D2E/DX2                !
 ! R43   R(19,28)                1.5113         estimate D2E/DX2                !
 ! R44   R(20,25)                1.5113         estimate D2E/DX2                !
 ! R45   R(20,28)                1.5113         estimate D2E/DX2                !
 ! R46   R(20,29)                1.5113         estimate D2E/DX2                !
 ! R47   R(21,26)                1.5113         estimate D2E/DX2                !
 ! R48   R(21,29)                1.5113         estimate D2E/DX2                !
 ! R49   R(21,33)                1.07           estimate D2E/DX2                !
 ! R50   R(22,45)                1.6711         estimate D2E/DX2                !
 ! R51   R(27,30)                1.07           estimate D2E/DX2                !
 ! R52   R(28,31)                1.07           estimate D2E/DX2                !
 ! R53   R(29,32)                1.07           estimate D2E/DX2                !
 ! R54   R(45,46)                1.0056         estimate D2E/DX2                !
 ! R55   R(45,47)                1.0056         estimate D2E/DX2                !
 ! R56   R(45,48)                1.0056         estimate D2E/DX2                !
 ! A1    A(2,1,10)             112.6884         estimate D2E/DX2                !
 ! A2    A(2,1,39)             112.6884         estimate D2E/DX2                !
 ! A3    A(10,1,39)            112.6884         estimate D2E/DX2                !
 ! A4    A(1,2,3)              112.6884         estimate D2E/DX2                !
 ! A5    A(1,2,40)             112.6884         estimate D2E/DX2                !
 ! A6    A(3,2,40)             112.6884         estimate D2E/DX2                !
 ! A7    A(2,3,6)              112.6884         estimate D2E/DX2                !
 ! A8    A(2,3,22)             112.6884         estimate D2E/DX2                !
 ! A9    A(6,3,22)             112.6884         estimate D2E/DX2                !
 ! A10   A(6,4,7)              112.6884         estimate D2E/DX2                !
 ! A11   A(6,4,24)             112.6884         estimate D2E/DX2                !
 ! A12   A(7,4,24)             112.6884         estimate D2E/DX2                !
 ! A13   A(7,5,27)             112.6884         estimate D2E/DX2                !
 ! A14   A(7,5,43)             109.6693         estimate D2E/DX2                !
 ! A15   A(27,5,43)            137.6415         estimate D2E/DX2                !
 ! A16   A(3,6,4)              112.6884         estimate D2E/DX2                !
 ! A17   A(3,6,41)             112.6884         estimate D2E/DX2                !
 ! A18   A(4,6,41)             112.6884         estimate D2E/DX2                !
 ! A19   A(4,7,5)              112.6884         estimate D2E/DX2                !
 ! A20   A(4,7,42)             106.187          estimate D2E/DX2                !
 ! A21   A(5,7,42)             103.5792         estimate D2E/DX2                !
 ! A22   A(10,8,11)            112.6884         estimate D2E/DX2                !
 ! A23   A(10,8,38)            112.6884         estimate D2E/DX2                !
 ! A24   A(11,8,38)            112.6884         estimate D2E/DX2                !
 ! A25   A(11,9,12)            112.6884         estimate D2E/DX2                !
 ! A26   A(11,9,37)            112.6884         estimate D2E/DX2                !
 ! A27   A(12,9,37)            112.6884         estimate D2E/DX2                !
 ! A28   A(1,10,8)             112.6884         estimate D2E/DX2                !
 ! A29   A(1,10,13)            112.6884         estimate D2E/DX2                !
 ! A30   A(8,10,13)            112.6884         estimate D2E/DX2                !
 ! A31   A(8,11,9)             112.6884         estimate D2E/DX2                !
 ! A32   A(8,11,14)            112.6884         estimate D2E/DX2                !
 ! A33   A(9,11,14)            112.6884         estimate D2E/DX2                !
 ! A34   A(9,12,15)            112.6884         estimate D2E/DX2                !
 ! A35   A(9,12,36)            112.6884         estimate D2E/DX2                !
 ! A36   A(15,12,36)           112.6884         estimate D2E/DX2                !
 ! A37   A(10,13,22)           112.6884         estimate D2E/DX2                !
 ! A38   A(10,13,44)           112.6884         estimate D2E/DX2                !
 ! A39   A(22,13,44)           112.6884         estimate D2E/DX2                !
 ! A40   A(11,14,23)           112.6884         estimate D2E/DX2                !
 ! A41   A(11,14,44)           112.6884         estimate D2E/DX2                !
 ! A42   A(23,14,44)           112.6884         estimate D2E/DX2                !
 ! A43   A(12,15,23)           112.6884         estimate D2E/DX2                !
 ! A44   A(12,15,35)           112.6884         estimate D2E/DX2                !
 ! A45   A(23,15,35)           112.6884         estimate D2E/DX2                !
 ! A46   A(22,16,24)           112.6884         estimate D2E/DX2                !
 ! A47   A(22,16,25)           112.6884         estimate D2E/DX2                !
 ! A48   A(24,16,25)           112.6884         estimate D2E/DX2                !
 ! A49   A(25,17,26)           112.6884         estimate D2E/DX2                !
 ! A50   A(25,17,44)           112.6884         estimate D2E/DX2                !
 ! A51   A(26,17,44)           112.6884         estimate D2E/DX2                !
 ! A52   A(23,18,26)           112.6884         estimate D2E/DX2                !
 ! A53   A(23,18,34)           112.6884         estimate D2E/DX2                !
 ! A54   A(26,18,34)           112.6884         estimate D2E/DX2                !
 ! A55   A(24,19,27)           112.6884         estimate D2E/DX2                !
 ! A56   A(24,19,28)           112.6884         estimate D2E/DX2                !
 ! A57   A(27,19,28)           112.6884         estimate D2E/DX2                !
 ! A58   A(25,20,28)           112.6884         estimate D2E/DX2                !
 ! A59   A(25,20,29)           112.6884         estimate D2E/DX2                !
 ! A60   A(28,20,29)           112.6884         estimate D2E/DX2                !
 ! A61   A(26,21,29)           112.6884         estimate D2E/DX2                !
 ! A62   A(26,21,33)           112.6884         estimate D2E/DX2                !
 ! A63   A(29,21,33)           112.6884         estimate D2E/DX2                !
 ! A64   A(3,22,13)            112.6884         estimate D2E/DX2                !
 ! A65   A(3,22,16)            112.6884         estimate D2E/DX2                !
 ! A66   A(3,22,45)            141.517          estimate D2E/DX2                !
 ! A67   A(13,22,16)           112.6884         estimate D2E/DX2                !
 ! A68   A(13,22,45)            93.6712         estimate D2E/DX2                !
 ! A69   A(16,22,45)            79.1959         estimate D2E/DX2                !
 ! A70   A(14,23,15)           112.6884         estimate D2E/DX2                !
 ! A71   A(14,23,18)           112.6884         estimate D2E/DX2                !
 ! A72   A(15,23,18)           112.6884         estimate D2E/DX2                !
 ! A73   A(4,24,16)            112.6884         estimate D2E/DX2                !
 ! A74   A(4,24,19)            112.6884         estimate D2E/DX2                !
 ! A75   A(16,24,19)           112.6884         estimate D2E/DX2                !
 ! A76   A(16,25,17)           112.6884         estimate D2E/DX2                !
 ! A77   A(16,25,20)           112.6884         estimate D2E/DX2                !
 ! A78   A(17,25,20)           112.6884         estimate D2E/DX2                !
 ! A79   A(17,26,18)           112.6884         estimate D2E/DX2                !
 ! A80   A(17,26,21)           112.6884         estimate D2E/DX2                !
 ! A81   A(18,26,21)           112.6884         estimate D2E/DX2                !
 ! A82   A(5,27,19)            112.6884         estimate D2E/DX2                !
 ! A83   A(5,27,30)            112.6884         estimate D2E/DX2                !
 ! A84   A(19,27,30)           112.6884         estimate D2E/DX2                !
 ! A85   A(19,28,20)           112.6884         estimate D2E/DX2                !
 ! A86   A(19,28,31)           112.6884         estimate D2E/DX2                !
 ! A87   A(20,28,31)           112.6884         estimate D2E/DX2                !
 ! A88   A(20,29,21)           112.6884         estimate D2E/DX2                !
 ! A89   A(20,29,32)           112.6884         estimate D2E/DX2                !
 ! A90   A(21,29,32)           112.6884         estimate D2E/DX2                !
 ! A91   A(13,44,14)           112.6884         estimate D2E/DX2                !
 ! A92   A(13,44,17)           112.6884         estimate D2E/DX2                !
 ! A93   A(14,44,17)           112.6884         estimate D2E/DX2                !
 ! A94   A(22,45,46)           146.4556         estimate D2E/DX2                !
 ! A95   A(22,45,47)            83.7937         estimate D2E/DX2                !
 ! A96   A(22,45,48)            97.813          estimate D2E/DX2                !
 ! A97   A(46,45,47)           107.7588         estimate D2E/DX2                !
 ! A98   A(46,45,48)           107.7588         estimate D2E/DX2                !
 ! A99   A(47,45,48)           107.7588         estimate D2E/DX2                !
 ! D1    D(10,1,2,3)            51.1032         estimate D2E/DX2                !
 ! D2    D(10,1,2,40)          180.0            estimate D2E/DX2                !
 ! D3    D(39,1,2,3)           180.0            estimate D2E/DX2                !
 ! D4    D(39,1,2,40)          -51.1032         estimate D2E/DX2                !
 ! D5    D(2,1,10,8)           180.0            estimate D2E/DX2                !
 ! D6    D(2,1,10,13)          -51.1032         estimate D2E/DX2                !
 ! D7    D(39,1,10,8)           51.1032         estimate D2E/DX2                !
 ! D8    D(39,1,10,13)         180.0            estimate D2E/DX2                !
 ! D9    D(1,2,3,6)            180.0            estimate D2E/DX2                !
 ! D10   D(1,2,3,22)           -51.1032         estimate D2E/DX2                !
 ! D11   D(40,2,3,6)            51.1032         estimate D2E/DX2                !
 ! D12   D(40,2,3,22)         -180.0            estimate D2E/DX2                !
 ! D13   D(2,3,6,4)            180.0            estimate D2E/DX2                !
 ! D14   D(2,3,6,41)           -51.1032         estimate D2E/DX2                !
 ! D15   D(22,3,6,4)            51.1032         estimate D2E/DX2                !
 ! D16   D(22,3,6,41)          180.0            estimate D2E/DX2                !
 ! D17   D(2,3,22,13)           51.1032         estimate D2E/DX2                !
 ! D18   D(2,3,22,16)          180.0            estimate D2E/DX2                !
 ! D19   D(2,3,22,45)          -78.4976         estimate D2E/DX2                !
 ! D20   D(6,3,22,13)          180.0            estimate D2E/DX2                !
 ! D21   D(6,3,22,16)          -51.1032         estimate D2E/DX2                !
 ! D22   D(6,3,22,45)           50.3993         estimate D2E/DX2                !
 ! D23   D(7,4,6,3)            180.0            estimate D2E/DX2                !
 ! D24   D(7,4,6,41)            51.1032         estimate D2E/DX2                !
 ! D25   D(24,4,6,3)           -51.1032         estimate D2E/DX2                !
 ! D26   D(24,4,6,41)          180.0            estimate D2E/DX2                !
 ! D27   D(6,4,7,5)            180.0            estimate D2E/DX2                !
 ! D28   D(6,4,7,42)           -67.2727         estimate D2E/DX2                !
 ! D29   D(24,4,7,5)            51.1032         estimate D2E/DX2                !
 ! D30   D(24,4,7,42)          163.8304         estimate D2E/DX2                !
 ! D31   D(6,4,24,16)           51.1032         estimate D2E/DX2                !
 ! D32   D(6,4,24,19)          180.0            estimate D2E/DX2                !
 ! D33   D(7,4,24,16)          180.0            estimate D2E/DX2                !
 ! D34   D(7,4,24,19)          -51.1032         estimate D2E/DX2                !
 ! D35   D(27,5,7,4)           -51.1032         estimate D2E/DX2                !
 ! D36   D(27,5,7,42)         -165.4227         estimate D2E/DX2                !
 ! D37   D(43,5,7,4)           128.6399         estimate D2E/DX2                !
 ! D38   D(43,5,7,42)           14.3203         estimate D2E/DX2                !
 ! D39   D(7,5,27,19)           51.1032         estimate D2E/DX2                !
 ! D40   D(7,5,27,30)          180.0            estimate D2E/DX2                !
 ! D41   D(43,5,27,19)        -128.5377         estimate D2E/DX2                !
 ! D42   D(43,5,27,30)           0.3591         estimate D2E/DX2                !
 ! D43   D(11,8,10,1)          180.0            estimate D2E/DX2                !
 ! D44   D(11,8,10,13)          51.1032         estimate D2E/DX2                !
 ! D45   D(38,8,10,1)          -51.1032         estimate D2E/DX2                !
 ! D46   D(38,8,10,13)        -180.0            estimate D2E/DX2                !
 ! D47   D(10,8,11,9)          180.0            estimate D2E/DX2                !
 ! D48   D(10,8,11,14)         -51.1032         estimate D2E/DX2                !
 ! D49   D(38,8,11,9)           51.1032         estimate D2E/DX2                !
 ! D50   D(38,8,11,14)         180.0            estimate D2E/DX2                !
 ! D51   D(12,9,11,8)         -180.0            estimate D2E/DX2                !
 ! D52   D(12,9,11,14)          51.1032         estimate D2E/DX2                !
 ! D53   D(37,9,11,8)          -51.1032         estimate D2E/DX2                !
 ! D54   D(37,9,11,14)         180.0            estimate D2E/DX2                !
 ! D55   D(11,9,12,15)         -51.1032         estimate D2E/DX2                !
 ! D56   D(11,9,12,36)        -180.0            estimate D2E/DX2                !
 ! D57   D(37,9,12,15)         180.0            estimate D2E/DX2                !
 ! D58   D(37,9,12,36)          51.1032         estimate D2E/DX2                !
 ! D59   D(1,10,13,22)          51.1032         estimate D2E/DX2                !
 ! D60   D(1,10,13,44)         180.0            estimate D2E/DX2                !
 ! D61   D(8,10,13,22)         180.0            estimate D2E/DX2                !
 ! D62   D(8,10,13,44)         -51.1032         estimate D2E/DX2                !
 ! D63   D(8,11,14,23)         180.0            estimate D2E/DX2                !
 ! D64   D(8,11,14,44)          51.1032         estimate D2E/DX2                !
 ! D65   D(9,11,14,23)         -51.1032         estimate D2E/DX2                !
 ! D66   D(9,11,14,44)         180.0            estimate D2E/DX2                !
 ! D67   D(9,12,15,23)          51.1032         estimate D2E/DX2                !
 ! D68   D(9,12,15,35)         180.0            estimate D2E/DX2                !
 ! D69   D(36,12,15,23)        180.0            estimate D2E/DX2                !
 ! D70   D(36,12,15,35)        -51.1032         estimate D2E/DX2                !
 ! D71   D(10,13,22,3)         -51.1032         estimate D2E/DX2                !
 ! D72   D(10,13,22,16)        180.0            estimate D2E/DX2                !
 ! D73   D(10,13,22,45)        100.1816         estimate D2E/DX2                !
 ! D74   D(44,13,22,3)         180.0            estimate D2E/DX2                !
 ! D75   D(44,13,22,16)         51.1032         estimate D2E/DX2                !
 ! D76   D(44,13,22,45)        -28.7153         estimate D2E/DX2                !
 ! D77   D(10,13,44,14)         51.1032         estimate D2E/DX2                !
 ! D78   D(10,13,44,17)        180.0            estimate D2E/DX2                !
 ! D79   D(22,13,44,14)       -180.0            estimate D2E/DX2                !
 ! D80   D(22,13,44,17)        -51.1032         estimate D2E/DX2                !
 ! D81   D(11,14,23,15)         51.1032         estimate D2E/DX2                !
 ! D82   D(11,14,23,18)        180.0            estimate D2E/DX2                !
 ! D83   D(44,14,23,15)        180.0            estimate D2E/DX2                !
 ! D84   D(44,14,23,18)        -51.1032         estimate D2E/DX2                !
 ! D85   D(11,14,44,13)        -51.1032         estimate D2E/DX2                !
 ! D86   D(11,14,44,17)        180.0            estimate D2E/DX2                !
 ! D87   D(23,14,44,13)       -180.0            estimate D2E/DX2                !
 ! D88   D(23,14,44,17)         51.1032         estimate D2E/DX2                !
 ! D89   D(12,15,23,14)        -51.1032         estimate D2E/DX2                !
 ! D90   D(12,15,23,18)        180.0            estimate D2E/DX2                !
 ! D91   D(35,15,23,14)        180.0            estimate D2E/DX2                !
 ! D92   D(35,15,23,18)         51.1032         estimate D2E/DX2                !
 ! D93   D(24,16,22,3)          51.1032         estimate D2E/DX2                !
 ! D94   D(24,16,22,13)        180.0            estimate D2E/DX2                !
 ! D95   D(24,16,22,45)        -90.5231         estimate D2E/DX2                !
 ! D96   D(25,16,22,3)         180.0            estimate D2E/DX2                !
 ! D97   D(25,16,22,13)        -51.1032         estimate D2E/DX2                !
 ! D98   D(25,16,22,45)         38.3738         estimate D2E/DX2                !
 ! D99   D(22,16,24,4)         -51.1032         estimate D2E/DX2                !
 ! D100  D(22,16,24,19)        180.0            estimate D2E/DX2                !
 ! D101  D(25,16,24,4)         180.0            estimate D2E/DX2                !
 ! D102  D(25,16,24,19)         51.1032         estimate D2E/DX2                !
 ! D103  D(22,16,25,17)         51.1032         estimate D2E/DX2                !
 ! D104  D(22,16,25,20)        180.0            estimate D2E/DX2                !
 ! D105  D(24,16,25,17)        180.0            estimate D2E/DX2                !
 ! D106  D(24,16,25,20)        -51.1032         estimate D2E/DX2                !
 ! D107  D(26,17,25,16)       -180.0            estimate D2E/DX2                !
 ! D108  D(26,17,25,20)         51.1032         estimate D2E/DX2                !
 ! D109  D(44,17,25,16)        -51.1032         estimate D2E/DX2                !
 ! D110  D(44,17,25,20)        180.0            estimate D2E/DX2                !
 ! D111  D(25,17,26,18)        180.0            estimate D2E/DX2                !
 ! D112  D(25,17,26,21)        -51.1032         estimate D2E/DX2                !
 ! D113  D(44,17,26,18)         51.1032         estimate D2E/DX2                !
 ! D114  D(44,17,26,21)        180.0            estimate D2E/DX2                !
 ! D115  D(25,17,44,13)         51.1032         estimate D2E/DX2                !
 ! D116  D(25,17,44,14)        180.0            estimate D2E/DX2                !
 ! D117  D(26,17,44,13)        180.0            estimate D2E/DX2                !
 ! D118  D(26,17,44,14)        -51.1032         estimate D2E/DX2                !
 ! D119  D(26,18,23,14)         51.1032         estimate D2E/DX2                !
 ! D120  D(26,18,23,15)        180.0            estimate D2E/DX2                !
 ! D121  D(34,18,23,14)        180.0            estimate D2E/DX2                !
 ! D122  D(34,18,23,15)        -51.1032         estimate D2E/DX2                !
 ! D123  D(23,18,26,17)        -51.1032         estimate D2E/DX2                !
 ! D124  D(23,18,26,21)        180.0            estimate D2E/DX2                !
 ! D125  D(34,18,26,17)        180.0            estimate D2E/DX2                !
 ! D126  D(34,18,26,21)         51.1032         estimate D2E/DX2                !
 ! D127  D(27,19,24,4)          51.1032         estimate D2E/DX2                !
 ! D128  D(27,19,24,16)        180.0            estimate D2E/DX2                !
 ! D129  D(28,19,24,4)         180.0            estimate D2E/DX2                !
 ! D130  D(28,19,24,16)        -51.1032         estimate D2E/DX2                !
 ! D131  D(24,19,27,5)         -51.1032         estimate D2E/DX2                !
 ! D132  D(24,19,27,30)        180.0            estimate D2E/DX2                !
 ! D133  D(28,19,27,5)         180.0            estimate D2E/DX2                !
 ! D134  D(28,19,27,30)         51.1032         estimate D2E/DX2                !
 ! D135  D(24,19,28,20)         51.1032         estimate D2E/DX2                !
 ! D136  D(24,19,28,31)        180.0            estimate D2E/DX2                !
 ! D137  D(27,19,28,20)        180.0            estimate D2E/DX2                !
 ! D138  D(27,19,28,31)        -51.1032         estimate D2E/DX2                !
 ! D139  D(28,20,25,16)         51.1032         estimate D2E/DX2                !
 ! D140  D(28,20,25,17)        180.0            estimate D2E/DX2                !
 ! D141  D(29,20,25,16)        180.0            estimate D2E/DX2                !
 ! D142  D(29,20,25,17)        -51.1032         estimate D2E/DX2                !
 ! D143  D(25,20,28,19)        -51.1032         estimate D2E/DX2                !
 ! D144  D(25,20,28,31)        180.0            estimate D2E/DX2                !
 ! D145  D(29,20,28,19)       -180.0            estimate D2E/DX2                !
 ! D146  D(29,20,28,31)         51.1032         estimate D2E/DX2                !
 ! D147  D(25,20,29,21)         51.1032         estimate D2E/DX2                !
 ! D148  D(25,20,29,32)        180.0            estimate D2E/DX2                !
 ! D149  D(28,20,29,21)        180.0            estimate D2E/DX2                !
 ! D150  D(28,20,29,32)        -51.1032         estimate D2E/DX2                !
 ! D151  D(29,21,26,17)         51.1032         estimate D2E/DX2                !
 ! D152  D(29,21,26,18)       -180.0            estimate D2E/DX2                !
 ! D153  D(33,21,26,17)        180.0            estimate D2E/DX2                !
 ! D154  D(33,21,26,18)        -51.1032         estimate D2E/DX2                !
 ! D155  D(26,21,29,20)        -51.1032         estimate D2E/DX2                !
 ! D156  D(26,21,29,32)        180.0            estimate D2E/DX2                !
 ! D157  D(33,21,29,20)        180.0            estimate D2E/DX2                !
 ! D158  D(33,21,29,32)         51.1032         estimate D2E/DX2                !
 ! D159  D(3,22,45,46)         177.7572         estimate D2E/DX2                !
 ! D160  D(3,22,45,47)          64.7276         estimate D2E/DX2                !
 ! D161  D(3,22,45,48)         -42.4156         estimate D2E/DX2                !
 ! D162  D(13,22,45,46)         43.183          estimate D2E/DX2                !
 ! D163  D(13,22,45,47)        -69.8466         estimate D2E/DX2                !
 ! D164  D(13,22,45,48)       -176.9898         estimate D2E/DX2                !
 ! D165  D(16,22,45,46)        -69.2277         estimate D2E/DX2                !
 ! D166  D(16,22,45,47)        177.7427         estimate D2E/DX2                !
 ! D167  D(16,22,45,48)         70.5995         estimate D2E/DX2                !
 --------------------------------------------------------------------------------
 Trust Radius=3.00D-01 FncErr=1.00D-07 GrdErr=1.00D-07
 Number of steps in this run=    288 maximum allowed number of steps=    288.
 GradGradGradGradGradGradGradGradGradGradGradGradGradGradGradGradGradGrad

                          Input orientation:                          
 ---------------------------------------------------------------------
 Center     Atomic      Atomic             Coordinates (Angstroms)
 Number     Number       Type             X           Y           Z
 ---------------------------------------------------------------------
      1          6           0        0.176948    1.023714    2.994967
      2          6           0        1.434948    0.297407    2.577810
      3          6           0        2.692948    1.023714    2.994967
      4          6           0        5.208948    1.023714    2.994967
      5          6           0        7.724948    1.023714    2.994967
      6          6           0        3.950948    0.297407    2.577810
      7          6           0        6.466948    0.297407    2.577810
      8          6           0       -1.081052    3.202634    2.994967
      9          6           0       -2.339052    5.381554    2.994967
     10          6           0        0.176948    2.476327    2.577810
     11          6           0       -1.081052    4.655247    2.577810
     12          6           0       -2.339052    6.834167    2.577810
     13          6           0        1.434948    3.202634    2.994967
     14          6           0        0.176948    5.381554    2.994967
     15          6           0       -1.081052    7.560474    2.994967
     16          6           0        3.950948    3.202634    2.994967
     17          6           0        2.692948    5.381554    2.994967
     18          6           0        1.434948    7.560474    2.994967
     19          6           0        6.466948    3.202634    2.994967
     20          6           0        5.208948    5.381554    2.994967
     21          6           0        3.950948    7.560474    2.994967
     22          6           0        2.692948    2.476327    2.577810
     23          6           0        0.176948    6.834167    2.577810
     24          6           0        5.208948    2.476327    2.577810
     25          6           0        3.950948    4.655247    2.577810
     26          6           0        2.692948    6.834167    2.577810
     27          6           0        7.724948    2.476327    2.577810
     28          6           0        6.466948    4.655247    2.577810
     29          6           0        5.208948    6.834167    2.577810
     30          1           0        8.615597    2.990544    2.873152
     31          1           0        7.357597    5.169464    2.873152
     32          1           0        6.099597    7.348383    2.873152
     33          1           0        3.950948    8.588906    2.699625
     34          1           0        1.434948    8.588906    2.699625
     35          1           0       -1.081052    8.588906    2.699625
     36          1           0       -3.229701    7.348383    2.873152
     37          1           0       -3.229701    4.867338    2.699625
     38          1           0       -1.971701    2.688418    2.699625
     39          1           0       -0.713701    0.509498    2.699625
     40          1           0        1.434948   -0.731025    2.873152
     41          1           0        3.950948   -0.731025    2.873152
     42          1           0        6.495217   -0.604546    3.152772
     43          1           0        8.373408    0.350713    3.515994
     44          5           0        1.434948    4.655247    2.577810
     45          7           0        2.945394    3.455214    1.247105
     46          1           0        2.945394    4.393166    0.884545
     47          1           0        2.133103    2.986238    0.884545
     48          1           0        3.757684    2.986238    0.884545
 ---------------------------------------------------------------------
                    Distance matrix (angstroms):
                    1          2          3          4          5
     1  C    0.000000
     2  C    1.511326   0.000000
     3  C    2.516000   1.511326   0.000000
     4  C    5.032000   3.865827   2.516000   0.000000
     5  C    7.548000   6.345521   5.032000   2.516000   0.000000
     6  C    3.865827   2.516000   1.511326   1.511326   3.865827
     7  C    6.345521   5.032000   3.865827   1.511326   1.511326
     8  C    2.516000   3.865827   4.357840   6.656710   9.071567
     9  C    5.032000   6.345521   6.656710   8.715680  10.966990
    10  C    1.511326   2.516000   2.935023   5.254058   7.697818
    11  C    3.865827   5.032000   5.254058   7.275036   9.534552
    12  C    6.345521   7.548000   7.697818   9.534552  11.628391
    13  C    2.516000   2.935023   2.516000   4.357840   6.656710
    14  C    4.357840   5.254058   5.032000   6.656710   8.715680
    15  C    6.656710   7.697818   7.548000   9.071567  10.966990
    16  C    4.357840   3.865827   2.516000   2.516000   4.357840
    17  C    5.032000   5.254058   4.357840   5.032000   6.656710
    18  C    6.656710   7.275036   6.656710   7.548000   9.071567
    19  C    6.656710   5.825409   4.357840   2.516000   2.516000
    20  C    6.656710   6.345521   5.032000   4.357840   5.032000
    21  C    7.548000   7.697818   6.656710   6.656710   7.548000
    22  C    2.935023   2.516000   1.511326   2.935023   5.254058
    23  C    5.825409   6.656710   6.345521   7.697818   9.534552
    24  C    5.254058   4.357840   2.935023   1.511326   2.935023
    25  C    5.254058   5.032000   3.865827   3.865827   5.254058
    26  C    6.345521   6.656710   5.825409   6.345521   7.697818
    27  C    7.697818   6.656710   5.254058   2.935023   1.511326
    28  C    7.275036   6.656710   5.254058   3.865827   3.865827
    29  C    7.697818   7.548000   6.345521   5.825409   6.345521
    30  H    8.665682   7.674759   6.241877   3.935545   2.162524
    31  H    8.292394   7.674759   6.241877   4.671056   4.163775
    32  H    8.665682   8.459458   7.184813   6.388234   6.531313
    33  H    8.459458   8.665682   7.674759   7.674759   8.459458
    34  H    7.674759   8.292394   7.674759   8.459458   9.842940
    35  H    7.674759   8.665682   8.459458   9.842940  11.613139
    36  H    7.184813   8.459458   8.665682  10.546425  12.649925
    37  H    5.144504   6.531313   7.066713   9.277471  11.613139
    38  H    2.734073   4.163775   4.961594   7.377003   9.842940
    39  H    1.070000   2.162524   3.457875   5.952261   8.459458
    40  H    2.162524   1.070000   2.162524   4.163775   6.531313
    41  H    4.163775   2.734073   2.162524   2.162524   4.163775
    42  H    6.526612   5.172082   4.139249   2.081015   2.046551
    43  H    8.240531   7.001804   5.743868   3.276920   1.070000
    44  B    3.865827   4.357840   3.865827   5.254058   7.275036
    45  N    4.078174   3.744859   3.005153   3.753783   5.640155
    46  H    4.844727   4.682289   3.983819   4.575015   6.217011
    47  H    3.483091   3.253364   2.935780   4.214997   6.290795
    48  H    4.596417   3.935995   3.072302   3.226692   4.903525
                    6          7          8          9         10
     6  C    0.000000
     7  C    2.516000   0.000000
     8  C    5.825409   8.098559   0.000000
     9  C    8.098559  10.176846   2.516000   0.000000
    10  C    4.357840   6.656710   1.511326   3.865827   0.000000
    11  C    6.656710   8.715680   1.511326   1.511326   2.516000
    12  C    9.071567  10.966990   3.865827   1.511326   5.032000
    13  C    3.865827   5.825409   2.516000   4.357840   1.511326
    14  C    6.345521   8.098559   2.516000   2.516000   2.935023
    15  C    8.845743  10.483246   4.357840   2.516000   5.254058
    16  C    2.935023   3.865827   5.032000   6.656710   3.865827
    17  C    5.254058   6.345521   4.357840   5.032000   3.865827
    18  C    7.697818   8.845743   5.032000   4.357840   5.254058
    19  C    3.865827   2.935023   7.548000   9.071567   6.345521
    20  C    5.254058   5.254058   6.656710   7.548000   5.825409
    21  C    7.275036   7.697818   6.656710   6.656710   6.345521
    22  C    2.516000   4.357840   3.865827   5.825409   2.516000
    23  C    7.548000   9.071567   3.865827   2.935023   4.357840
    24  C    2.516000   2.516000   6.345521   8.098559   5.032000
    25  C    4.357840   5.032000   5.254058   6.345521   4.357840
    26  C    6.656710   7.548000   5.254058   5.254058   5.032000
    27  C    4.357840   2.516000   8.845743  10.483246   7.548000
    28  C    5.032000   4.357840   7.697818   8.845743   6.656710
    29  C    6.656710   6.656710   7.275036   7.697818   6.656710
    30  H    5.394363   3.457875   9.699733  11.213211   8.459458
    31  H    5.952261   4.961594   8.665682   9.699733   7.674759
    32  H    7.377003   7.066713   8.292394   8.665682   7.674759
    33  H    8.292394   8.665682   7.377003   7.066713   7.184813
    34  H    8.665682   9.699733   5.952261   4.961594   6.241877
    35  H    9.699733  11.213211   5.394363   3.457875   6.241877
    36  H   10.068029  11.992851   4.671056   2.162524   5.952261
    37  H    8.512392  10.720266   2.734073   1.070000   4.163775
    38  H    6.388234   8.771691   1.070000   2.734073   2.162524
    39  H    4.671056   7.184813   2.734073   5.144504   2.162524
    40  H    2.734073   5.144504   4.671056   7.184813   3.457875
    41  H    1.070000   2.734073   6.388234   8.771691   4.961594
    42  H    2.759965   1.070000   8.480529  10.672516   7.052864
    43  H    4.521192   2.125469   9.888970  11.846418   8.519412
    44  B    5.032000   6.656710   2.935023   3.865827   2.516000
    45  N    3.571227   4.913640   4.396713   5.889921   3.223863
    46  H    4.544615   5.660718   4.699310   5.775479   3.769046
    47  H    3.660808   5.373934   3.851169   5.494688   2.636987
    48  H    3.183443   4.175771   5.283377   6.881977   3.993598
                   11         12         13         14         15
    11  C    0.000000
    12  C    2.516000   0.000000
    13  C    2.935023   5.254058   0.000000
    14  C    1.511326   2.935023   2.516000   0.000000
    15  C    2.935023   1.511326   5.032000   2.516000   0.000000
    16  C    5.254058   7.275036   2.516000   4.357840   6.656710
    17  C    3.865827   5.254058   2.516000   2.516000   4.357840
    18  C    3.865827   3.865827   4.357840   2.516000   2.516000
    19  C    7.697818   9.534552   5.032000   6.656710   8.715680
    20  C    6.345521   7.697818   4.357840   5.032000   6.656710
    21  C    5.825409   6.345521   5.032000   4.357840   5.032000
    22  C    4.357840   6.656710   1.511326   3.865827   6.345521
    23  C    2.516000   2.516000   3.865827   1.511326   1.511326
    24  C    6.656710   8.715680   3.865827   5.825409   8.098559
    25  C    5.032000   6.656710   2.935023   3.865827   5.825409
    26  C    4.357840   5.032000   3.865827   2.935023   3.865827
    27  C    9.071567  10.966990   6.345521   8.098559  10.176846
    28  C    7.548000   9.071567   5.254058   6.345521   8.098559
    29  C    6.656710   7.548000   5.254058   5.254058   6.345521
    30  H    9.842940  11.613139   7.184813   8.771691  10.720266
    31  H    8.459458   9.842940   6.241877   7.184813   8.771691
    32  H    7.674759   8.459458   6.241877   6.241877   7.184813
    33  H    6.388234   6.531313   5.952261   4.961594   5.144504
    34  H    4.671056   4.163775   5.394363   3.457875   2.734073
    35  H    3.935545   2.162524   5.952261   3.457875   1.070000
    36  H    3.457875   1.070000   6.241877   3.935545   2.162524
    37  H    2.162524   2.162524   4.961594   3.457875   3.457875
    38  H    2.162524   4.163775   3.457875   3.457875   4.961594
    39  H    4.163775   6.531313   3.457875   4.961594   7.066713
    40  H    5.952261   8.459458   3.935545   6.241877   8.665682
    41  H    7.377003   9.842940   4.671056   7.184813   9.699733
    42  H    9.240988  11.563276   6.334497   8.705103  11.139673
    43  H   10.430533  12.556757   7.519784   9.631344  11.901215
    44  B    2.516000   4.357840   1.511326   1.511326   3.865827
    45  N    4.407167   6.411979   2.323847   3.798697   6.010029
    46  H    4.375854   6.062260   2.855292   3.618713   5.540576
    47  H    3.997941   6.137905   2.233411   3.744057   5.975643
    48  H    5.391299   7.405667   3.145761   4.797196   6.985047
                   16         17         18         19         20
    16  C    0.000000
    17  C    2.516000   0.000000
    18  C    5.032000   2.516000   0.000000
    19  C    2.516000   4.357840   6.656710   0.000000
    20  C    2.516000   2.516000   4.357840   2.516000   0.000000
    21  C    4.357840   2.516000   2.516000   5.032000   2.516000
    22  C    1.511326   2.935023   5.254058   3.865827   3.865827
    23  C    5.254058   2.935023   1.511326   7.275036   5.254058
    24  C    1.511326   3.865827   6.345521   1.511326   2.935023
    25  C    1.511326   1.511326   3.865827   2.935023   1.511326
    26  C    3.865827   1.511326   1.511326   5.254058   2.935023
    27  C    3.865827   5.825409   8.098559   1.511326   3.865827
    28  C    2.935023   3.865827   5.825409   1.511326   1.511326
    29  C    3.865827   2.935023   3.865827   3.865827   1.511326
    30  H    4.671056   6.388234   8.512392   2.162524   4.163775
    31  H    3.935545   4.671056   6.388234   2.162524   2.162524
    32  H    4.671056   3.935545   4.671056   4.163775   2.162524
    33  H    5.394363   3.457875   2.734073   5.952261   3.457875
    34  H    5.952261   3.457875   1.070000   7.377003   4.961594
    35  H    7.377003   4.961594   2.734073   9.277471   7.066713
    36  H    8.292394   6.241877   4.671056  10.546425   8.665682
    37  H    7.377003   5.952261   5.394363   9.842940   8.459458
    38  H    5.952261   5.394363   5.952261   8.459458   7.674759
    39  H    5.394363   5.952261   7.377003   7.674759   7.674759
    40  H    4.671056   6.241877   8.292394   6.388234   7.184813
    41  H    3.935545   6.241877   8.665682   4.671056   6.241877
    42  H    4.581793   7.093345   9.607225   3.810554   6.124768
    43  H    5.288012   7.605817  10.019698   3.469800   5.966124
    44  B    2.935023   1.511326   2.935023   5.254058   3.865827
    45  N    2.032229   2.613338   4.710586   3.939563   3.448113
    46  H    2.623430   2.344039   4.094772   4.274645   3.248764
    47  H    2.793790   3.241117   5.085758   4.825237   4.433084
    48  H    2.130271   3.365276   5.547307   3.441048   3.506791
                   21         22         23         24         25
    21  C    0.000000
    22  C    5.254058   0.000000
    23  C    3.865827   5.032000   0.000000
    24  C    5.254058   2.516000   6.656710   0.000000
    25  C    2.935023   2.516000   4.357840   2.516000   0.000000
    26  C    1.511326   4.357840   2.516000   5.032000   2.516000
    27  C    6.345521   5.032000   8.715680   2.516000   4.357840
    28  C    3.865827   4.357840   6.656710   2.516000   2.516000
    29  C    1.511326   5.032000   5.032000   4.357840   2.516000
    30  H    6.531313   5.952261   9.277471   3.457875   4.961594
    31  H    4.163775   5.394363   7.377003   3.457875   3.457875
    32  H    2.162524   5.952261   5.952261   4.961594   3.457875
    33  H    1.070000   6.241877   4.163775   6.241877   3.935545
    34  H    2.734073   6.241877   2.162524   7.184813   4.671056
    35  H    5.144504   7.184813   2.162524   8.771691   6.388234
    36  H    7.184813   7.674759   3.457875   9.748587   7.674759
    37  H    7.674759   6.388234   3.935545   8.771691   7.184813
    38  H    7.674759   4.671056   4.671056   7.184813   6.241877
    39  H    8.459458   3.935545   6.388234   6.241877   6.241877
    40  H    8.665682   3.457875   7.674759   4.961594   5.952261
    41  H    8.292394   3.457875   8.459458   3.457875   5.394363
    42  H    8.553698   4.927435   9.776787   3.387750   5.871057
    43  H    8.474094   6.137267  10.492727   3.925841   6.242384
    44  B    3.865827   2.516000   2.516000   4.357840   2.516000
    45  N    4.573764   1.671145   4.566442   2.802262   2.054749
    46  H    3.936604   2.570048   4.060779   3.415420   1.986699
    47  H    5.355564   1.854880   4.636836   3.547953   2.992874
    48  H    5.041315   2.064175   5.522262   2.287645   2.385391
                   26         27         28         29         30
    26  C    0.000000
    27  C    6.656710   0.000000
    28  C    4.357840   2.516000   0.000000
    29  C    2.516000   5.032000   2.516000   0.000000
    30  H    7.066713   1.070000   2.734073   5.144504   0.000000
    31  H    4.961594   2.734073   1.070000   2.734073   2.516000
    32  H    3.457875   5.144504   2.734073   1.070000   5.032000
    33  H    2.162524   7.184813   4.671056   2.162524   7.289082
    34  H    2.162524   8.771691   6.388234   4.163775   9.106783
    35  H    4.163775  10.720266   8.512392   6.531313  11.198070
    36  H    5.952261  11.992851  10.068029   8.459458  12.621483
    37  H    6.241877  11.213211   9.699733   8.665682  11.994313
    38  H    6.241877   9.699733   8.665682   8.292394  10.593029
    39  H    7.184813   8.665682   8.292394   8.665682   9.655127
    40  H    7.674759   7.066713   7.377003   8.459458   8.087755
    41  H    7.674759   4.961594   5.952261   7.674759   5.967329
    42  H    8.373905   3.366689   5.291201   7.570966   4.183164
    43  H    8.670812   2.412245   4.800395   7.275244   2.727747
    44  B    2.516000   6.656710   5.032000   4.357840   7.377003
    45  N    3.640306   5.056988   3.951227   4.279226   5.917022
    46  H    2.981503   5.420844   3.916271   3.734877   6.170341
    47  H    4.241124   5.864800   4.943172   5.209081   6.780656
    48  H    4.336746   4.343539   3.604559   4.447457   5.249179
                   31         32         33         34         35
    31  H    0.000000
    32  H    2.516000   0.000000
    33  H    4.829902   2.487107   0.000000
    34  H    6.841087   4.829902   2.516000   0.000000
    35  H    9.106783   7.289082   5.032000   2.516000   0.000000
    36  H   10.809188   9.329297   7.289082   4.829902   2.487107
    37  H   10.593029   9.655127   8.087755   5.967329   4.297297
    38  H    9.655127   9.321547   8.360235   6.813297   5.967329
    39  H    9.321547   9.655127   9.329297   8.360235   8.087755
    40  H    8.360235   9.329297   9.655127   9.321547   9.655127
    41  H    6.813297   8.360235   9.321547   9.655127  10.593029
    42  H    5.844747   7.967671   9.549775  10.503867  11.921609
    43  H    4.966435   7.385855   9.385757  10.801690  12.566666
    44  B    5.952261   5.394363   4.671056   3.935545   4.671056
    45  N    5.005019   5.267807   5.429157   5.544913   6.684076
    46  H    4.901502   4.757821   4.680800   4.814581   6.091881
    47  H    6.001363   6.222213   6.163519   5.930584   6.709337
    48  H    4.656221   5.335487   5.892517   6.330838   7.622190
                   36         37         38         39         40
    36  H    0.000000
    37  H    2.487107   0.000000
    38  H    4.829902   2.516000   0.000000
    39  H    7.289082   5.032000   2.516000   0.000000
    40  H    9.329297   7.289082   4.829902   2.487107   0.000000
    41  H   10.809188   9.106783   6.841087   4.829902   2.516000
    42  H   12.565878  11.167850   9.096024   7.308552   5.069567
    43  H   13.565130  12.477920  10.637321   9.125087   7.051640
    44  B    5.394363   4.671056   3.935545   4.671056   5.394363
    45  N    7.478809   6.498900   5.184169   4.916913   4.738151
    46  H    7.128791   6.453770   5.511670   5.636166   5.700293
    47  H    7.193229   5.965963   4.498069   4.187249   4.273175
    48  H    8.473867   7.460335   6.017397   5.424209   4.813284
                   41         42         43         44         45
    41  H    0.000000
    42  H    2.562712   0.000000
    43  H    4.597995   2.138235   0.000000
    44  B    5.952261   7.321361   8.218967   0.000000
    45  N    4.602148   5.719656   6.652001   2.343566   0.000000
    46  H    5.587757   6.536301   7.261493   2.284136   1.005586
    47  H    4.590987   6.088236   7.267180   2.477934   1.005586
    48  H    4.220184   5.052986   5.930887   3.323829   1.005586
                   46         47         48
    46  H    0.000000
    47  H    1.624581   0.000000
    48  H    1.624581   1.624581   0.000000
 Stoichiometry    C29H17BN(2)
 Framework group  C1[X(C29H17BN)]
 Deg. of freedom   138
 Full point group                 C1      NOp   1
 Largest Abelian subgroup         C1      NOp   1
 Largest concise Abelian subgroup C1      NOp   1
                         Standard orientation:                         
 ---------------------------------------------------------------------
 Center     Atomic      Atomic             Coordinates (Angstroms)
 Number     Number       Type             X           Y           Z
 ---------------------------------------------------------------------
      1          6           0        0.748878   -3.759620   -0.295814
      2          6           0       -0.705585   -3.758471    0.114846
      3          6           0       -1.427523   -2.497276   -0.300241
      4          6           0       -3.603925   -1.234931   -0.304669
      5          6           0       -5.780326    0.027413   -0.309096
      6          6           0       -2.881986   -2.496126    0.110418
      7          6           0       -5.058388   -1.233782    0.105991
      8          6           0        2.930264   -2.505992   -0.280775
      9          6           0        5.111650   -1.252364   -0.265736
     10          6           0        1.475801   -2.504842    0.129885
     11          6           0        3.657188   -1.251214    0.144924
     12          6           0        5.838574    0.002414    0.159963
     13          6           0        0.753863   -1.243648   -0.285202
     14          6           0        2.935249    0.009981   -0.270163
     15          6           0        5.116635    1.263609   -0.255124
     16          6           0       -1.422539    0.018697   -0.289630
     17          6           0        0.758848    1.272325   -0.274591
     18          6           0        2.940234    2.525953   -0.259552
     19          6           0       -3.598940    1.281041   -0.294057
     20          6           0       -1.417554    2.534669   -0.279018
     21          6           0        0.763832    3.788298   -0.263979
     22          6           0       -0.700600   -1.242498    0.125457
     23          6           0        3.662172    1.264759    0.155535
     24          6           0       -2.877001    0.019847    0.121030
     25          6           0       -0.695615    1.273475    0.136069
     26          6           0        1.485771    2.527103    0.151108
     27          6           0       -5.053403    1.282191    0.116602
     28          6           0       -2.872017    2.535819    0.131641
     29          6           0       -0.690630    3.789447    0.146680
     30          1           0       -5.564527    2.175101   -0.177275
     31          1           0       -3.383140    3.428730   -0.162236
     32          1           0       -1.201754    4.682358   -0.147197
     33          1           0        1.278485    4.676665    0.037410
     34          1           0        3.454887    3.414321    0.041838
     35          1           0        5.631288    2.151976    0.046265
     36          1           0        6.868316    0.001600   -0.130779
     37          1           0        5.622774   -2.145274    0.028141
     38          1           0        3.441388   -3.398902    0.013102
     39          1           0        1.260002   -4.652531   -0.001937
     40          1           0       -1.220238   -4.646838   -0.186543
     41          1           0       -3.396639   -3.384494   -0.190971
     42          1           0       -5.532787   -1.997382   -0.474319
     43          1           0       -6.676579   -0.227201   -0.835217
     44          5           0        1.480786    0.011130    0.140496
     45          7           0       -0.433810   -0.274687    1.461455
     46          1           0        0.035147    0.535131    1.829529
     47          1           0        0.031928   -1.089432    1.822677
     48          1           0       -1.373374   -0.274337    1.819818
 ---------------------------------------------------------------------
 Rotational constants (GHZ):      0.2915940      0.1320441      0.0928432
 Standard basis: VSTO-6G (5D, 7F)
 There are   141 symmetry adapted cartesian basis functions of A   symmetry.
 There are   141 symmetry adapted basis functions of A   symmetry.
   141 basis functions,   846 primitive gaussians,   141 cartesian basis functions
    71 alpha electrons       70 beta electrons
       nuclear repulsion energy      1374.2614180313 Hartrees.
 Integral buffers will be    262144 words long.
 Regular integral format.
 Two-electron integral symmetry is turned off.
 Do NDO integrals.
 One-electron integrals computed using PRISM.
 NBasis=   141 RedAO= F EigKep=  0.00D+00  NBF=   141
 NBsUse=   141 1.00D-04 EigRej=  0.00D+00 NBFU=   141
 Simple Huckel Guess.
 Initial guess <Sx>= 0.0000 <Sy>= 0.0000 <Sz>= 0.5000 <S**2>= 0.7500 S= 0.5000
 Keep J ints in memory in canonical form, NReq=1121233.
 Gradient too large for Newton-Raphson -- use scaled steepest descent instead.
 Gradient too large for Newton-Raphson -- use scaled steepest descent instead.
     Accept linear search using points  3 and  4.
 Gradient too large for Newton-Raphson -- use scaled steepest descent instead.
     Accept linear search using points  2 and  3.
 Gradient too large for Newton-Raphson -- use scaled steepest descent instead.
     Minimum is close to point  2 DX=  7.08D-02 DF= -5.09D-05 DXR=  5.57D-02 DFR=  3.11D-03 which will be used.
 Gradient too large for Newton-Raphson -- use scaled steepest descent instead.
 Gradient too large for Newton-Raphson -- use scaled steepest descent instead.
     Accept linear search using points  1 and  2.
     Minimum is close to point  2 DX= -9.73D-02 DF= -8.15D-05 DXR=  7.47D-02 DFR=  8.93D-03 which will be used.
 Gradient too large for Newton-Raphson -- use scaled steepest descent instead.
     Accept linear search using points  1 and  2.
 Gradient too large for Newton-Raphson -- use scaled steepest descent instead.
     Minimum is close to point  2 DX=  3.67D-02 DF= -5.36D-06 DXR=  2.74D-02 DFR=  7.53D-04 which will be used.
 Gradient too large for Newton-Raphson -- use scaled steepest descent instead.
 Gradient too large for Newton-Raphson -- use scaled steepest descent instead.
     Accept linear search using points  1 and  2.
     Minimum is close to point  2 DX= -8.00D-02 DF= -3.43D-05 DXR=  5.64D-02 DFR=  5.63D-03 which will be used.
 Gradient too large for Newton-Raphson -- use scaled steepest descent instead.
     Accept linear search using points  1 and  2.
     Minimum is close to point  2 DX= -7.06D-02 DF= -2.63D-05 DXR=  4.94D-02 DFR=  4.36D-03 which will be used.
 Gradient too large for Newton-Raphson -- use scaled steepest descent instead.
     Minimum is close to point  2 DX=  5.96D-03 DF= -1.11D-07 DXR=  4.24D-03 DFR=  1.80D-05 which will be used.
 Gradient too large for Newton-Raphson -- use scaled steepest descent instead.
 Gradient too large for Newton-Raphson -- use scaled steepest descent instead.
     Accept linear search using points  1 and  2.
     Minimum is close to point  2 DX= -5.15D-02 DF= -1.51D-05 DXR=  3.33D-02 DFR=  2.23D-03 which will be used.
 Gradient too large for Newton-Raphson -- use scaled steepest descent instead.
     Accept linear search using points  1 and  2.
     Minimum is close to point  2 DX= -6.31D-02 DF= -2.31D-05 DXR=  3.85D-02 DFR=  3.23D-03 which will be used.
 Gradient too large for Newton-Raphson -- use scaled steepest descent instead.
     Accept linear search using points  1 and  2.
     Minimum is close to point  2 DX= -5.01D-02 DF= -1.70D-05 DXR=  3.23D-02 DFR=  2.11D-03 which will be used.
 Gradient too large for Newton-Raphson -- use scaled steepest descent instead.
     Minimum is close to point  2 DX=  2.15D-02 DF= -1.57D-06 DXR=  1.33D-02 DFR=  1.76D-04 which will be used.
 Gradient too large for Newton-Raphson -- use scaled steepest descent instead.
 Gradient too large for Newton-Raphson -- use scaled steepest descent instead.
     Accept linear search using points  1 and  2.
     Minimum is close to point  2 DX= -4.47D-02 DF= -1.64D-05 DXR=  2.70D-02 DFR=  1.72D-03 which will be used.
 Gradient too large for Newton-Raphson -- use scaled steepest descent instead.
     Accept linear search using points  1 and  2.
     Minimum is close to point  2 DX= -9.05D-02 DF= -5.19D-05 DXR=  5.63D-02 DFR=  6.53D-03 which will be used.
 Gradient too large for Newton-Raphson -- use scaled steepest descent instead.
     Accept linear search using points  1 and  2.
     Minimum is close to point  2 DX= -1.35D-01 DF= -8.73D-05 DXR=  9.19D-02 DFR=  1.53D-02 which will be used.
 Gradient too large for Newton-Raphson -- use scaled steepest descent instead.
     Accept linear search using points  1 and  2.
     Minimum is close to point  2 DX= -1.18D-01 DF= -4.49D-05 DXR=  8.53D-02 DFR=  1.24D-02 which will be used.
 Gradient too large for Newton-Raphson -- use scaled steepest descent instead.
     Accept linear search using points  1 and  2.
     Minimum is close to point  2 DX= -4.84D-02 DF= -4.20D-06 DXR=  3.58D-02 DFR=  2.15D-03 which will be used.
 Gradient too large for Newton-Raphson -- use scaled steepest descent instead.
     Minimum is close to point  2 DX=  1.05D-01 DF= -4.56D-06 DXR=  6.98D-02 DFR=  4.89D-03 which will be used.
 Gradient too large for Newton-Raphson -- use scaled steepest descent instead.
 LinEq1:  Iter=  0 NonCon=     1 RMS=1.87D-04 Max=3.99D-03 NDo=     1
 AX will form     1 AO Fock derivatives at one time.
 LinEq1:  Iter=  1 NonCon=     1 RMS=8.39D-05 Max=1.12D-03 NDo=     1
 LinEq1:  Iter=  2 NonCon=     1 RMS=6.28D-06 Max=1.15D-04 NDo=     1
 LinEq1:  Iter=  3 NonCon=     1 RMS=1.26D-06 Max=3.14D-05 NDo=     1
 LinEq1:  Iter=  4 NonCon=     1 RMS=2.86D-07 Max=6.25D-06 NDo=     1
 LinEq1:  Iter=  5 NonCon=     1 RMS=6.88D-08 Max=1.32D-06 NDo=     1
 LinEq1:  Iter=  6 NonCon=     1 RMS=1.87D-08 Max=5.34D-07 NDo=     1
 LinEq1:  Iter=  7 NonCon=     0 RMS=4.04D-09 Max=7.89D-08 NDo=     1
 Linear equations converged to 9.970D-09 9.970D-08 after     7 iterations.
     Accept linear search using points  1 and  2.
     Minimum is close to point  2 DX= -2.99D-02 DF= -3.59D-07 DXR=  3.08D-02 DFR=  9.70D-04 which will be used.
 LinEq1:  Iter=  0 NonCon=     1 RMS=6.49D-06 Max=1.57D-04 NDo=     1
 LinEq1:  Iter=  1 NonCon=     1 RMS=1.03D-06 Max=1.31D-05 NDo=     1
 LinEq1:  Iter=  2 NonCon=     1 RMS=2.66D-07 Max=3.56D-06 NDo=     1
 LinEq1:  Iter=  3 NonCon=     1 RMS=5.03D-08 Max=5.94D-07 NDo=     1
 LinEq1:  Iter=  4 NonCon=     1 RMS=1.11D-08 Max=3.09D-07 NDo=     1
 LinEq1:  Iter=  5 NonCon=     1 RMS=2.59D-09 Max=9.84D-08 NDo=     1
 LinEq1:  Iter=  6 NonCon=     1 RMS=7.84D-10 Max=2.73D-08 NDo=     1
 LinEq1:  Iter=  7 NonCon=     0 RMS=1.77D-10 Max=3.75D-09 NDo=     1
 Linear equations converged to 2.554D-09 2.554D-08 after     7 iterations.
     Minimum is close to point  2 DX=  2.71D-03 DF= -4.23D-12 DXR=  2.71D-03 DFR=  7.32D-06 which will be used.
 LinEq1:  Iter=  0 NonCon=     1 RMS=2.16D-08 Max=3.83D-07 NDo=     1
 LinEq1:  Iter=  1 NonCon=     1 RMS=6.26D-09 Max=1.33D-07 NDo=     1
 LinEq1:  Iter=  2 NonCon=     1 RMS=1.51D-09 Max=4.44D-08 NDo=     1
 LinEq1:  Iter=  3 NonCon=     1 RMS=3.81D-10 Max=1.33D-08 NDo=     1
 LinEq1:  Iter=  4 NonCon=     1 RMS=9.54D-11 Max=2.36D-09 NDo=     1
 LinEq1:  Iter=  5 NonCon=     1 RMS=1.91D-11 Max=3.96D-10 NDo=     1
 LinEq1:  Iter=  6 NonCon=     0 RMS=5.60D-12 Max=7.14D-11 NDo=     1
 Linear equations converged to 1.059D-11 1.059D-10 after     6 iterations.
 SCF Done:  E(UPM6) =   1.11936015911     a.u. after   29 cycles
            Convg  =    0.1836D-07                    76 Fock formations.
              S**2 =  6.5020                  -V/T =  1.0113
 <Sx>= 0.0000 <Sy>= 0.0000 <Sz>= 0.5000 <S**2>= 6.5020 S= 2.0985
 <L.S>= 0.000000000000E+00
 Annihilation of the first spin contaminant:
 S**2 before annihilation     6.5020,   after    22.9150

 **********************************************************************

            Population analysis using the SCF density.

 **********************************************************************

 Orbital symmetries:
 Alpha Orbitals:
       Occupied  (A) (A) (A) (A) (A) (A) (A) (A) (A) (A) (A) (A)
                 (A) (A) (A) (A) (A) (A) (A) (A) (A) (A) (A) (A)
                 (A) (A) (A) (A) (A) (A) (A) (A) (A) (A) (A) (A)
                 (A) (A) (A) (A) (A) (A) (A) (A) (A) (A) (A) (A)
                 (A) (A) (A) (A) (A) (A) (A) (A) (A) (A) (A) (A)
                 (A) (A) (A) (A) (A) (A) (A) (A) (A) (A) (A)
       Virtual   (A) (A) (A) (A) (A) (A) (A) (A) (A) (A) (A) (A)
                 (A) (A) (A) (A) (A) (A) (A) (A) (A) (A) (A) (A)
                 (A) (A) (A) (A) (A) (A) (A) (A) (A) (A) (A) (A)
                 (A) (A) (A) (A) (A) (A) (A) (A) (A) (A) (A) (A)
                 (A) (A) (A) (A) (A) (A) (A) (A) (A) (A) (A) (A)
                 (A) (A) (A) (A) (A) (A) (A) (A) (A) (A)
 Beta  Orbitals:
       Occupied  (A) (A) (A) (A) (A) (A) (A) (A) (A) (A) (A) (A)
                 (A) (A) (A) (A) (A) (A) (A) (A) (A) (A) (A) (A)
                 (A) (A) (A) (A) (A) (A) (A) (A) (A) (A) (A) (A)
                 (A) (A) (A) (A) (A) (A) (A) (A) (A) (A) (A) (A)
                 (A) (A) (A) (A) (A) (A) (A) (A) (A) (A) (A) (A)
                 (A) (A) (A) (A) (A) (A) (A) (A) (A) (A)
       Virtual   (A) (A) (A) (A) (A) (A) (A) (A) (A) (A) (A) (A)
                 (A) (A) (A) (A) (A) (A) (A) (A) (A) (A) (A) (A)
                 (A) (A) (A) (A) (A) (A) (A) (A) (A) (A) (A) (A)
                 (A) (A) (A) (A) (A) (A) (A) (A) (A) (A) (A) (A)
                 (A) (A) (A) (A) (A) (A) (A) (A) (A) (A) (A) (A)
                 (A) (A) (A) (A) (A) (A) (A) (A) (A) (A) (A)
 The electronic state is 2-A.
 Alpha  occ. eigenvalues --   -1.30391  -1.07378  -1.05635  -1.03602  -1.01974
 Alpha  occ. eigenvalues --   -1.00464  -0.99672  -0.97169  -0.95889  -0.93636
 Alpha  occ. eigenvalues --   -0.92150  -0.90343  -0.90186  -0.86822  -0.84607
 Alpha  occ. eigenvalues --   -0.84403  -0.79958  -0.78875  -0.77384  -0.77049
 Alpha  occ. eigenvalues --   -0.74046  -0.73538  -0.71563  -0.71244  -0.68117
 Alpha  occ. eigenvalues --   -0.66848  -0.64453  -0.63701  -0.62361  -0.61351
 Alpha  occ. eigenvalues --   -0.59992  -0.57496  -0.57050  -0.55989  -0.55307
 Alpha  occ. eigenvalues --   -0.55046  -0.53427  -0.53147  -0.52493  -0.52009
 Alpha  occ. eigenvalues --   -0.50247  -0.49563  -0.48407  -0.48184  -0.47840
 Alpha  occ. eigenvalues --   -0.47406  -0.47119  -0.46520  -0.46150  -0.45782
 Alpha  occ. eigenvalues --   -0.45030  -0.44619  -0.43917  -0.43392  -0.43260
 Alpha  occ. eigenvalues --   -0.42718  -0.42193  -0.41613  -0.40503  -0.40440
 Alpha  occ. eigenvalues --   -0.39691  -0.38882  -0.37662  -0.37246  -0.36319
 Alpha  occ. eigenvalues --   -0.36084  -0.35650  -0.34658  -0.34356  -0.32168
 Alpha  occ. eigenvalues --   -0.31978
 Alpha virt. eigenvalues --   -0.04136  -0.03419  -0.02148  -0.01653  -0.00745
 Alpha virt. eigenvalues --    0.00300   0.01035   0.01972   0.02248   0.02973
 Alpha virt. eigenvalues --    0.03635   0.04713   0.05404   0.06762   0.08881
 Alpha virt. eigenvalues --    0.09237   0.09542   0.10674   0.11274   0.11521
 Alpha virt. eigenvalues --    0.11853   0.12365   0.12765   0.12929   0.13244
 Alpha virt. eigenvalues --    0.13544   0.13769   0.14029   0.14231   0.14310
 Alpha virt. eigenvalues --    0.14636   0.14823   0.15243   0.15394   0.15712
 Alpha virt. eigenvalues --    0.16022   0.16106   0.16233   0.16334   0.16464
 Alpha virt. eigenvalues --    0.16682   0.16927   0.17200   0.17415   0.17665
 Alpha virt. eigenvalues --    0.17914   0.17994   0.18282   0.18577   0.18676
 Alpha virt. eigenvalues --    0.19142   0.19489   0.19776   0.19830   0.20206
 Alpha virt. eigenvalues --    0.20714   0.20884   0.20976   0.21072   0.21221
 Alpha virt. eigenvalues --    0.21459   0.21507   0.21718   0.22731   0.22903
 Alpha virt. eigenvalues --    0.23273   0.23684   0.24079   0.24259   0.24385
  Beta  occ. eigenvalues --   -1.28882  -1.07110  -1.05517  -1.03439  -1.01815
  Beta  occ. eigenvalues --   -1.00445  -0.99519  -0.97010  -0.95816  -0.93475
  Beta  occ. eigenvalues --   -0.92058  -0.90322  -0.90193  -0.86719  -0.84714
  Beta  occ. eigenvalues --   -0.84169  -0.79633  -0.78610  -0.77183  -0.76710
  Beta  occ. eigenvalues --   -0.74242  -0.73250  -0.71272  -0.70964  -0.67538
  Beta  occ. eigenvalues --   -0.66734  -0.64125  -0.63463  -0.62045  -0.61240
  Beta  occ. eigenvalues --   -0.59980  -0.56870  -0.56574  -0.55814  -0.55181
  Beta  occ. eigenvalues --   -0.54728  -0.53354  -0.53072  -0.52464  -0.52008
  Beta  occ. eigenvalues --   -0.50255  -0.49794  -0.48491  -0.48257  -0.47636
  Beta  occ. eigenvalues --   -0.47434  -0.46847  -0.46130  -0.45895  -0.45595
  Beta  occ. eigenvalues --   -0.44961  -0.44548  -0.43710  -0.43436  -0.43152
  Beta  occ. eigenvalues --   -0.42976  -0.42167  -0.41504  -0.40786  -0.40298
  Beta  occ. eigenvalues --   -0.39764  -0.39256  -0.38044  -0.37255  -0.36712
  Beta  occ. eigenvalues --   -0.35987  -0.35518  -0.34818  -0.34248  -0.29837
  Beta virt. eigenvalues --   -0.06493  -0.01695  -0.01416  -0.00659   0.00150
  Beta virt. eigenvalues --    0.00677   0.01229   0.01869   0.02266   0.03469
  Beta virt. eigenvalues --    0.04271   0.04329   0.04927   0.06646   0.07478
  Beta virt. eigenvalues --    0.09476   0.09727   0.10098   0.10785   0.11383
  Beta virt. eigenvalues --    0.11755   0.11869   0.12252   0.13039   0.13083
  Beta virt. eigenvalues --    0.13410   0.13636   0.13828   0.14081   0.14310
  Beta virt. eigenvalues --    0.14382   0.14616   0.14918   0.15159   0.15309
  Beta virt. eigenvalues --    0.15782   0.16110   0.16138   0.16264   0.16309
  Beta virt. eigenvalues --    0.16540   0.17035   0.17074   0.17298   0.17506
  Beta virt. eigenvalues --    0.17890   0.18187   0.18316   0.18643   0.18742
  Beta virt. eigenvalues --    0.18957   0.19325   0.19553   0.19752   0.19890
  Beta virt. eigenvalues --    0.19957   0.20494   0.20690   0.20714   0.21118
  Beta virt. eigenvalues --    0.21245   0.21319   0.21538   0.21858   0.22328
  Beta virt. eigenvalues --    0.23318   0.23738   0.23958   0.24149   0.24512
  Beta virt. eigenvalues --    0.24679
          Condensed to atoms (all electrons):
               1          2          3          4          5          6
     1  C    4.105995   0.000000   0.000000   0.000000   0.000000   0.000000
     2  C    0.000000   4.174401   0.000000   0.000000   0.000000   0.000000
     3  C    0.000000   0.000000   3.958381   0.000000   0.000000   0.000000
     4  C    0.000000   0.000000   0.000000   3.971094   0.000000   0.000000
     5  C    0.000000   0.000000   0.000000   0.000000   4.156410   0.000000
     6  C    0.000000   0.000000   0.000000   0.000000   0.000000   4.169108
     7  C    0.000000   0.000000   0.000000   0.000000   0.000000   0.000000
     8  C    0.000000   0.000000   0.000000   0.000000   0.000000   0.000000
     9  C    0.000000   0.000000   0.000000   0.000000   0.000000   0.000000
    10  C    0.000000   0.000000   0.000000   0.000000   0.000000   0.000000
    11  C    0.000000   0.000000   0.000000   0.000000   0.000000   0.000000
    12  C    0.000000   0.000000   0.000000   0.000000   0.000000   0.000000
    13  C    0.000000   0.000000   0.000000   0.000000   0.000000   0.000000
    14  C    0.000000   0.000000   0.000000   0.000000   0.000000   0.000000
    15  C    0.000000   0.000000   0.000000   0.000000   0.000000   0.000000
    16  C    0.000000   0.000000   0.000000   0.000000   0.000000   0.000000
    17  C    0.000000   0.000000   0.000000   0.000000   0.000000   0.000000
    18  C    0.000000   0.000000   0.000000   0.000000   0.000000   0.000000
    19  C    0.000000   0.000000   0.000000   0.000000   0.000000   0.000000
    20  C    0.000000   0.000000   0.000000   0.000000   0.000000   0.000000
    21  C    0.000000   0.000000   0.000000   0.000000   0.000000   0.000000
    22  C    0.000000   0.000000   0.000000   0.000000   0.000000   0.000000
    23  C    0.000000   0.000000   0.000000   0.000000   0.000000   0.000000
    24  C    0.000000   0.000000   0.000000   0.000000   0.000000   0.000000
    25  C    0.000000   0.000000   0.000000   0.000000   0.000000   0.000000
    26  C    0.000000   0.000000   0.000000   0.000000   0.000000   0.000000
    27  C    0.000000   0.000000   0.000000   0.000000   0.000000   0.000000
    28  C    0.000000   0.000000   0.000000   0.000000   0.000000   0.000000
    29  C    0.000000   0.000000   0.000000   0.000000   0.000000   0.000000
    30  H    0.000000   0.000000   0.000000   0.000000   0.000000   0.000000
    31  H    0.000000   0.000000   0.000000   0.000000   0.000000   0.000000
    32  H    0.000000   0.000000   0.000000   0.000000   0.000000   0.000000
    33  H    0.000000   0.000000   0.000000   0.000000   0.000000   0.000000
    34  H    0.000000   0.000000   0.000000   0.000000   0.000000   0.000000
    35  H    0.000000   0.000000   0.000000   0.000000   0.000000   0.000000
    36  H    0.000000   0.000000   0.000000   0.000000   0.000000   0.000000
    37  H    0.000000   0.000000   0.000000   0.000000   0.000000   0.000000
    38  H    0.000000   0.000000   0.000000   0.000000   0.000000   0.000000
    39  H    0.000000   0.000000   0.000000   0.000000   0.000000   0.000000
    40  H    0.000000   0.000000   0.000000   0.000000   0.000000   0.000000
    41  H    0.000000   0.000000   0.000000   0.000000   0.000000   0.000000
    42  H    0.000000   0.000000   0.000000   0.000000   0.000000   0.000000
    43  H    0.000000   0.000000   0.000000   0.000000   0.000000   0.000000
    44  B    0.000000   0.000000   0.000000   0.000000   0.000000   0.000000
    45  N    0.000000   0.000000   0.000000   0.000000   0.000000   0.000000
    46  H    0.000000   0.000000   0.000000   0.000000   0.000000   0.000000
    47  H    0.000000   0.000000   0.000000   0.000000   0.000000   0.000000
    48  H    0.000000   0.000000   0.000000   0.000000   0.000000   0.000000
               7          8          9         10         11         12
     1  C    0.000000   0.000000   0.000000   0.000000   0.000000   0.000000
     2  C    0.000000   0.000000   0.000000   0.000000   0.000000   0.000000
     3  C    0.000000   0.000000   0.000000   0.000000   0.000000   0.000000
     4  C    0.000000   0.000000   0.000000   0.000000   0.000000   0.000000
     5  C    0.000000   0.000000   0.000000   0.000000   0.000000   0.000000
     6  C    0.000000   0.000000   0.000000   0.000000   0.000000   0.000000
     7  C    4.144760   0.000000   0.000000   0.000000   0.000000   0.000000
     8  C    0.000000   4.118081   0.000000   0.000000   0.000000   0.000000
     9  C    0.000000   0.000000   4.136640   0.000000   0.000000   0.000000
    10  C    0.000000   0.000000   0.000000   4.063916   0.000000   0.000000
    11  C    0.000000   0.000000   0.000000   0.000000   4.023537   0.000000
    12  C    0.000000   0.000000   0.000000   0.000000   0.000000   4.147407
    13  C    0.000000   0.000000   0.000000   0.000000   0.000000   0.000000
    14  C    0.000000   0.000000   0.000000   0.000000   0.000000   0.000000
    15  C    0.000000   0.000000   0.000000   0.000000   0.000000   0.000000
    16  C    0.000000   0.000000   0.000000   0.000000   0.000000   0.000000
    17  C    0.000000   0.000000   0.000000   0.000000   0.000000   0.000000
    18  C    0.000000   0.000000   0.000000   0.000000   0.000000   0.000000
    19  C    0.000000   0.000000   0.000000   0.000000   0.000000   0.000000
    20  C    0.000000   0.000000   0.000000   0.000000   0.000000   0.000000
    21  C    0.000000   0.000000   0.000000   0.000000   0.000000   0.000000
    22  C    0.000000   0.000000   0.000000   0.000000   0.000000   0.000000
    23  C    0.000000   0.000000   0.000000   0.000000   0.000000   0.000000
    24  C    0.000000   0.000000   0.000000   0.000000   0.000000   0.000000
    25  C    0.000000   0.000000   0.000000   0.000000   0.000000   0.000000
    26  C    0.000000   0.000000   0.000000   0.000000   0.000000   0.000000
    27  C    0.000000   0.000000   0.000000   0.000000   0.000000   0.000000
    28  C    0.000000   0.000000   0.000000   0.000000   0.000000   0.000000
    29  C    0.000000   0.000000   0.000000   0.000000   0.000000   0.000000
    30  H    0.000000   0.000000   0.000000   0.000000   0.000000   0.000000
    31  H    0.000000   0.000000   0.000000   0.000000   0.000000   0.000000
    32  H    0.000000   0.000000   0.000000   0.000000   0.000000   0.000000
    33  H    0.000000   0.000000   0.000000   0.000000   0.000000   0.000000
    34  H    0.000000   0.000000   0.000000   0.000000   0.000000   0.000000
    35  H    0.000000   0.000000   0.000000   0.000000   0.000000   0.000000
    36  H    0.000000   0.000000   0.000000   0.000000   0.000000   0.000000
    37  H    0.000000   0.000000   0.000000   0.000000   0.000000   0.000000
    38  H    0.000000   0.000000   0.000000   0.000000   0.000000   0.000000
    39  H    0.000000   0.000000   0.000000   0.000000   0.000000   0.000000
    40  H    0.000000   0.000000   0.000000   0.000000   0.000000   0.000000
    41  H    0.000000   0.000000   0.000000   0.000000   0.000000   0.000000
    42  H    0.000000   0.000000   0.000000   0.000000   0.000000   0.000000
    43  H    0.000000   0.000000   0.000000   0.000000   0.000000   0.000000
    44  B    0.000000   0.000000   0.000000   0.000000   0.000000   0.000000
    45  N    0.000000   0.000000   0.000000   0.000000   0.000000   0.000000
[...]
 4525,0.00018363,-0.00000554,0.00132785,-0.00104752,0.00007816,0.000051
 17,0.00017475,-0.00004346,-0.00216195,0.00102592,-0.00032587,0.0004478
 3,0.00045369,-0.00000854,0.00005180,-0.00009672,-0.00000983,0.00963325
 ,0.00257717,-0.01577346,-0.00054032,0.00012888,0.00042417,0.00009357,0
 .00000085,-0.00002677,-0.00545823,0.00070744,-0.01462850,0.00061736,0.
 00042225,-0.00070095,-0.00013316,0.00002706,-0.00003594,-0.00003105,0.
 00017103,0.00031489,-0.00008579,-0.00007268,0.00021835,0.00017086,-0.0
 0001975,-0.00000962,-0.00085257,-0.05077451,0.00348477,-0.00020771,-0.
 00009432,-0.00005961,-0.00040317,0.00009406,-0.00005985,-0.00048888,-0
 .00092735,-0.00079877,0.00013079,-0.00044724,-0.00006962,0.00015932,-0
 .00007591,-0.00002071,-0.00014363,-0.00011434,-0.00001908,-0.00016206,
 0.00004380,-0.00006789,-0.00004130,-0.00002160,0.00000739,0.00006600,0
 .00002393,-0.00002712,0.00004353,0.00002278,0.00003535,-0.00000402,0.0
 0002837,0.00002760,0.00000336,0.00004984,0.00003304,-0.00000653,0.0000
 1423,0.00001341,-0.00002995,0.00001905,0.00001065,-0.00002828,-0.00003
 242,0.00000870,0.00003077,-0.00000948,0.00005204,0.00007026,0.00006096
 ,-0.00000226,-0.00012868,-0.00004848,-0.00046485,0.00021704,0.00002816
 ,-0.00087114,-0.00005415,-0.00000089,-0.00002054,0.00001013,0.00000570
 ,-0.00000251,0.00093036,-0.00244242,-0.00179880,-0.00362813,0.46058877
 ,-0.00050176,0.00284419,-0.00017658,0.00162787,0.00124712,-0.00046023,
 -0.00292441,0.02618895,-0.02587339,-0.00245826,-0.00000374,-0.00046980
 ,-0.00048685,-0.00039503,0.00000676,0.00371641,0.00012544,-0.00024883,
 0.00119401,-0.00008409,0.00027968,0.00190095,-0.00325485,0.00042913,0.
 00044942,0.00014355,0.00000291,-0.00604599,-0.00474215,-0.00117635,0.0
 0094362,0.00320341,-0.00009549,0.00035808,-0.00023318,0.00000896,0.046
 17155,-0.01974191,-0.02971361,-0.00579130,0.00317314,0.00106090,0.0002
 8575,-0.00021412,0.00001543,-0.02321850,-0.01536120,-0.02922920,0.0058
 7752,0.00274200,-0.00028552,-0.00008677,0.00053934,0.00008018,0.000240
 99,0.00001958,0.00045137,-0.00072791,0.00007073,0.00021799,0.00010936,
 0.00005845,0.00005103,-0.01880145,0.01071327,-0.03628197,-0.00206844,-
 0.00132295,-0.00009861,-0.00046543,-0.00067224,-0.00108506,-0.00075060
 ,0.00237640,-0.00109530,0.00166713,-0.00158308,-0.00011936,-0.00008036
 ,0.00037044,0.00006701,0.00023171,-0.00014966,0.00016698,-0.00035096,-
 0.00013994,0.00010172,0.00004374,0.00001059,-0.00004812,0.00009906,0.0
 0003219,-0.00015507,0.00013767,0.00010342,-0.00003530,0.00000602,0.000
 06657,-0.00005265,0.00000239,0.00027970,-0.00004122,-0.00001457,0.0000
 9407,-0.00003015,-0.00013755,0.00008189,-0.00001528,-0.00010697,-0.000
 07794,-0.00005012,-0.00015060,-0.00004426,0.00002538,-0.00000269,-0.00
 006021,-0.00016140,-0.00001638,-0.00008142,-0.00001344,-0.00002363,-0.
 00002456,0.00027943,-0.00001973,-0.00010204,-0.00009849,0.00008142,-0.
 00004504,-0.00004504,0.00020337,-0.00463527,0.00054075,-0.00173773,0.0
 0998022,0.34942775,-0.00004137,-0.00011846,-0.00003220,-0.00012948,-0.
 00002932,0.00011003,0.00029027,0.00015036,0.00019904,0.00003261,0.0000
 2359,-0.00000399,0.00003249,-0.00004100,0.00000968,-0.00005002,-0.0000
 5834,0.00000757,-0.00000937,-0.00007317,0.00001688,0.00038780,-0.00044
 705,-0.00017074,0.00000889,0.00007068,-0.00001741,-0.00076767,0.000071
 63,0.00026059,0.00018377,0.00037416,0.00003105,0.00001847,-0.00010138,
 -0.00001286,0.00039248,-0.00015530,-0.00020381,-0.00078575,0.00026506,
 -0.00006868,0.00010932,-0.00007208,-0.00001818,-0.00043287,-0.00012205
 ,-0.00065514,0.00067777,0.00063130,-0.00008844,-0.00004992,0.00011998,
 -0.00003316,0.00003325,0.00012250,0.00000670,-0.00035616,-0.00002563,-
 0.00004568,-0.00000980,0.00006154,0.00001133,0.00268558,-0.00032713,-0
 .00071267,-0.00027989,-0.00007459,0.00003231,-0.00021988,0.00005136,-0
 .00011386,0.00010834,0.00015838,-0.00005252,0.00023516,-0.00040190,-0.
 00001094,0.00003068,0.00003104,0.00003050,0.00022787,-0.00010466,0.000
 07503,-0.00005148,0.00000631,0.00004593,-0.00001120,-0.00000717,-0.000
 01922,-0.00002653,-0.00001875,-0.00003996,0.00001129,0.00000889,-0.000
 02030,-0.00000178,-0.00002485,-0.00000773,0.00000051,0.00002651,0.0000
 0990,0.00000636,0.00001494,0.00001227,-0.00002376,0.00001248,0.0000093
 8,-0.00000759,-0.00000802,0.00001824,-0.00001585,-0.00000567,0.0000340
 6,0.00002286,0.00001646,0.00001668,-0.00000737,-0.00001690,-0.00002209
 ,0.00001275,0.00000227,-0.00002643,0.00000698,0.00002434,-0.00001121,-
 0.00001958,0.00001135,-0.00001129,-0.00009270,-0.00044952,-0.00002753,
 -0.05817669,0.01148169,-0.00234359,0.05279599,-0.00033604,0.00085065,-
 0.00005756,0.00054019,0.00021246,-0.00012451,-0.00069488,-0.00005709,-
 0.00073326,-0.00011513,-0.00007594,-0.00003720,-0.00003936,-0.00001885
 ,-0.00000515,0.00049415,0.00006330,0.00000706,0.00004506,-0.00000899,-
 0.00001560,0.00008084,-0.00064254,-0.00000771,-0.00004140,0.00014237,0
 .00001907,-0.00034109,-0.00082998,0.00018196,0.00040515,0.00066568,-0.
 00001527,0.00000886,-0.00016087,0.00000985,0.00198063,-0.00084411,0.00
 027747,-0.00181599,0.00075404,0.00024765,0.00017456,-0.00003512,0.0000
 2251,0.00028732,0.00009447,0.00022035,0.00172178,0.00085224,0.00012940
 ,-0.00002824,0.00027250,0.00010920,-0.00001531,0.00001826,0.00000703,0
 .00024045,0.00008450,-0.00001514,-0.00003857,0.00000771,0.00005640,-0.
 00246346,0.00106250,0.01560321,-0.00070046,-0.00033746,-0.00002423,0.0
 0000718,-0.00007670,0.00003544,-0.00065257,0.00031590,0.00020616,0.000
 63670,-0.00044078,-0.00005338,-0.00005671,-0.00003601,0.00000494,-0.00
 007864,0.00003160,0.00004162,0.00000175,-0.00006108,0.00008551,0.00001
 709,0.00001767,-0.00000336,0.00001357,0.00000978,-0.00003358,-0.000001
 37,0.00000333,-0.00004231,0.00000911,0.00000454,-0.00005438,0.00000084
 ,0.00004900,-0.00005915,-0.00000146,-0.00000062,-0.00002665,-0.0000056
 9,0.00000509,-0.00001189,0.00000573,0.00000700,-0.00001717,0.00000540,
 0.00002881,-0.00000095,0.00000786,-0.00002475,0.00001547,0.00002387,0.
 00003102,0.00009086,-0.00002869,-0.00000181,0.00010490,0.00000573,-0.0
 0000589,0.00001762,0.00001085,-0.00000754,0.00000386,-0.00060735,-0.00
 206259,0.00155931,0.01171739,-0.20879780,0.04240756,-0.01241006,0.2407
 0501,-0.00026125,0.00054007,-0.00000676,0.00043919,0.00020620,0.000028
 16,-0.00051377,0.00014407,-0.00426634,-0.00009206,-0.00000770,-0.00006
 352,0.00001657,-0.00006766,0.00000108,0.00039659,0.00003450,0.00004960
 ,0.00006026,-0.00008606,0.00001387,-0.00040014,-0.00004754,0.00003228,
 0.00000913,-0.00000089,-0.00000863,0.00041157,-0.00061792,-0.00010876,
 0.00004427,0.00026103,0.00000125,-0.00000024,-0.00000042,-0.00000607,0
 .00327765,-0.00116906,-0.00156956,-0.00089220,0.00056169,0.00003761,0.
 00002787,0.00002138,-0.00001443,-0.00138995,-0.00009389,-0.00163723,0.
 00063931,0.00040564,0.00010685,-0.00003081,0.00019763,-0.00001733,0.00
 007035,0.00006098,0.00000451,-0.00016188,-0.00003806,-0.00002895,-0.00
 003045,0.00006980,-0.00001991,-0.00441903,0.02731250,-0.01212501,-0.00
 032652,-0.00020341,-0.00000161,-0.00010818,0.00018877,-0.00013907,-0.0
 0001638,0.00008099,-0.00039921,0.00036817,-0.00024429,-0.00002783,0.00
 002777,0.00006149,0.00000286,0.00017890,-0.00002850,0.00000468,0.00004
 057,0.00003865,-0.00000378,-0.00002279,-0.00001660,-0.00000139,-0.0000
 4903,-0.00003262,-0.00000250,-0.00002895,-0.00001210,0.00000519,0.0000
 0368,-0.00004054,0.00000773,-0.00000200,-0.00001304,0.00000940,-0.0000
 0132,-0.00002857,0.00000683,0.00001987,-0.00000950,0.00000402,0.000023
 95,0.00001161,0.00000341,0.00001705,0.00002556,-0.00000029,0.00004092,
 0.00000337,-0.00002491,0.00002873,0.00005200,0.00008797,-0.00004235,0.
 00003898,0.00018745,0.00000662,0.00002817,-0.00000408,-0.00003124,0.00
 001569,-0.00000183,0.00027172,-0.00112581,-0.00045389,-0.00370691,0.06
 137933,-0.06816682,0.00469265,-0.06574141,0.07653506,-0.00010680,-0.00
 035053,-0.00025865,-0.00041244,-0.00024313,-0.00032200,0.00068030,0.00
 050230,-0.00069155,0.00013291,0.00009563,0.00001452,0.00004744,-0.0000
 1815,0.00000767,-0.00053650,-0.00010851,0.00004593,-0.00004139,-0.0000
 5397,0.00002036,-0.00003749,-0.00004711,-0.00023386,-0.00010209,0.0000
 8172,-0.00002906,0.00010871,0.00036183,0.00006466,0.00014769,-0.000051
 94,0.00004473,-0.00005100,-0.00011043,-0.00001037,-0.00085539,-0.00029
 415,-0.00080510,-0.00015809,-0.00006267,-0.00002577,0.00010171,-0.0000
 2898,-0.00001617,0.00010102,-0.00028252,0.00067676,0.00009910,0.000164
 25,0.00004958,-0.00001647,0.00007055,-0.00000749,0.00005440,0.00004283
 ,-0.00002358,-0.00018853,0.00000277,-0.00005811,-0.00002917,0.00005317
 ,0.00000229,0.00263097,-0.00041185,-0.01040442,-0.00011730,0.00007148,
 0.00000628,-0.00007951,0.00010326,-0.00010280,0.00017026,0.00009851,-0
 .00000130,0.00009038,-0.00012145,-0.00001432,0.00003381,0.00002637,0.0
 0001876,0.00014738,-0.00004161,0.00003112,0.00001004,0.00000898,0.0000
 2282,-0.00002250,-0.00001380,-0.00001312,-0.00003277,-0.00002056,-0.00
 001274,-0.00001099,-0.00000561,-0.00000909,0.00000084,-0.00002946,-0.0
 0000493,0.00000147,-0.00000911,0.00000324,0.00000441,0.00000095,0.0000
 0804,0.00000312,-0.00000160,0.00000982,0.00001538,0.00001875,0.0000272
 0,0.00002582,0.00003041,0.00008556,0.00004208,0.00004064,0.00018346,-0
 .00001662,-0.00001488,0.00008872,0.00005255,0.00002610,-0.00004796,0.0
 0000600,0.00003883,-0.00001694,-0.00003030,0.00001906,-0.00001109,-0.0
 0021612,-0.00010105,-0.00000739,-0.16337836,-0.06866166,-0.04517632,0.
 00400491,-0.00320386,0.00111912,0.18351044,-0.00010907,0.00036575,-0.0
 0006665,0.00005630,-0.00017801,-0.00055743,0.00015365,-0.00004942,0.00
 026715,-0.00007239,0.00014993,0.00000494,-0.00001820,-0.00007627,-0.00
 000252,0.00011233,-0.00017617,-0.00001888,0.00006454,-0.00008357,0.000
 00171,-0.00062785,0.00050742,0.00008894,-0.00005156,-0.00006238,0.0000
 0528,0.00117508,-0.00033964,-0.00032637,-0.00017924,-0.00028419,-0.000
 00238,-0.00004512,0.00003618,0.00000489,-0.00089000,-0.00026366,-0.000
 22714,0.00037953,-0.00013193,-0.00000543,-0.00003538,0.00001403,0.0000
 0746,-0.00017511,0.00021871,0.00046752,-0.00042332,-0.00025309,0.00006
 577,0.00002790,-0.00001463,0.00001769,0.00000309,-0.00004223,-0.000027
 65,0.00004053,-0.00000901,-0.00001966,-0.00002941,0.00001370,0.0000013
 9,0.00056782,0.00241858,-0.00663375,0.00011485,0.00008722,-0.00000535,
 0.00005112,-0.00002177,0.00000945,0.00006403,-0.00014241,-0.00009437,-
 0.00007941,0.00014705,-0.00000287,-0.00004071,0.00002560,0.00000894,0.
 00002240,0.00004561,0.00001318,0.00005595,0.00002174,0.00001479,0.0000
 0150,0.00000195,-0.00000369,-0.00002320,-0.00000970,-0.00000651,-0.000
 02192,-0.00001323,-0.00000911,0.00000120,-0.00001674,-0.00000651,-0.00
 000042,-0.00003019,-0.00000911,0.00000223,-0.00001134,-0.00000603,0.00
 002218,-0.00001245,-0.00000374,0.00002053,0.00002155,-0.00000354,0.000
 00042,0.00002094,0.00000973,-0.00001125,-0.00000545,0.00009141,-0.0000
 0877,0.00003759,0.00021235,0.00002991,0.00000714,0.00007410,0.00002124
 ,0.00002759,0.00001053,-0.00001607,0.00000855,-0.00000135,0.00019861,0
 .00020577,-0.00014937,-0.06809716,-0.10176968,-0.03071904,-0.02795306,
 -0.01909933,-0.01083665,0.08640336,0.10818306,-0.00000961,-0.00007521,
 0.00004896,0.00018708,-0.00003957,-0.00002556,-0.00077578,0.00126124,-
 0.00148673,-0.00001598,-0.00023477,0.00001639,0.00003443,0.00008493,-0
 .00000202,-0.00006246,-0.00018814,-0.00006718,-0.00004488,0.00006622,-
 0.00001354,-0.00006812,-0.00003402,0.00003155,0.00003817,-0.00002695,-
 0.00000812,0.00002417,0.00004213,-0.00045876,-0.00005111,-0.00001293,-
 0.00000956,-0.00000057,0.00005483,-0.00000172,0.00206848,-0.00165359,-
 0.00097705,0.00010160,0.00007887,-0.00005976,-0.00003440,0.00004156,-0
 .00000230,-0.00018880,-0.00010947,-0.00416232,-0.00020030,0.00023852,0
 .00006466,-0.00005833,0.00001292,0.00000408,-0.00002692,0.00004235,0.0
 0015159,0.00006209,-0.00014032,0.00012872,0.00011932,0.00000110,-0.000
 00832,-0.02231430,-0.01222925,-0.01300948,0.00001023,-0.00003212,0.000
 00334,-0.00010901,0.00007088,-0.00003306,0.00022698,-0.00019342,-0.000
 03598,0.00000143,-0.00012052,-0.00002145,0.00006218,-0.00004899,-0.000
 00639,-0.00012967,0.00000467,0.00000242,-0.00004459,0.00010948,-0.0000
 1259,-0.00002867,-0.00001340,0.00000156,0.00001332,0.00000315,-0.00002
 769,-0.00000915,-0.00000661,0.00000727,-0.00000023,-0.00001006,0.00000
 420,0.00000227,-0.00001109,0.00000114,-0.00000190,-0.00002109,0.000001
 98,0.00002050,-0.00000810,0.00000186,0.00002046,0.00000596,0.00000345,
 0.00003633,0.00003154,0.00000657,0.00005983,0.00004098,-0.00003719,-0.
 00001407,0.00005807,-0.00008905,0.00004719,0.00008339,-0.00007574,-0.0
 0002071,0.00002361,-0.00000204,-0.00001370,0.00001280,0.00000049,-0.00
 003799,0.00011282,-0.00012502,-0.05981170,-0.04041293,-0.07752890,0.00
 718428,0.00361065,0.00617572,0.06497483,0.04278896,0.08481519,-0.00011
 582,0.00021770,-0.00006681,0.00002779,0.00013460,-0.00003161,-0.000359
 69,-0.00020028,0.00028963,-0.00018137,0.00012035,-0.00004697,-0.000036
 40,-0.00006188,0.00003685,0.00025642,0.00003377,0.00045332,0.00010139,
 -0.00007705,0.00013521,0.00025524,-0.00036819,-0.00006140,0.00001218,0
 .00006168,-0.00000870,-0.00050101,-0.00032160,0.00017379,0.00018525,0.
 00036358,0.00001130,0.00002983,-0.00008278,-0.00000656,0.00157131,-0.0
 0011988,-0.00071220,-0.00081346,0.00032103,0.00005454,0.00008184,-0.00
 005311,-0.00000930,0.00021425,-0.00010299,0.00011377,0.00077281,0.0006
 9593,-0.00008605,-0.00004584,0.00008940,-0.00001249,-0.00002009,0.0000
 0942,-0.00002198,-0.00022245,-0.00003261,-0.00004001,0.00002088,0.0000
 5128,0.00000649,-0.00010188,0.00058346,0.01119985,-0.00028391,-0.00012
 228,0.00000603,-0.00010428,-0.00003158,0.00031119,0.00008463,0.0002956
 7,0.00002289,0.00023502,-0.00038582,-0.00001145,0.00000046,0.00005367,
 0.00007617,0.00009995,-0.00003240,0.00009902,-0.00009424,-0.00001590,0
 .00003300,0.00000095,-0.00000463,-0.00004871,0.00001136,-0.00000167,-0
 .00005148,0.00002891,0.00001118,-0.00001502,-0.00000096,-0.00000621,-0
 .00000543,0.00000236,0.00003855,0.00000400,0.00000224,0.00002048,0.000
 00454,-0.00002643,0.00001497,0.00000462,-0.00001464,-0.00000873,0.0000
 0684,-0.00001618,-0.00000801,0.00002155,0.00000450,-0.00000533,0.00001
 906,0.00003041,-0.00002314,0.00003862,-0.00001071,-0.00006076,-0.00006
 794,0.00001809,-0.00000350,-0.00008215,-0.00000415,0.00000256,-0.00004
 424,-0.00005607,-0.00091309,0.00014489,-0.18279832,0.05843237,0.049131
 53,-0.00075054,0.00523533,0.00029626,-0.02579039,0.00932081,0.00877834
 ,0.20830130,0.00001729,0.00028329,0.00004368,0.00019076,-0.00005165,-0
 .00012519,-0.00042948,-0.00015201,0.00029494,0.00007101,0.00008704,0.0
 0000554,0.00000252,-0.00006152,-0.00001237,0.00019801,-0.00011805,-0.0
 0040788,-0.00001103,-0.00007251,-0.00007153,-0.00028927,0.00020367,0.0
 0003711,-0.00001911,-0.00003103,0.00000911,0.00045108,-0.00028580,-0.0
 0008990,-0.00007750,-0.00005473,-0.00000067,-0.00001735,0.00001231,0.0
 0000261,-0.00022435,0.00035190,0.00033391,-0.00000487,0.00003727,-0.00
 006530,-0.00000790,-0.00000170,0.00000577,-0.00023847,-0.00033358,-0.0
 0073010,-0.00007923,-0.00000703,0.00002309,0.00001917,0.00002881,0.000
 00856,-0.00000052,0.00001848,0.00000900,-0.00004143,-0.00002693,-0.000
 00371,-0.00002514,0.00001769,0.00000642,-0.00001394,0.00226770,-0.0049
 2324,-0.00000254,0.00000472,0.00000903,-0.00011626,-0.00001280,-0.0001
 9053,0.00004739,-0.00008661,-0.00006694,0.00000535,0.00000422,-0.00000
 536,-0.00004246,-0.00000031,-0.00000067,0.00008912,0.00000445,0.000030
 93,0.00003611,0.00002418,0.00002496,0.00000885,0.00000702,0.00000188,-
 0.00003140,-0.00001280,-0.00001933,-0.00001645,-0.00000767,-0.00001354
 ,0.00000037,-0.00001644,-0.00000855,-0.00000101,-0.00001558,-0.0000073
 4,0.00000267,-0.00000855,-0.00000371,0.00001094,-0.00000677,-0.0000030
 8,0.00001220,0.00000936,-0.00000381,-0.00000461,0.00000642,-0.00000235
 ,-0.00000993,-0.00001168,0.00000054,-0.00002543,0.00003737,0.00007482,
 -0.00000287,0.00002055,0.00014955,0.00001900,0.00002989,0.00005674,-0.
 00001467,0.00000669,0.00001456,0.00016896,-0.00000940,-0.00018290,0.05
 811641,-0.08576128,-0.02316593,0.02931456,-0.01266573,-0.01127428,-0.0
 1397331,0.01052827,0.00673811,-0.07306544,0.08581663,-0.00044027,0.000
 33316,-0.00003308,0.00031028,-0.00011204,0.00012247,0.00026088,0.00140
 107,-0.00111034,-0.00042912,-0.00005729,0.00001082,0.00002755,-0.00010
 701,0.00000015,0.00025924,-0.00037149,0.00012881,0.00018399,-0.0001256
 3,0.00003467,0.00074107,-0.00133245,0.00005691,0.00008000,0.00017206,-
 0.00002076,-0.00177936,-0.00062689,-0.00006417,0.00057639,0.00121895,-
 0.00001231,0.00008520,-0.00016564,-0.00000792,0.00638730,-0.00234334,-
 0.00626131,-0.00263312,0.00126944,0.00044607,0.00019396,-0.00005272,-0
 .00001881,-0.00028955,-0.00222545,-0.00172334,0.00263274,0.00199656,-0
 .00004407,-0.00013364,0.00039755,-0.00001276,0.00021046,0.00021849,0.0
 0004267,-0.00069124,0.00003350,-0.00008292,0.00000513,0.00009431,0.000
 01157,0.01636006,-0.00772190,-0.00519678,-0.00095084,-0.00052742,-0.00
 003299,-0.00058247,0.00032685,-0.00032138,0.00047266,0.00117142,-0.000
 04712,0.00085957,-0.00104486,-0.00006905,0.00012666,0.00016439,0.00000
 623,0.00042792,-0.00021419,0.00003813,-0.00009053,-0.00002796,0.000017
 91,-0.00005614,-0.00003800,-0.00000802,-0.00005054,-0.00003480,-0.0000
 1393,0.00001440,0.00001839,-0.00000341,-0.00000213,-0.00002840,-0.0000
 0476,-0.00000068,0.00007031,0.00000614,-0.00000083,-0.00000291,0.00000
 232,-0.00002579,0.00001768,0.00000359,-0.00000369,-0.00001685,-0.00000
 230,0.00000176,0.00001573,0.00003751,0.00008824,0.00004681,-0.00003859
 ,-0.00004347,0.00003444,-0.00006745,0.00003831,0.00009325,-0.00011150,
 -0.00000376,0.00006632,-0.00002018,-0.00004612,0.00003316,-0.00000640,
 -0.00031569,-0.00253796,0.00023184,0.06551668,-0.03055629,-0.08034592,
 -0.00804412,0.00200846,0.00579205,-0.00920224,0.00557801,0.00681157,-0
 .07004109,0.03349611,0.08187675||0.00002319,-0.00000953,-0.00002838,-0
 .00000494,0.00000829,0.00001730,-0.00001695,-0.00001951,0.00001352,-0.
 00000322,0.00000702,-0.00000371,-0.00000389,0.00002483,0.00001766,0.00
 000622,0.00000095,0.00001687,-0.00000496,0.00000061,-0.00000168,0.0000
 0318,-0.00000197,-0.00000428,-0.00000436,0.00000971,-0.00000602,0.0000
 0220,0.00001585,0.00002250,-0.00000268,-0.00000501,-0.00000601,0.00000
 791,-0.00000419,0.00001493,-0.00002017,-0.00000194,-0.00000279,0.00001
 769,0.00000053,0.00000160,-0.00000660,-0.00000600,0.00000545,0.0000224
 8,0.00003137,0.00004589,0.00001011,-0.00001647,0.00000319,-0.00000394,
 -0.00000313,0.00001670,-0.00000436,-0.00001930,0.00002909,-0.00001613,
 -0.00000538,0.00000864,-0.00000444,0.00000538,-0.00004375,0.00000627,-
 0.00000358,-0.00001516,0.00000425,0.00000096,-0.00000296,0.00001201,-0
 .00001211,-0.00005308,-0.00001318,0.00000026,-0.00002738,0.00000217,-0
 .00000071,0.00000918,-0.00000010,-0.00002559,-0.00000741,-0.00000513,0
 .00000789,0.00002606,0.00000207,-0.00000896,0.00001515,-0.00000667,-0.
 00000202,-0.00000396,0.00000420,0.00000287,-0.00001554,0.00000105,0.00
 000054,-0.00000410,-0.00000185,-0.00000328,0.00001464,-0.00000060,-0.0
 0000330,-0.00000730,-0.00000037,-0.00000598,-0.00000499,0.00000380,-0.
 00000252,-0.00000743,0.00000269,0.00000316,0.00000181,-0.00000047,0.00
 000565,0.00000097,-0.00000296,0.00000039,0.00000663,0.00000449,0.00000
 462,-0.00000965,0.00000863,0.00000524,-0.00000524,0.00000117,0.0000017
 4,-0.00000171,-0.00000080,0.00000271,-0.00000838,-0.00000861,0.0000170
 7,-0.00000624,-0.00000074,0.00001099,-0.00000419,0.00000049,-0.0000005
 2,-0.00000493,-0.00000129,-0.00000613,-0.00000565,-0.00000682,-0.00000
 146,0.00000413|||@


 EXPERIENCE IS A WONDERFUL THING.  IT ENABLES
 YOU TO RECOGNIZE A MISTAKE WHEN YOU MAKE IT AGAIN.
           - BACK OF A SUGAR PACKET
 Job cpu time:       0 days  0 hours  0 minutes 12.0 seconds.
 File lengths (MBytes):  RWF=    800 Int=      0 D2E=      0 Chk=      5 Scr=      1
 Normal termination of Gaussian 09 at Fri Mar 13 11:53:54 2026.
