 Entering Link 1 = C:\Gaussian\G09W\l1.exe PID=      3528.
  
 Copyright (c) 1988,1990,1992,1993,1995,1998,2003,2009,2013,
            Gaussian, Inc.  All Rights Reserved.
  
 This is part of the Gaussian(R) 09 program.  It is based on
 the Gaussian(R) 03 system (copyright 2003, Gaussian, Inc.),
 the Gaussian(R) 98 system (copyright 1998, Gaussian, Inc.),
 the Gaussian(R) 94 system (copyright 1995, Gaussian, Inc.),
 the Gaussian 92(TM) system (copyright 1992, Gaussian, Inc.),
 the Gaussian 90(TM) system (copyright 1990, Gaussian, Inc.),
 the Gaussian 88(TM) system (copyright 1988, Gaussian, Inc.),
 the Gaussian 86(TM) system (copyright 1986, Carnegie Mellon
 University), and the Gaussian 82(TM) system (copyright 1983,
 Carnegie Mellon University). Gaussian is a federally registered
 trademark of Gaussian, Inc.
  
 This software contains proprietary and confidential information,
 including trade secrets, belonging to Gaussian, Inc.
  
 This software is provided under written license and may be
 used, copied, transmitted, or stored only in accord with that
 written license.
  
 The following legend is applicable only to US Government
 contracts under FAR:
  
                    RESTRICTED RIGHTS LEGEND
  
 Use, reproduction and disclosure by the US Government is
 subject to restrictions as set forth in subparagraphs (a)
 and (c) of the Commercial Computer Software - Restricted
 Rights clause in FAR 52.227-19.
  
 Gaussian, Inc.
 340 Quinnipiac St., Bldg. 40, Wallingford CT 06492
  
  
 ---------------------------------------------------------------
 Warning -- This program may not be used in any manner that
 competes with the business of Gaussian, Inc. or will provide
 assistance to any competitor of Gaussian, Inc.  The licensee
 of this program is prohibited from giving any competitor of
 Gaussian, Inc. access to this program.  By using this program,
 the user acknowledges that Gaussian, Inc. is engaged in the
 business of creating and licensing software in the field of
 computational chemistry and represents and warrants to the
 licensee that it is not a competitor of Gaussian, Inc. and that
 it will not use this program in any manner prohibited above.
 ---------------------------------------------------------------
  

 Cite this work as:
 Gaussian 09, Revision D.01,
 M. J. Frisch, G. W. Trucks, H. B. Schlegel, G. E. Scuseria, 
 M. A. Robb, J. R. Cheeseman, G. Scalmani, V. Barone, B. Mennucci, 
 G. A. Petersson, H. Nakatsuji, M. Caricato, X. Li, H. P. Hratchian, 
 A. F. Izmaylov, J. Bloino, G. Zheng, J. L. Sonnenberg, M. Hada, 
 M. Ehara, K. Toyota, R. Fukuda, J. Hasegawa, M. Ishida, T. Nakajima, 
 Y. Honda, O. Kitao, H. Nakai, T. Vreven, J. A. Montgomery, Jr., 
 J. E. Peralta, F. Ogliaro, M. Bearpark, J. J. Heyd, E. Brothers, 
 K. N. Kudin, V. N. Staroverov, T. Keith, R. Kobayashi, J. Normand, 
 K. Raghavachari, A. Rendell, J. C. Burant, S. S. Iyengar, J. Tomasi, 
 M. Cossi, N. Rega, J. M. Millam, M. Klene, J. E. Knox, J. B. Cross, 
 V. Bakken, C. Adamo, J. Jaramillo, R. Gomperts, R. E. Stratmann, 
 O. Yazyev, A. J. Austin, R. Cammi, C. Pomelli, J. W. Ochterski, 
 R. L. Martin, K. Morokuma, V. G. Zakrzewski, G. A. Voth, 
 P. Salvador, J. J. Dannenberg, S. Dapprich, A. D. Daniels, 
 O. Farkas, J. B. Foresman, J. V. Ortiz, J. Cioslowski, 
 and D. J. Fox, Gaussian, Inc., Wallingford CT, 2013.
 
 ******************************************
 Gaussian 09:  IA32W-G09RevD.01 24-Apr-2013
                14-Mar-2026 
 ******************************************
 %chk=C:\Users\User\Desktop\IMRG\ECE+ML\B_Gr_NS_NO.chk
 ---------------------------------------
 # opt freq pm6 scf=qc geom=connectivity
 ---------------------------------------
 1/14=-1,18=20,19=15,26=1,38=1,57=2/1,3;
 2/9=110,12=2,17=6,18=5,40=1/2;
 3/5=2,16=1,25=1,41=3900000,71=1/1,2,3;
 4/35=1/1;
 5/5=2,8=3,35=1,38=5/8;
 6/7=2,8=2,9=2,10=2,28=1/1;
 7//1,2,3,16;
 1/14=-1,18=20,19=15,26=1/3(2);
 2/9=110/2;
 99//99;
 2/9=110/2;
 3/5=2,16=1,25=1,41=3900000,71=1,135=20/1,2,3;
 4/5=5,16=3,35=1/1;
 5/5=2,8=3,35=1,38=5/8;
 7//1,2,3,16;
 1/14=-1,18=20,19=15,26=1/3(-5);
 2/9=110/2;
 6/7=2,8=2,9=2,10=2,19=2,28=1/1;
 99/9=1/99;
 ----------
 B_Gr_NS_NO
 ----------
 Symbolic Z-matrix:
 Charge =  0 Multiplicity = 1
 C                     0.17695   1.02371   2.99497 
 C                     1.43495   0.29741   2.57781 
 C                     2.69295   1.02371   2.99497 
 C                     5.20895   1.02371   2.99497 
 C                     7.72495   1.02371   2.99497 
 C                     3.95095   0.29741   2.57781 
 C                     6.46695   0.29741   2.57781 
 C                    -1.08105   3.20263   2.99497 
 C                    -2.33905   5.38155   2.99497 
 C                     0.17695   2.47633   2.57781 
 C                    -1.08105   4.65525   2.57781 
 C                    -2.33905   6.83417   2.57781 
 C                     1.43495   3.20263   2.99497 
 C                     0.17695   5.38155   2.99497 
 C                    -1.08105   7.56047   2.99497 
 C                     3.95095   3.20263   2.99497 
 C                     2.69295   5.38155   2.99497 
 C                     1.43495   7.56047   2.99497 
 C                     6.46695   3.20263   2.99497 
 C                     5.20895   5.38155   2.99497 
 C                     3.95095   7.56047   2.99497 
 C                     2.69295   2.47633   2.57781 
 C                     0.17695   6.83417   2.57781 
 C                     5.20895   2.47633   2.57781 
 C                     3.95095   4.65525   2.57781 
 C                     2.69295   6.83417   2.57781 
 C                     7.72495   2.47633   2.57781 
 C                     6.46695   4.65525   2.57781 
 C                     5.20895   6.83417   2.57781 
 H                     8.6156    2.99054   2.87315 
 H                     7.3576    5.16946   2.87315 
 H                     6.0996    7.34838   2.87315 
 H                     3.95095   8.58891   2.69962 
 H                     1.43495   8.58891   2.69962 
 H                    -1.08105   8.58891   2.69962 
 H                    -3.2297    7.34838   2.87315 
 H                    -3.2297    4.86734   2.69962 
 H                    -1.9717    2.68842   2.69962 
 H                    -0.7137    0.5095    2.69962 
 H                     1.43495  -0.73103   2.87315 
 H                     3.95095  -0.73103   2.87315 
 H                     6.49522  -0.60455   3.15277 
 H                     8.37341   0.35071   3.51599 
 B                     1.43495   4.65525   2.57781 
 N                     2.67956   4.11295   2.79315 
 O                     2.67956   4.11295   3.92788 
 
 Add virtual bond connecting atoms N45        and C17        Dist= 2.43D+00.
 Add virtual bond connecting atoms N45        and C25        Dist= 2.64D+00.
 Add virtual bond connecting atoms N45        and B44        Dist= 2.60D+00.

 GradGradGradGradGradGradGradGradGradGradGradGradGradGradGradGradGradGrad
 Berny optimization.
 Initialization pass.
                           ----------------------------
                           !    Initial Parameters    !
                           ! (Angstroms and Degrees)  !
 --------------------------                            --------------------------
 ! Name  Definition              Value          Derivative Info.                !
 --------------------------------------------------------------------------------
 ! R1    R(1,2)                  1.5113         estimate D2E/DX2                !
 ! R2    R(1,10)                 1.5113         estimate D2E/DX2                !
 ! R3    R(1,39)                 1.07           estimate D2E/DX2                !
 ! R4    R(2,3)                  1.5113         estimate D2E/DX2                !
 ! R5    R(2,40)                 1.07           estimate D2E/DX2                !
 ! R6    R(3,6)                  1.5113         estimate D2E/DX2                !
 ! R7    R(3,22)                 1.5113         estimate D2E/DX2                !
 ! R8    R(4,6)                  1.5113         estimate D2E/DX2                !
 ! R9    R(4,7)                  1.5113         estimate D2E/DX2                !
 ! R10   R(4,24)                 1.5113         estimate D2E/DX2                !
 ! R11   R(5,7)                  1.5113         estimate D2E/DX2                !
 ! R12   R(5,27)                 1.5113         estimate D2E/DX2                !
 ! R13   R(5,43)                 1.07           estimate D2E/DX2                !
 ! R14   R(6,41)                 1.07           estimate D2E/DX2                !
 ! R15   R(7,42)                 1.07           estimate D2E/DX2                !
 ! R16   R(8,10)                 1.5113         estimate D2E/DX2                !
 ! R17   R(8,11)                 1.5113         estimate D2E/DX2                !
 ! R18   R(8,38)                 1.07           estimate D2E/DX2                !
 ! R19   R(9,11)                 1.5113         estimate D2E/DX2                !
 ! R20   R(9,12)                 1.5113         estimate D2E/DX2                !
 ! R21   R(9,37)                 1.07           estimate D2E/DX2                !
 ! R22   R(10,13)                1.5113         estimate D2E/DX2                !
 ! R23   R(11,14)                1.5113         estimate D2E/DX2                !
 ! R24   R(12,15)                1.5113         estimate D2E/DX2                !
 ! R25   R(12,36)                1.07           estimate D2E/DX2                !
 ! R26   R(13,22)                1.5113         estimate D2E/DX2                !
 ! R27   R(13,44)                1.5113         estimate D2E/DX2                !
 ! R28   R(14,23)                1.5113         estimate D2E/DX2                !
 ! R29   R(14,44)                1.5113         estimate D2E/DX2                !
 ! R30   R(15,23)                1.5113         estimate D2E/DX2                !
 ! R31   R(15,35)                1.07           estimate D2E/DX2                !
 ! R32   R(16,22)                1.5113         estimate D2E/DX2                !
 ! R33   R(16,24)                1.5113         estimate D2E/DX2                !
 ! R34   R(16,25)                1.5113         estimate D2E/DX2                !
 ! R35   R(17,25)                1.5113         estimate D2E/DX2                !
 ! R36   R(17,26)                1.5113         estimate D2E/DX2                !
 ! R37   R(17,44)                1.5113         estimate D2E/DX2                !
 ! R38   R(17,45)                1.2846         estimate D2E/DX2                !
 ! R39   R(18,23)                1.5113         estimate D2E/DX2                !
 ! R40   R(18,26)                1.5113         estimate D2E/DX2                !
 ! R41   R(18,34)                1.07           estimate D2E/DX2                !
 ! R42   R(19,24)                1.5113         estimate D2E/DX2                !
 ! R43   R(19,27)                1.5113         estimate D2E/DX2                !
 ! R44   R(19,28)                1.5113         estimate D2E/DX2                !
 ! R45   R(20,25)                1.5113         estimate D2E/DX2                !
 ! R46   R(20,28)                1.5113         estimate D2E/DX2                !
 ! R47   R(20,29)                1.5113         estimate D2E/DX2                !
 ! R48   R(21,26)                1.5113         estimate D2E/DX2                !
 ! R49   R(21,29)                1.5113         estimate D2E/DX2                !
 ! R50   R(21,33)                1.07           estimate D2E/DX2                !
 ! R51   R(25,45)                1.3989         estimate D2E/DX2                !
 ! R52   R(27,30)                1.07           estimate D2E/DX2                !
 ! R53   R(28,31)                1.07           estimate D2E/DX2                !
 ! R54   R(29,32)                1.07           estimate D2E/DX2                !
 ! R55   R(44,45)                1.3746         estimate D2E/DX2                !
 ! R56   R(45,46)                1.1347         estimate D2E/DX2                !
 ! A1    A(2,1,10)             112.6884         estimate D2E/DX2                !
 ! A2    A(2,1,39)             112.6884         estimate D2E/DX2                !
 ! A3    A(10,1,39)            112.6884         estimate D2E/DX2                !
 ! A4    A(1,2,3)              112.6884         estimate D2E/DX2                !
 ! A5    A(1,2,40)             112.6884         estimate D2E/DX2                !
 ! A6    A(3,2,40)             112.6884         estimate D2E/DX2                !
 ! A7    A(2,3,6)              112.6884         estimate D2E/DX2                !
 ! A8    A(2,3,22)             112.6884         estimate D2E/DX2                !
 ! A9    A(6,3,22)             112.6884         estimate D2E/DX2                !
 ! A10   A(6,4,7)              112.6884         estimate D2E/DX2                !
 ! A11   A(6,4,24)             112.6884         estimate D2E/DX2                !
 ! A12   A(7,4,24)             112.6884         estimate D2E/DX2                !
 ! A13   A(7,5,27)             112.6884         estimate D2E/DX2                !
 ! A14   A(7,5,43)             109.6693         estimate D2E/DX2                !
 ! A15   A(27,5,43)            137.6415         estimate D2E/DX2                !
 ! A16   A(3,6,4)              112.6884         estimate D2E/DX2                !
 ! A17   A(3,6,41)             112.6884         estimate D2E/DX2                !
 ! A18   A(4,6,41)             112.6884         estimate D2E/DX2                !
 ! A19   A(4,7,5)              112.6884         estimate D2E/DX2                !
 ! A20   A(4,7,42)             106.187          estimate D2E/DX2                !
 ! A21   A(5,7,42)             103.5792         estimate D2E/DX2                !
 ! A22   A(10,8,11)            112.6884         estimate D2E/DX2                !
 ! A23   A(10,8,38)            112.6884         estimate D2E/DX2                !
 ! A24   A(11,8,38)            112.6884         estimate D2E/DX2                !
 ! A25   A(11,9,12)            112.6884         estimate D2E/DX2                !
 ! A26   A(11,9,37)            112.6884         estimate D2E/DX2                !
 ! A27   A(12,9,37)            112.6884         estimate D2E/DX2                !
 ! A28   A(1,10,8)             112.6884         estimate D2E/DX2                !
 ! A29   A(1,10,13)            112.6884         estimate D2E/DX2                !
 ! A30   A(8,10,13)            112.6884         estimate D2E/DX2                !
 ! A31   A(8,11,9)             112.6884         estimate D2E/DX2                !
 ! A32   A(8,11,14)            112.6884         estimate D2E/DX2                !
 ! A33   A(9,11,14)            112.6884         estimate D2E/DX2                !
 ! A34   A(9,12,15)            112.6884         estimate D2E/DX2                !
 ! A35   A(9,12,36)            112.6884         estimate D2E/DX2                !
 ! A36   A(15,12,36)           112.6884         estimate D2E/DX2                !
 ! A37   A(10,13,22)           112.6884         estimate D2E/DX2                !
 ! A38   A(10,13,44)           112.6884         estimate D2E/DX2                !
 ! A39   A(22,13,44)           112.6884         estimate D2E/DX2                !
 ! A40   A(11,14,23)           112.6884         estimate D2E/DX2                !
 ! A41   A(11,14,44)           112.6884         estimate D2E/DX2                !
 ! A42   A(23,14,44)           112.6884         estimate D2E/DX2                !
 ! A43   A(12,15,23)           112.6884         estimate D2E/DX2                !
 ! A44   A(12,15,35)           112.6884         estimate D2E/DX2                !
 ! A45   A(23,15,35)           112.6884         estimate D2E/DX2                !
 ! A46   A(22,16,24)           112.6884         estimate D2E/DX2                !
 ! A47   A(22,16,25)           112.6884         estimate D2E/DX2                !
 ! A48   A(24,16,25)           112.6884         estimate D2E/DX2                !
 ! A49   A(25,17,26)           112.6884         estimate D2E/DX2                !
 ! A50   A(25,17,44)           112.6884         estimate D2E/DX2                !
 ! A51   A(26,17,44)           112.6884         estimate D2E/DX2                !
 ! A52   A(26,17,45)           154.9312         estimate D2E/DX2                !
 ! A53   A(23,18,26)           112.6884         estimate D2E/DX2                !
 ! A54   A(23,18,34)           112.6884         estimate D2E/DX2                !
 ! A55   A(26,18,34)           112.6884         estimate D2E/DX2                !
 ! A56   A(24,19,27)           112.6884         estimate D2E/DX2                !
 ! A57   A(24,19,28)           112.6884         estimate D2E/DX2                !
 ! A58   A(27,19,28)           112.6884         estimate D2E/DX2                !
 ! A59   A(25,20,28)           112.6884         estimate D2E/DX2                !
 ! A60   A(25,20,29)           112.6884         estimate D2E/DX2                !
 ! A61   A(28,20,29)           112.6884         estimate D2E/DX2                !
 ! A62   A(26,21,29)           112.6884         estimate D2E/DX2                !
 ! A63   A(26,21,33)           112.6884         estimate D2E/DX2                !
 ! A64   A(29,21,33)           112.6884         estimate D2E/DX2                !
 ! A65   A(3,22,13)            112.6884         estimate D2E/DX2                !
 ! A66   A(3,22,16)            112.6884         estimate D2E/DX2                !
 ! A67   A(13,22,16)           112.6884         estimate D2E/DX2                !
 ! A68   A(14,23,15)           112.6884         estimate D2E/DX2                !
 ! A69   A(14,23,18)           112.6884         estimate D2E/DX2                !
 ! A70   A(15,23,18)           112.6884         estimate D2E/DX2                !
 ! A71   A(4,24,16)            112.6884         estimate D2E/DX2                !
 ! A72   A(4,24,19)            112.6884         estimate D2E/DX2                !
 ! A73   A(16,24,19)           112.6884         estimate D2E/DX2                !
 ! A74   A(16,25,17)           112.6884         estimate D2E/DX2                !
 ! A75   A(16,25,20)           112.6884         estimate D2E/DX2                !
 ! A76   A(16,25,45)            65.4748         estimate D2E/DX2                !
 ! A77   A(17,25,20)           112.6884         estimate D2E/DX2                !
 ! A78   A(20,25,45)           154.2013         estimate D2E/DX2                !
 ! A79   A(17,26,18)           112.6884         estimate D2E/DX2                !
 ! A80   A(17,26,21)           112.6884         estimate D2E/DX2                !
 ! A81   A(18,26,21)           112.6884         estimate D2E/DX2                !
 ! A82   A(5,27,19)            112.6884         estimate D2E/DX2                !
 ! A83   A(5,27,30)            112.6884         estimate D2E/DX2                !
 ! A84   A(19,27,30)           112.6884         estimate D2E/DX2                !
 ! A85   A(19,28,20)           112.6884         estimate D2E/DX2                !
 ! A86   A(19,28,31)           112.6884         estimate D2E/DX2                !
 ! A87   A(20,28,31)           112.6884         estimate D2E/DX2                !
 ! A88   A(20,29,21)           112.6884         estimate D2E/DX2                !
 ! A89   A(20,29,32)           112.6884         estimate D2E/DX2                !
 ! A90   A(21,29,32)           112.6884         estimate D2E/DX2                !
 ! A91   A(13,44,14)           112.6884         estimate D2E/DX2                !
 ! A92   A(13,44,17)           112.6884         estimate D2E/DX2                !
 ! A93   A(13,44,45)            65.0121         estimate D2E/DX2                !
 ! A94   A(14,44,17)           112.6884         estimate D2E/DX2                !
 ! A95   A(14,44,45)           154.1612         estimate D2E/DX2                !
 ! A96   A(17,45,46)            80.9612         estimate D2E/DX2                !
 ! A97   A(25,45,44)           130.2302         estimate D2E/DX2                !
 ! A98   A(25,45,46)            98.8551         estimate D2E/DX2                !
 ! A99   A(44,45,46)            99.0128         estimate D2E/DX2                !
 ! D1    D(10,1,2,3)            51.1032         estimate D2E/DX2                !
 ! D2    D(10,1,2,40)          180.0            estimate D2E/DX2                !
 ! D3    D(39,1,2,3)           180.0            estimate D2E/DX2                !
 ! D4    D(39,1,2,40)          -51.1032         estimate D2E/DX2                !
 ! D5    D(2,1,10,8)           180.0            estimate D2E/DX2                !
 ! D6    D(2,1,10,13)          -51.1032         estimate D2E/DX2                !
 ! D7    D(39,1,10,8)           51.1032         estimate D2E/DX2                !
 ! D8    D(39,1,10,13)         180.0            estimate D2E/DX2                !
 ! D9    D(1,2,3,6)            180.0            estimate D2E/DX2                !
 ! D10   D(1,2,3,22)           -51.1032         estimate D2E/DX2                !
 ! D11   D(40,2,3,6)            51.1032         estimate D2E/DX2                !
 ! D12   D(40,2,3,22)         -180.0            estimate D2E/DX2                !
 ! D13   D(2,3,6,4)            180.0            estimate D2E/DX2                !
 ! D14   D(2,3,6,41)           -51.1032         estimate D2E/DX2                !
 ! D15   D(22,3,6,4)            51.1032         estimate D2E/DX2                !
 ! D16   D(22,3,6,41)          180.0            estimate D2E/DX2                !
 ! D17   D(2,3,22,13)           51.1032         estimate D2E/DX2                !
 ! D18   D(2,3,22,16)          180.0            estimate D2E/DX2                !
 ! D19   D(6,3,22,13)          180.0            estimate D2E/DX2                !
 ! D20   D(6,3,22,16)          -51.1032         estimate D2E/DX2                !
 ! D21   D(7,4,6,3)            180.0            estimate D2E/DX2                !
 ! D22   D(7,4,6,41)            51.1032         estimate D2E/DX2                !
 ! D23   D(24,4,6,3)           -51.1032         estimate D2E/DX2                !
 ! D24   D(24,4,6,41)          180.0            estimate D2E/DX2                !
 ! D25   D(6,4,7,5)            180.0            estimate D2E/DX2                !
 ! D26   D(6,4,7,42)           -67.2727         estimate D2E/DX2                !
 ! D27   D(24,4,7,5)            51.1032         estimate D2E/DX2                !
 ! D28   D(24,4,7,42)          163.8304         estimate D2E/DX2                !
 ! D29   D(6,4,24,16)           51.1032         estimate D2E/DX2                !
 ! D30   D(6,4,24,19)          180.0            estimate D2E/DX2                !
 ! D31   D(7,4,24,16)          180.0            estimate D2E/DX2                !
 ! D32   D(7,4,24,19)          -51.1032         estimate D2E/DX2                !
 ! D33   D(27,5,7,4)           -51.1032         estimate D2E/DX2                !
 ! D34   D(27,5,7,42)         -165.4227         estimate D2E/DX2                !
 ! D35   D(43,5,7,4)           128.6399         estimate D2E/DX2                !
 ! D36   D(43,5,7,42)           14.3203         estimate D2E/DX2                !
 ! D37   D(7,5,27,19)           51.1032         estimate D2E/DX2                !
 ! D38   D(7,5,27,30)          180.0            estimate D2E/DX2                !
 ! D39   D(43,5,27,19)        -128.5377         estimate D2E/DX2                !
 ! D40   D(43,5,27,30)           0.3591         estimate D2E/DX2                !
 ! D41   D(11,8,10,1)          180.0            estimate D2E/DX2                !
 ! D42   D(11,8,10,13)          51.1032         estimate D2E/DX2                !
 ! D43   D(38,8,10,1)          -51.1032         estimate D2E/DX2                !
 ! D44   D(38,8,10,13)        -180.0            estimate D2E/DX2                !
 ! D45   D(10,8,11,9)          180.0            estimate D2E/DX2                !
 ! D46   D(10,8,11,14)         -51.1032         estimate D2E/DX2                !
 ! D47   D(38,8,11,9)           51.1032         estimate D2E/DX2                !
 ! D48   D(38,8,11,14)         180.0            estimate D2E/DX2                !
 ! D49   D(12,9,11,8)         -180.0            estimate D2E/DX2                !
 ! D50   D(12,9,11,14)          51.1032         estimate D2E/DX2                !
 ! D51   D(37,9,11,8)          -51.1032         estimate D2E/DX2                !
 ! D52   D(37,9,11,14)         180.0            estimate D2E/DX2                !
 ! D53   D(11,9,12,15)         -51.1032         estimate D2E/DX2                !
 ! D54   D(11,9,12,36)        -180.0            estimate D2E/DX2                !
 ! D55   D(37,9,12,15)         180.0            estimate D2E/DX2                !
 ! D56   D(37,9,12,36)          51.1032         estimate D2E/DX2                !
 ! D57   D(1,10,13,22)          51.1032         estimate D2E/DX2                !
 ! D58   D(1,10,13,44)         180.0            estimate D2E/DX2                !
 ! D59   D(8,10,13,22)         180.0            estimate D2E/DX2                !
 ! D60   D(8,10,13,44)         -51.1032         estimate D2E/DX2                !
 ! D61   D(8,11,14,23)         180.0            estimate D2E/DX2                !
 ! D62   D(8,11,14,44)          51.1032         estimate D2E/DX2                !
 ! D63   D(9,11,14,23)         -51.1032         estimate D2E/DX2                !
 ! D64   D(9,11,14,44)         180.0            estimate D2E/DX2                !
 ! D65   D(9,12,15,23)          51.1032         estimate D2E/DX2                !
 ! D66   D(9,12,15,35)         180.0            estimate D2E/DX2                !
 ! D67   D(36,12,15,23)        180.0            estimate D2E/DX2                !
 ! D68   D(36,12,15,35)        -51.1032         estimate D2E/DX2                !
 ! D69   D(10,13,22,3)         -51.1032         estimate D2E/DX2                !
 ! D70   D(10,13,22,16)        180.0            estimate D2E/DX2                !
 ! D71   D(44,13,22,3)         180.0            estimate D2E/DX2                !
 ! D72   D(44,13,22,16)         51.1032         estimate D2E/DX2                !
 ! D73   D(10,13,44,14)         51.1032         estimate D2E/DX2                !
 ! D74   D(10,13,44,17)        180.0            estimate D2E/DX2                !
 ! D75   D(10,13,44,45)       -157.0838         estimate D2E/DX2                !
 ! D76   D(22,13,44,14)       -180.0            estimate D2E/DX2                !
 ! D77   D(22,13,44,17)        -51.1032         estimate D2E/DX2                !
 ! D78   D(22,13,44,45)        -28.1869         estimate D2E/DX2                !
 ! D79   D(11,14,23,15)         51.1032         estimate D2E/DX2                !
 ! D80   D(11,14,23,18)        180.0            estimate D2E/DX2                !
 ! D81   D(44,14,23,15)        180.0            estimate D2E/DX2                !
 ! D82   D(44,14,23,18)        -51.1032         estimate D2E/DX2                !
 ! D83   D(11,14,44,13)        -51.1032         estimate D2E/DX2                !
 ! D84   D(11,14,44,17)        180.0            estimate D2E/DX2                !
 ! D85   D(11,14,44,45)       -130.3145         estimate D2E/DX2                !
 ! D86   D(23,14,44,13)       -180.0            estimate D2E/DX2                !
 ! D87   D(23,14,44,17)         51.1032         estimate D2E/DX2                !
 ! D88   D(23,14,44,45)        100.7886         estimate D2E/DX2                !
 ! D89   D(12,15,23,14)        -51.1032         estimate D2E/DX2                !
 ! D90   D(12,15,23,18)        180.0            estimate D2E/DX2                !
 ! D91   D(35,15,23,14)        180.0            estimate D2E/DX2                !
 ! D92   D(35,15,23,18)         51.1032         estimate D2E/DX2                !
 ! D93   D(24,16,22,3)          51.1032         estimate D2E/DX2                !
 ! D94   D(24,16,22,13)        180.0            estimate D2E/DX2                !
 ! D95   D(25,16,22,3)         180.0            estimate D2E/DX2                !
 ! D96   D(25,16,22,13)        -51.1032         estimate D2E/DX2                !
 ! D97   D(22,16,24,4)         -51.1032         estimate D2E/DX2                !
 ! D98   D(22,16,24,19)        180.0            estimate D2E/DX2                !
 ! D99   D(25,16,24,4)         180.0            estimate D2E/DX2                !
 ! D100  D(25,16,24,19)         51.1032         estimate D2E/DX2                !
 ! D101  D(22,16,25,17)         51.1032         estimate D2E/DX2                !
 ! D102  D(22,16,25,20)        180.0            estimate D2E/DX2                !
 ! D103  D(22,16,25,45)         28.1315         estimate D2E/DX2                !
 ! D104  D(24,16,25,17)        180.0            estimate D2E/DX2                !
 ! D105  D(24,16,25,20)        -51.1032         estimate D2E/DX2                !
 ! D106  D(24,16,25,45)        157.0284         estimate D2E/DX2                !
 ! D107  D(26,17,25,16)       -180.0            estimate D2E/DX2                !
 ! D108  D(26,17,25,20)         51.1032         estimate D2E/DX2                !
 ! D109  D(44,17,25,16)        -51.1032         estimate D2E/DX2                !
 ! D110  D(44,17,25,20)        180.0            estimate D2E/DX2                !
 ! D111  D(25,17,26,18)        180.0            estimate D2E/DX2                !
 ! D112  D(25,17,26,21)        -51.1032         estimate D2E/DX2                !
 ! D113  D(44,17,26,18)         51.1032         estimate D2E/DX2                !
 ! D114  D(44,17,26,21)        180.0            estimate D2E/DX2                !
 ! D115  D(45,17,26,18)        114.1425         estimate D2E/DX2                !
 ! D116  D(45,17,26,21)       -116.9606         estimate D2E/DX2                !
 ! D117  D(25,17,44,13)         51.1032         estimate D2E/DX2                !
 ! D118  D(25,17,44,14)        180.0            estimate D2E/DX2                !
 ! D119  D(26,17,44,13)        180.0            estimate D2E/DX2                !
 ! D120  D(26,17,44,14)        -51.1032         estimate D2E/DX2                !
 ! D121  D(26,17,45,46)       -178.6287         estimate D2E/DX2                !
 ! D122  D(26,18,23,14)         51.1032         estimate D2E/DX2                !
 ! D123  D(26,18,23,15)        180.0            estimate D2E/DX2                !
 ! D124  D(34,18,23,14)        180.0            estimate D2E/DX2                !
 ! D125  D(34,18,23,15)        -51.1032         estimate D2E/DX2                !
 ! D126  D(23,18,26,17)        -51.1032         estimate D2E/DX2                !
 ! D127  D(23,18,26,21)        180.0            estimate D2E/DX2                !
 ! D128  D(34,18,26,17)        180.0            estimate D2E/DX2                !
 ! D129  D(34,18,26,21)         51.1032         estimate D2E/DX2                !
 ! D130  D(27,19,24,4)          51.1032         estimate D2E/DX2                !
 ! D131  D(27,19,24,16)        180.0            estimate D2E/DX2                !
 ! D132  D(28,19,24,4)         180.0            estimate D2E/DX2                !
 ! D133  D(28,19,24,16)        -51.1032         estimate D2E/DX2                !
 ! D134  D(24,19,27,5)         -51.1032         estimate D2E/DX2                !
 ! D135  D(24,19,27,30)        180.0            estimate D2E/DX2                !
 ! D136  D(28,19,27,5)         180.0            estimate D2E/DX2                !
 ! D137  D(28,19,27,30)         51.1032         estimate D2E/DX2                !
 ! D138  D(24,19,28,20)         51.1032         estimate D2E/DX2                !
 ! D139  D(24,19,28,31)        180.0            estimate D2E/DX2                !
 ! D140  D(27,19,28,20)        180.0            estimate D2E/DX2                !
 ! D141  D(27,19,28,31)        -51.1032         estimate D2E/DX2                !
 ! D142  D(28,20,25,16)         51.1032         estimate D2E/DX2                !
 ! D143  D(28,20,25,17)        180.0            estimate D2E/DX2                !
 ! D144  D(28,20,25,45)        131.3792         estimate D2E/DX2                !
 ! D145  D(29,20,25,16)        180.0            estimate D2E/DX2                !
 ! D146  D(29,20,25,17)        -51.1032         estimate D2E/DX2                !
 ! D147  D(29,20,25,45)        -99.724          estimate D2E/DX2                !
 ! D148  D(25,20,28,19)        -51.1032         estimate D2E/DX2                !
 ! D149  D(25,20,28,31)        180.0            estimate D2E/DX2                !
 ! D150  D(29,20,28,19)       -180.0            estimate D2E/DX2                !
 ! D151  D(29,20,28,31)         51.1032         estimate D2E/DX2                !
 ! D152  D(25,20,29,21)         51.1032         estimate D2E/DX2                !
 ! D153  D(25,20,29,32)        180.0            estimate D2E/DX2                !
 ! D154  D(28,20,29,21)        180.0            estimate D2E/DX2                !
 ! D155  D(28,20,29,32)        -51.1032         estimate D2E/DX2                !
 ! D156  D(29,21,26,17)         51.1032         estimate D2E/DX2                !
 ! D157  D(29,21,26,18)       -180.0            estimate D2E/DX2                !
 ! D158  D(33,21,26,17)        180.0            estimate D2E/DX2                !
 ! D159  D(33,21,26,18)        -51.1032         estimate D2E/DX2                !
 ! D160  D(26,21,29,20)        -51.1032         estimate D2E/DX2                !
 ! D161  D(26,21,29,32)        180.0            estimate D2E/DX2                !
 ! D162  D(33,21,29,20)        180.0            estimate D2E/DX2                !
 ! D163  D(33,21,29,32)         51.1032         estimate D2E/DX2                !
 ! D164  D(16,25,45,44)       -173.8047         estimate D2E/DX2                !
 ! D165  D(16,25,45,46)         76.3511         estimate D2E/DX2                !
 ! D166  D(20,25,45,44)         94.4587         estimate D2E/DX2                !
 ! D167  D(20,25,45,46)        -15.3854         estimate D2E/DX2                !
 ! D168  D(13,44,45,25)        173.7815         estimate D2E/DX2                !
 ! D169  D(13,44,45,46)        -76.4432         estimate D2E/DX2                !
 ! D170  D(14,44,45,25)        -95.4171         estimate D2E/DX2                !
 ! D171  D(14,44,45,46)         14.3582         estimate D2E/DX2                !
 --------------------------------------------------------------------------------
 Trust Radius=3.00D-01 FncErr=1.00D-07 GrdErr=1.00D-07
 Number of steps in this run=    276 maximum allowed number of steps=    276.
 GradGradGradGradGradGradGradGradGradGradGradGradGradGradGradGradGradGrad

                          Input orientation:                          
 ---------------------------------------------------------------------
 Center     Atomic      Atomic             Coordinates (Angstroms)
 Number     Number       Type             X           Y           Z
 ---------------------------------------------------------------------
      1          6           0        0.176948    1.023714    2.994967
      2          6           0        1.434948    0.297407    2.577810
      3          6           0        2.692948    1.023714    2.994967
      4          6           0        5.208948    1.023714    2.994967
      5          6           0        7.724948    1.023714    2.994967
      6          6           0        3.950948    0.297407    2.577810
      7          6           0        6.466948    0.297407    2.577810
      8          6           0       -1.081052    3.202634    2.994967
      9          6           0       -2.339052    5.381554    2.994967
     10          6           0        0.176948    2.476327    2.577810
     11          6           0       -1.081052    4.655247    2.577810
     12          6           0       -2.339052    6.834167    2.577810
     13          6           0        1.434948    3.202634    2.994967
     14          6           0        0.176948    5.381554    2.994967
     15          6           0       -1.081052    7.560474    2.994967
     16          6           0        3.950948    3.202634    2.994967
     17          6           0        2.692948    5.381554    2.994967
     18          6           0        1.434948    7.560474    2.994967
     19          6           0        6.466948    3.202634    2.994967
     20          6           0        5.208948    5.381554    2.994967
     21          6           0        3.950948    7.560474    2.994967
     22          6           0        2.692948    2.476327    2.577810
     23          6           0        0.176948    6.834167    2.577810
     24          6           0        5.208948    2.476327    2.577810
     25          6           0        3.950948    4.655247    2.577810
     26          6           0        2.692948    6.834167    2.577810
     27          6           0        7.724948    2.476327    2.577810
     28          6           0        6.466948    4.655247    2.577810
     29          6           0        5.208948    6.834167    2.577810
     30          1           0        8.615597    2.990544    2.873152
     31          1           0        7.357597    5.169464    2.873152
     32          1           0        6.099597    7.348383    2.873152
     33          1           0        3.950948    8.588906    2.699625
     34          1           0        1.434948    8.588906    2.699625
     35          1           0       -1.081052    8.588906    2.699625
     36          1           0       -3.229701    7.348383    2.873152
     37          1           0       -3.229701    4.867338    2.699625
     38          1           0       -1.971701    2.688418    2.699625
     39          1           0       -0.713701    0.509498    2.699625
     40          1           0        1.434948   -0.731025    2.873152
     41          1           0        3.950948   -0.731025    2.873152
     42          1           0        6.495217   -0.604546    3.152772
     43          1           0        8.373408    0.350713    3.515994
     44          5           0        1.434948    4.655247    2.577810
     45          7           0        2.679564    4.112950    2.793148
     46          8           0        2.679564    4.112950    3.927878
 ---------------------------------------------------------------------
                    Distance matrix (angstroms):
                    1          2          3          4          5
     1  C    0.000000
     2  C    1.511326   0.000000
     3  C    2.516000   1.511326   0.000000
     4  C    5.032000   3.865827   2.516000   0.000000
     5  C    7.548000   6.345521   5.032000   2.516000   0.000000
     6  C    3.865827   2.516000   1.511326   1.511326   3.865827
     7  C    6.345521   5.032000   3.865827   1.511326   1.511326
     8  C    2.516000   3.865827   4.357840   6.656710   9.071567
     9  C    5.032000   6.345521   6.656710   8.715680  10.966990
    10  C    1.511326   2.516000   2.935023   5.254058   7.697818
    11  C    3.865827   5.032000   5.254058   7.275036   9.534552
    12  C    6.345521   7.548000   7.697818   9.534552  11.628391
    13  C    2.516000   2.935023   2.516000   4.357840   6.656710
    14  C    4.357840   5.254058   5.032000   6.656710   8.715680
    15  C    6.656710   7.697818   7.548000   9.071567  10.966990
    16  C    4.357840   3.865827   2.516000   2.516000   4.357840
    17  C    5.032000   5.254058   4.357840   5.032000   6.656710
    18  C    6.656710   7.275036   6.656710   7.548000   9.071567
    19  C    6.656710   5.825409   4.357840   2.516000   2.516000
    20  C    6.656710   6.345521   5.032000   4.357840   5.032000
    21  C    7.548000   7.697818   6.656710   6.656710   7.548000
    22  C    2.935023   2.516000   1.511326   2.935023   5.254058
    23  C    5.825409   6.656710   6.345521   7.697818   9.534552
    24  C    5.254058   4.357840   2.935023   1.511326   2.935023
    25  C    5.254058   5.032000   3.865827   3.865827   5.254058
    26  C    6.345521   6.656710   5.825409   6.345521   7.697818
    27  C    7.697818   6.656710   5.254058   2.935023   1.511326
    28  C    7.275036   6.656710   5.254058   3.865827   3.865827
    29  C    7.697818   7.548000   6.345521   5.825409   6.345521
    30  H    8.665682   7.674759   6.241877   3.935545   2.162524
    31  H    8.292394   7.674759   6.241877   4.671056   4.163775
    32  H    8.665682   8.459458   7.184813   6.388234   6.531313
    33  H    8.459458   8.665682   7.674759   7.674759   8.459458
    34  H    7.674759   8.292394   7.674759   8.459458   9.842940
    35  H    7.674759   8.665682   8.459458   9.842940  11.613139
    36  H    7.184813   8.459458   8.665682  10.546425  12.649925
    37  H    5.144504   6.531313   7.066713   9.277471  11.613139
    38  H    2.734073   4.163775   4.961594   7.377003   9.842940
    39  H    1.070000   2.162524   3.457875   5.952261   8.459458
    40  H    2.162524   1.070000   2.162524   4.163775   6.531313
    41  H    4.163775   2.734073   2.162524   2.162524   4.163775
    42  H    6.526612   5.172082   4.139249   2.081015   2.046551
    43  H    8.240531   7.001804   5.743868   3.276920   1.070000
    44  B    3.865827   4.357840   3.865827   5.254058   7.275036
    45  N    3.980853   4.019179   3.095850   3.997736   5.919460
    46  O    4.083722   4.234397   3.227054   4.100181   5.989124
                    6          7          8          9         10
     6  C    0.000000
     7  C    2.516000   0.000000
     8  C    5.825409   8.098559   0.000000
     9  C    8.098559  10.176846   2.516000   0.000000
    10  C    4.357840   6.656710   1.511326   3.865827   0.000000
    11  C    6.656710   8.715680   1.511326   1.511326   2.516000
    12  C    9.071567  10.966990   3.865827   1.511326   5.032000
    13  C    3.865827   5.825409   2.516000   4.357840   1.511326
    14  C    6.345521   8.098559   2.516000   2.516000   2.935023
    15  C    8.845743  10.483246   4.357840   2.516000   5.254058
    16  C    2.935023   3.865827   5.032000   6.656710   3.865827
    17  C    5.254058   6.345521   4.357840   5.032000   3.865827
    18  C    7.697818   8.845743   5.032000   4.357840   5.254058
    19  C    3.865827   2.935023   7.548000   9.071567   6.345521
    20  C    5.254058   5.254058   6.656710   7.548000   5.825409
    21  C    7.275036   7.697818   6.656710   6.656710   6.345521
    22  C    2.516000   4.357840   3.865827   5.825409   2.516000
    23  C    7.548000   9.071567   3.865827   2.935023   4.357840
    24  C    2.516000   2.516000   6.345521   8.098559   5.032000
    25  C    4.357840   5.032000   5.254058   6.345521   4.357840
    26  C    6.656710   7.548000   5.254058   5.254058   5.032000
    27  C    4.357840   2.516000   8.845743  10.483246   7.548000
    28  C    5.032000   4.357840   7.697818   8.845743   6.656710
    29  C    6.656710   6.656710   7.275036   7.697818   6.656710
    30  H    5.394363   3.457875   9.699733  11.213211   8.459458
    31  H    5.952261   4.961594   8.665682   9.699733   7.674759
    32  H    7.377003   7.066713   8.292394   8.665682   7.674759
    33  H    8.292394   8.665682   7.377003   7.066713   7.184813
    34  H    8.665682   9.699733   5.952261   4.961594   6.241877
    35  H    9.699733  11.213211   5.394363   3.457875   6.241877
    36  H   10.068029  11.992851   4.671056   2.162524   5.952261
    37  H    8.512392  10.720266   2.734073   1.070000   4.163775
    38  H    6.388234   8.771691   1.070000   2.734073   2.162524
    39  H    4.671056   7.184813   2.734073   5.144504   2.162524
    40  H    2.734073   5.144504   4.671056   7.184813   3.457875
    41  H    1.070000   2.734073   6.388234   8.771691   4.961594
    42  H    2.759965   1.070000   8.480529  10.672516   7.052864
    43  H    4.521192   2.125469   9.888970  11.846418   8.519412
    44  B    5.032000   6.656710   2.935023   3.865827   2.516000
    45  N    4.027549   5.380429   3.874485   5.180405   2.997997
    46  O    4.242342   5.543043   3.980104   5.259865   3.280900
                   11         12         13         14         15
    11  C    0.000000
    12  C    2.516000   0.000000
    13  C    2.935023   5.254058   0.000000
    14  C    1.511326   2.935023   2.516000   0.000000
    15  C    2.935023   1.511326   5.032000   2.516000   0.000000
    16  C    5.254058   7.275036   2.516000   4.357840   6.656710
    17  C    3.865827   5.254058   2.516000   2.516000   4.357840
    18  C    3.865827   3.865827   4.357840   2.516000   2.516000
    19  C    7.697818   9.534552   5.032000   6.656710   8.715680
    20  C    6.345521   7.697818   4.357840   5.032000   6.656710
    21  C    5.825409   6.345521   5.032000   4.357840   5.032000
    22  C    4.357840   6.656710   1.511326   3.865827   6.345521
    23  C    2.516000   2.516000   3.865827   1.511326   1.511326
    24  C    6.656710   8.715680   3.865827   5.825409   8.098559
    25  C    5.032000   6.656710   2.935023   3.865827   5.825409
    26  C    4.357840   5.032000   3.865827   2.935023   3.865827
    27  C    9.071567  10.966990   6.345521   8.098559  10.176846
    28  C    7.548000   9.071567   5.254058   6.345521   8.098559
    29  C    6.656710   7.548000   5.254058   5.254058   6.345521
    30  H    9.842940  11.613139   7.184813   8.771691  10.720266
    31  H    8.459458   9.842940   6.241877   7.184813   8.771691
    32  H    7.674759   8.459458   6.241877   6.241877   7.184813
    33  H    6.388234   6.531313   5.952261   4.961594   5.144504
    34  H    4.671056   4.163775   5.394363   3.457875   2.734073
    35  H    3.935545   2.162524   5.952261   3.457875   1.070000
    36  H    3.457875   1.070000   6.241877   3.935545   2.162524
    37  H    2.162524   2.162524   4.961594   3.457875   3.457875
    38  H    2.162524   4.163775   3.457875   3.457875   4.961594
    39  H    4.163775   6.531313   3.457875   4.961594   7.066713
    40  H    5.952261   8.459458   3.935545   6.241877   8.665682
    41  H    7.377003   9.842940   4.671056   7.184813   9.699733
    42  H    9.240988  11.563276   6.334497   8.705103  11.139673
    43  H   10.430533  12.556757   7.519784   9.631344  11.901215
    44  B    2.516000   4.357840   1.511326   1.511326   3.865827
    45  N    3.805613   5.712959   1.555144   2.813036   5.105721
    46  O    4.032245   5.866363   1.802239   2.956817   5.186326
                   16         17         18         19         20
    16  C    0.000000
    17  C    2.516000   0.000000
    18  C    5.032000   2.516000   0.000000
    19  C    2.516000   4.357840   6.656710   0.000000
    20  C    2.516000   2.516000   4.357840   2.516000   0.000000
    21  C    4.357840   2.516000   2.516000   5.032000   2.516000
    22  C    1.511326   2.935023   5.254058   3.865827   3.865827
    23  C    5.254058   2.935023   1.511326   7.275036   5.254058
    24  C    1.511326   3.865827   6.345521   1.511326   2.935023
    25  C    1.511326   1.511326   3.865827   2.935023   1.511326
    26  C    3.865827   1.511326   1.511326   5.254058   2.935023
    27  C    3.865827   5.825409   8.098559   1.511326   3.865827
    28  C    2.935023   3.865827   5.825409   1.511326   1.511326
    29  C    3.865827   2.935023   3.865827   3.865827   1.511326
    30  H    4.671056   6.388234   8.512392   2.162524   4.163775
    31  H    3.935545   4.671056   6.388234   2.162524   2.162524
    32  H    4.671056   3.935545   4.671056   4.163775   2.162524
    33  H    5.394363   3.457875   2.734073   5.952261   3.457875
    34  H    5.952261   3.457875   1.070000   7.377003   4.961594
    35  H    7.377003   4.961594   2.734073   9.277471   7.066713
    36  H    8.292394   6.241877   4.671056  10.546425   8.665682
    37  H    7.377003   5.952261   5.394363   9.842940   8.459458
    38  H    5.952261   5.394363   5.952261   8.459458   7.674759
    39  H    5.394363   5.952261   7.377003   7.674759   7.674759
    40  H    4.671056   6.241877   8.292394   6.388234   7.184813
    41  H    3.935545   6.241877   8.665682   4.671056   6.241877
    42  H    4.581793   7.093345   9.607225   3.810554   6.124768
    43  H    5.288012   7.605817  10.019698   3.469800   5.966124
    44  B    2.935023   1.511326   2.935023   5.254058   3.865827
    45  N    1.576649   1.284627   3.670861   3.900472   2.836877
    46  O    1.820829   1.574757   3.782171   4.005406   2.979508
                   21         22         23         24         25
    21  C    0.000000
    22  C    5.254058   0.000000
    23  C    3.865827   5.032000   0.000000
    24  C    5.254058   2.516000   6.656710   0.000000
    25  C    2.935023   2.516000   4.357840   2.516000   0.000000
    26  C    1.511326   4.357840   2.516000   5.032000   2.516000
    27  C    6.345521   5.032000   8.715680   2.516000   4.357840
    28  C    3.865827   4.357840   6.656710   2.516000   2.516000
    29  C    1.511326   5.032000   5.032000   4.357840   2.516000
    30  H    6.531313   5.952261   9.277471   3.457875   4.961594
    31  H    4.163775   5.394363   7.377003   3.457875   3.457875
    32  H    2.162524   5.952261   5.952261   4.961594   3.457875
    33  H    1.070000   6.241877   4.163775   6.241877   3.935545
    34  H    2.734073   6.241877   2.162524   7.184813   4.671056
    35  H    5.144504   7.184813   2.162524   8.771691   6.388234
    36  H    7.184813   7.674759   3.457875   9.748587   7.674759
    37  H    7.674759   6.388234   3.935545   8.771691   7.184813
    38  H    7.674759   4.671056   4.671056   7.184813   6.241877
    39  H    8.459458   3.935545   6.388234   6.241877   6.241877
    40  H    8.665682   3.457875   7.674759   4.961594   5.952261
    41  H    8.292394   3.457875   8.459458   3.457875   5.394363
    42  H    8.553698   4.927435   9.776787   3.387750   5.871057
    43  H    8.474094   6.137267  10.492727   3.925841   6.242384
    44  B    3.865827   2.516000   2.516000   4.357840   2.516000
    45  N    3.680023   1.650782   3.703307   3.020379   1.398883
    46  O    3.791064   2.121649   3.935835   3.301364   1.932146
                   26         27         28         29         30
    26  C    0.000000
    27  C    6.656710   0.000000
    28  C    4.357840   2.516000   0.000000
    29  C    2.516000   5.032000   2.516000   0.000000
    30  H    7.066713   1.070000   2.734073   5.144504   0.000000
    31  H    4.961594   2.734073   1.070000   2.734073   2.516000
    32  H    3.457875   5.144504   2.734073   1.070000   5.032000
    33  H    2.162524   7.184813   4.671056   2.162524   7.289082
    34  H    2.162524   8.771691   6.388234   4.163775   9.106783
    35  H    4.163775  10.720266   8.512392   6.531313  11.198070
    36  H    5.952261  11.992851  10.068029   8.459458  12.621483
    37  H    6.241877  11.213211   9.699733   8.665682  11.994313
    38  H    6.241877   9.699733   8.665682   8.292394  10.593029
    39  H    7.184813   8.665682   8.292394   8.665682   9.655127
    40  H    7.674759   7.066713   7.377003   8.459458   8.087755
    41  H    7.674759   4.961594   5.952261   7.674759   5.967329
    42  H    8.373905   3.366689   5.291201   7.570966   4.183164
    43  H    8.670812   2.412245   4.800395   7.275244   2.727747
    44  B    2.516000   6.656710   5.032000   4.357840   7.377003
    45  N    2.729757   5.308560   3.832067   3.721449   6.041745
    46  O    3.037744   5.473310   4.057222   3.952909   6.132596
                   31         32         33         34         35
    31  H    0.000000
    32  H    2.516000   0.000000
    33  H    4.829902   2.487107   0.000000
    34  H    6.841087   4.829902   2.516000   0.000000
    35  H    9.106783   7.289082   5.032000   2.516000   0.000000
    36  H   10.809188   9.329297   7.289082   4.829902   2.487107
    37  H   10.593029   9.655127   8.087755   5.967329   4.297297
    38  H    9.655127   9.321547   8.360235   6.813297   5.967329
    39  H    9.321547   9.655127   9.329297   8.360235   8.087755
    40  H    8.360235   9.329297   9.655127   9.321547   9.655127
    41  H    6.813297   8.360235   9.321547   9.655127  10.593029
    42  H    5.844747   7.967671   9.549775  10.503867  11.921609
    43  H    4.966435   7.385855   9.385757  10.801690  12.566666
    44  B    5.952261   5.394363   4.671056   3.935545   4.671056
    45  N    4.796521   4.708615   4.653961   4.646719   5.846808
    46  O    4.910464   4.824635   4.812402   4.805399   5.973694
                   36         37         38         39         40
    36  H    0.000000
    37  H    2.487107   0.000000
    38  H    4.829902   2.516000   0.000000
    39  H    7.289082   5.032000   2.516000   0.000000
    40  H    9.329297   7.289082   4.829902   2.487107   0.000000
    41  H   10.809188   9.106783   6.841087   4.829902   2.516000
    42  H   12.565878  11.167850   9.096024   7.308552   5.069567
    43  H   13.565130  12.477920  10.637321   9.125087   7.051640
    44  B    5.394363   4.671056   3.935545   4.671056   5.394363
    45  N    6.737495   5.957957   4.865419   4.950541   5.001956
    46  O    6.819082   6.082525   5.017186   5.099776   5.111322
                   41         42         43         44         45
    41  H    0.000000
    42  H    2.562712   0.000000
    43  H    4.597995   2.138235   0.000000
    44  B    5.952261   7.321361   8.218967   0.000000
    45  N    5.008683   6.078101   6.862710   1.374600   0.000000
    46  O    5.117906   6.116761   6.836953   1.914638   1.134730
                   46
    46  O    0.000000
 Stoichiometry    C29H14BNO
 Framework group  C1[X(C29H14BNO)]
 Deg. of freedom   132
 Full point group                 C1      NOp   1
 Largest Abelian subgroup         C1      NOp   1
 Largest concise Abelian subgroup C1      NOp   1
                         Standard orientation:                         
 ---------------------------------------------------------------------
 Center     Atomic      Atomic             Coordinates (Angstroms)
 Number     Number       Type             X           Y           Z
 ---------------------------------------------------------------------
      1          6           0        0.721109    3.785050    0.159500
      2          6           0       -0.732074    3.783725   -0.255667
      3          6           0       -1.456440    2.524681    0.161714
      4          6           0       -3.633990    1.264312    0.163928
      5          6           0       -5.811539    0.003943    0.166141
      6          6           0       -2.909623    2.523356   -0.253453
      7          6           0       -5.087172    1.262987   -0.251239
      8          6           0        2.901393    2.529421    0.155745
      9          6           0        5.081677    1.273792    0.151990
     10          6           0        1.448210    2.528096   -0.259421
     11          6           0        3.628494    1.272466   -0.263176
     12          6           0        5.808778    0.016837   -0.266931
     13          6           0        0.723844    1.269052    0.157959
     14          6           0        2.904127    0.013423    0.154204
     15          6           0        5.084411   -1.242206    0.150449
     16          6           0       -1.453706    0.008683    0.160173
     17          6           0        0.726578   -1.246946    0.156418
     18          6           0        2.906862   -2.502575    0.152663
     19          6           0       -3.631255   -1.251686    0.162387
     20          6           0       -1.450971   -2.507315    0.158632
     21          6           0        0.729313   -3.762944    0.154877
     22          6           0       -0.729339    1.267727   -0.257207
     23          6           0        3.631229   -1.243532   -0.264717
     24          6           0       -2.906888    0.007358   -0.254994
     25          6           0       -0.726605   -1.248271   -0.258748
     26          6           0        1.453679   -2.503901   -0.262503
     27          6           0       -5.084438   -1.253011   -0.252780
     28          6           0       -2.904154   -2.508640   -0.256535
     29          6           0       -0.723870   -3.764270   -0.260289
     30          1           0       -5.597280   -2.144399    0.042720
     31          1           0       -3.416997   -3.400028    0.038966
     32          1           0       -1.236713   -4.655657    0.035211
     33          1           0        1.244091   -4.652853   -0.141714
     34          1           0        3.421641   -3.392484   -0.143928
     35          1           0        5.599190   -2.132115   -0.146142
     36          1           0        6.837614    0.017776    0.027002
     37          1           0        5.594520    2.165179   -0.143510
     38          1           0        3.414236    3.420808   -0.139755
     39          1           0        1.233952    4.676437   -0.136000
     40          1           0       -1.246852    4.673633    0.040924
     41          1           0       -3.424402    3.413264    0.043138
     42          1           0       -5.562676    2.029097    0.324843
     43          1           0       -6.709188    0.261253    0.688557
     44          5           0        1.450945    0.012097   -0.260962
     45          7           0        0.102390   -0.142166   -0.043871
     46          8           0        0.103945   -0.142859    1.090858
 ---------------------------------------------------------------------
 Rotational constants (GHZ):      0.2957545      0.1329758      0.0929535
 Standard basis: VSTO-6G (5D, 7F)
 There are   142 symmetry adapted cartesian basis functions of A   symmetry.
 There are   142 symmetry adapted basis functions of A   symmetry.
   142 basis functions,   852 primitive gaussians,   142 cartesian basis functions
    72 alpha electrons       72 beta electrons
       nuclear repulsion energy      1462.2685245152 Hartrees.
 Integral buffers will be    262144 words long.
 Regular integral format.
 Two-electron integral symmetry is turned off.
 Do NDO integrals.
 One-electron integrals computed using PRISM.
 NBasis=   142 RedAO= F EigKep=  0.00D+00  NBF=   142
 NBsUse=   142 1.00D-04 EigRej=  0.00D+00 NBFU=   142
 Simple Huckel Guess.
 Keep J ints in memory in canonical form, NReq=1104555.
 Gradient too large for Newton-Raphson -- use scaled steepest descent instead.
 Gradient too large for Newton-Raphson -- use scaled steepest descent instead.
     Accept linear search using points  4 and  5.
 Gradient too large for Newton-Raphson -- use scaled steepest descent instead.
     Minimum is close to point  3 DX=  7.29D-02 DF= -1.65D-04 DXR=  4.95D-02 DFR=  2.48D-03 which will be used.
 Gradient too large for Newton-Raphson -- use scaled steepest descent instead.
     Minimum is close to point  2 DX=  1.74D-02 DF= -4.93D-06 DXR=  1.32D-02 DFR=  1.74D-04 which will be used.
 Gradient too large for Newton-Raphson -- use scaled steepest descent instead.
     Accept linear search using points  1 and  2.
     Minimum is close to point  2 DX= -8.96D-02 DF= -1.40D-04 DXR=  6.84D-02 DFR=  7.59D-03 which will be used.
 Gradient too large for Newton-Raphson -- use scaled steepest descent instead.
     Accept linear search using points  1 and  2.
 Gradient too large for Newton-Raphson -- use scaled steepest descent instead.
     Minimum is close to point  2 DX=  5.32D-03 DF= -3.21D-07 DXR=  4.42D-03 DFR=  1.95D-05 which will be used.
 Gradient too large for Newton-Raphson -- use scaled steepest descent instead.
 Gradient too large for Newton-Raphson -- use scaled steepest descent instead.
     Accept linear search using points  1 and  2.
     Minimum is close to point  2 DX= -1.11D-01 DF= -2.03D-04 DXR=  9.31D-02 DFR=  1.26D-02 which will be used.
 Gradient too large for Newton-Raphson -- use scaled steepest descent instead.
     Accept linear search using points  1 and  2.
 Gradient too large for Newton-Raphson -- use scaled steepest descent instead.
     Minimum is close to point  2 DX=  3.01D-02 DF= -8.25D-06 DXR=  2.45D-02 DFR=  5.98D-04 which will be used.
 Gradient too large for Newton-Raphson -- use scaled steepest descent instead.
     Minimum is close to point  2 DX=  4.03D-02 DF= -1.22D-05 DXR=  3.25D-02 DFR=  1.05D-03 which will be used.
 Gradient too large for Newton-Raphson -- use scaled steepest descent instead.
     Minimum is close to point  2 DX=  1.08D-01 DF= -6.35D-05 DXR=  8.27D-02 DFR=  6.88D-03 which will be used.
 Gradient too large for Newton-Raphson -- use scaled steepest descent instead.
     Minimum is close to point  2 DX=  6.30D-03 DF= -1.64D-07 DXR=  4.82D-03 DFR=  2.33D-05 which will be used.
 Gradient too large for Newton-Raphson -- use scaled steepest descent instead.
     Accept linear search using points  1 and  2.
     Minimum is close to point  2 DX= -6.98D-02 DF= -2.43D-05 DXR=  5.67D-02 DFR=  4.72D-03 which will be used.
 Gradient too large for Newton-Raphson -- use scaled steepest descent instead.
     Accept linear search using points  1 and  2.
 Gradient too large for Newton-Raphson -- use scaled steepest descent instead.
     Minimum is close to point  2 DX=  3.69D-02 DF= -2.33D-06 DXR=  2.98D-02 DFR=  8.89D-04 which will be used.
 Gradient too large for Newton-Raphson -- use scaled steepest descent instead.
     Minimum is close to point  2 DX=  8.03D-02 DF= -7.25D-06 DXR=  6.27D-02 DFR=  3.95D-03 which will be used.
 Gradient too large for Newton-Raphson -- use scaled steepest descent instead.
     Minimum is close to point  2 DX=  8.43D-02 DF= -4.85D-06 DXR=  6.09D-02 DFR=  3.72D-03 which will be used.
 Gradient too large for Newton-Raphson -- use scaled steepest descent instead.
     Accept linear search using points  1 and  2.
     Minimum is close to point  2 DX= -3.21D-02 DF= -8.90D-07 DXR=  2.53D-02 DFR=  9.82D-04 which will be used.
 Gradient too large for Newton-Raphson -- use scaled steepest descent instead.
     Accept linear search using points  1 and  2.
     Minimum is close to point  2 DX= -9.22D-02 DF= -5.43D-06 DXR=  7.64D-02 DFR=  8.52D-03 which will be used.
 Gradient too large for Newton-Raphson -- use scaled steepest descent instead.
     Accept linear search using points  1 and  2.
     Minimum is close to point  2 DX= -9.69D-02 DF= -4.78D-06 DXR=  8.79D-02 DFR=  1.02D-02 which will be used.
 Gradient too large for Newton-Raphson -- use scaled steepest descent instead.
     Accept linear search using points  1 and  2.
     Minimum is close to point  2 DX= -4.13D-02 DF= -5.69D-07 DXR=  3.56D-02 DFR=  1.71D-03 which will be used.
 LinEq1:  Iter=  0 NonCon=     1 RMS=2.85D-04 Max=7.55D-03 NDo=     1
 AX will form     1 AO Fock derivatives at one time.
 LinEq1:  Iter=  1 NonCon=     1 RMS=2.02D-04 Max=5.32D-03 NDo=     1
 LinEq1:  Iter=  2 NonCon=     1 RMS=3.62D-05 Max=8.76D-04 NDo=     1
 LinEq1:  Iter=  3 NonCon=     1 RMS=1.67D-05 Max=2.43D-04 NDo=     1
 LinEq1:  Iter=  4 NonCon=     1 RMS=8.01D-06 Max=1.92D-04 NDo=     1
 LinEq1:  Iter=  5 NonCon=     1 RMS=3.24D-06 Max=5.23D-05 NDo=     1
 LinEq1:  Iter=  6 NonCon=     1 RMS=9.47D-07 Max=2.02D-05 NDo=     1
 LinEq1:  Iter=  7 NonCon=     1 RMS=2.84D-07 Max=5.58D-06 NDo=     1
 LinEq1:  Iter=  8 NonCon=     1 RMS=1.20D-07 Max=2.39D-06 NDo=     1
 LinEq1:  Iter=  9 NonCon=     1 RMS=4.23D-08 Max=5.76D-07 NDo=     1
 LinEq1:  Iter= 10 NonCon=     1 RMS=1.53D-08 Max=2.09D-07 NDo=     1
 LinEq1:  Iter= 11 NonCon=     0 RMS=5.30D-09 Max=8.81D-08 NDo=     1
 Linear equations converged to 1.004D-08 1.004D-07 after    11 iterations.
     Accept linear search using points  1 and  2.
     Minimum is close to point  2 DX= -2.28D-02 DF= -5.21D-07 DXR=  2.34D-02 DFR=  5.56D-04 which will be used.
 LinEq1:  Iter=  0 NonCon=     1 RMS=2.74D-05 Max=5.65D-04 NDo=     1
 LinEq1:  Iter=  1 NonCon=     1 RMS=1.63D-05 Max=3.37D-04 NDo=     1
 LinEq1:  Iter=  2 NonCon=     1 RMS=4.43D-06 Max=6.04D-05 NDo=     1
 LinEq1:  Iter=  3 NonCon=     1 RMS=1.82D-06 Max=5.21D-05 NDo=     1
 LinEq1:  Iter=  4 NonCon=     1 RMS=7.39D-07 Max=1.39D-05 NDo=     1
 LinEq1:  Iter=  5 NonCon=     1 RMS=3.82D-07 Max=1.02D-05 NDo=     1
 LinEq1:  Iter=  6 NonCon=     1 RMS=1.40D-07 Max=2.53D-06 NDo=     1
 LinEq1:  Iter=  7 NonCon=     1 RMS=6.14D-08 Max=1.23D-06 NDo=     1
 LinEq1:  Iter=  8 NonCon=     1 RMS=2.07D-08 Max=3.17D-07 NDo=     1
 LinEq1:  Iter=  9 NonCon=     1 RMS=8.82D-09 Max=1.76D-07 NDo=     1
 LinEq1:  Iter= 10 NonCon=     0 RMS=2.72D-09 Max=4.02D-08 NDo=     1
 Linear equations converged to 1.004D-08 1.004D-07 after    10 iterations.
     Minimum is close to point  2 DX=  1.89D-03 DF= -1.54D-11 DXR=  1.88D-03 DFR=  3.55D-06 which will be used.
 LinEq1:  Iter=  0 NonCon=     1 RMS=1.73D-07 Max=2.69D-06 NDo=     1
 LinEq1:  Iter=  1 NonCon=     1 RMS=9.43D-08 Max=3.10D-06 NDo=     1
 LinEq1:  Iter=  2 NonCon=     1 RMS=3.37D-08 Max=6.40D-07 NDo=     1
 LinEq1:  Iter=  3 NonCon=     1 RMS=1.40D-08 Max=2.68D-07 NDo=     1
 LinEq1:  Iter=  4 NonCon=     1 RMS=6.64D-09 Max=1.69D-07 NDo=     1
 LinEq1:  Iter=  5 NonCon=     1 RMS=2.82D-09 Max=6.03D-08 NDo=     1
 LinEq1:  Iter=  6 NonCon=     1 RMS=1.08D-09 Max=1.65D-08 NDo=     1
 LinEq1:  Iter=  7 NonCon=     1 RMS=3.90D-10 Max=6.80D-09 NDo=     1
 LinEq1:  Iter=  8 NonCon=     1 RMS=1.69D-10 Max=3.38D-09 NDo=     1
 LinEq1:  Iter=  9 NonCon=     1 RMS=6.51D-11 Max=1.59D-09 NDo=     1
 LinEq1:  Iter= 10 NonCon=     0 RMS=2.85D-11 Max=4.55D-10 NDo=     1
 Linear equations converged to 8.438D-11 8.438D-10 after    10 iterations.
 SCF Done:  E(RPM6) =   2.08972798483     a.u. after   27 cycles
            Convg  =    0.1050D-06                    82 Fock formations.
              S**2 =  0.0000                  -V/T =  1.0205

 **********************************************************************

            Population analysis using the SCF density.

 **********************************************************************

 Orbital symmetries:
       Occupied  (A) (A) (A) (A) (A) (A) (A) (A) (A) (A) (A) (A)
                 (A) (A) (A) (A) (A) (A) (A) (A) (A) (A) (A) (A)
                 (A) (A) (A) (A) (A) (A) (A) (A) (A) (A) (A) (A)
                 (A) (A) (A) (A) (A) (A) (A) (A) (A) (A) (A) (A)
                 (A) (A) (A) (A) (A) (A) (A) (A) (A) (A) (A) (A)
                 (A) (A) (A) (A) (A) (A) (A) (A) (A) (A) (A) (A)
       Virtual   (A) (A) (A) (A) (A) (A) (A) (A) (A) (A) (A) (A)
                 (A) (A) (A) (A) (A) (A) (A) (A) (A) (A) (A) (A)
                 (A) (A) (A) (A) (A) (A) (A) (A) (A) (A) (A) (A)
                 (A) (A) (A) (A) (A) (A) (A) (A) (A) (A) (A) (A)
                 (A) (A) (A) (A) (A) (A) (A) (A) (A) (A) (A) (A)
                 (A) (A) (A) (A) (A) (A) (A) (A) (A) (A)
 The electronic state is 1-A.
 Alpha  occ. eigenvalues --   -1.68474  -1.20764  -1.15890  -1.11343  -1.05833
 Alpha  occ. eigenvalues --   -1.04217  -1.02843  -1.02164  -1.01221  -0.97582
 Alpha  occ. eigenvalues --   -0.97154  -0.95649  -0.92007  -0.90673  -0.87270
 Alpha  occ. eigenvalues --   -0.86750  -0.84309  -0.81912  -0.80396  -0.79076
 Alpha  occ. eigenvalues --   -0.78193  -0.77546  -0.74113  -0.72311  -0.70208
 Alpha  occ. eigenvalues --   -0.68924  -0.68112  -0.66373  -0.63352  -0.62271
 Alpha  occ. eigenvalues --   -0.61386  -0.59190  -0.57741  -0.57371  -0.56645
 Alpha  occ. eigenvalues --   -0.55756  -0.54936  -0.54282  -0.54008  -0.53417
 Alpha  occ. eigenvalues --   -0.52129  -0.51155  -0.51048  -0.50751  -0.49828
 Alpha  occ. eigenvalues --   -0.49518  -0.48792  -0.47960  -0.46805  -0.46685
 Alpha  occ. eigenvalues --   -0.46350  -0.46261  -0.45781  -0.45296  -0.45109
 Alpha  occ. eigenvalues --   -0.44021  -0.43350  -0.42895  -0.41700  -0.41145
 Alpha  occ. eigenvalues --   -0.40129  -0.39924  -0.39712  -0.38646  -0.36681
 Alpha  occ. eigenvalues --   -0.35801  -0.34120  -0.33846  -0.32453  -0.31607
 Alpha  occ. eigenvalues --   -0.29438  -0.27234
 Alpha virt. eigenvalues --   -0.10575  -0.06566  -0.06483  -0.05316  -0.04191
 Alpha virt. eigenvalues --   -0.03728  -0.03319  -0.02142  -0.01587  -0.01134
 Alpha virt. eigenvalues --   -0.00294   0.00477   0.01527   0.02205   0.02836
 Alpha virt. eigenvalues --    0.04149   0.05193   0.06035   0.06366   0.07172
 Alpha virt. eigenvalues --    0.08362   0.09695   0.10587   0.10712   0.11381
 Alpha virt. eigenvalues --    0.11592   0.11764   0.12315   0.12857   0.12979
 Alpha virt. eigenvalues --    0.13105   0.13245   0.13624   0.13851   0.13979
 Alpha virt. eigenvalues --    0.14117   0.14281   0.14376   0.14561   0.14760
 Alpha virt. eigenvalues --    0.14980   0.15214   0.15418   0.15497   0.15526
 Alpha virt. eigenvalues --    0.15799   0.15974   0.16366   0.16478   0.16650
 Alpha virt. eigenvalues --    0.16866   0.17122   0.17396   0.17769   0.18197
 Alpha virt. eigenvalues --    0.18576   0.19888   0.20116   0.20618   0.20742
 Alpha virt. eigenvalues --    0.20851   0.20918   0.21066   0.21366   0.21710
 Alpha virt. eigenvalues --    0.21833   0.21888   0.22442   0.22974   0.23254
          Condensed to atoms (all electrons):
               1          2          3          4          5          6
     1  C    4.160340   0.000000   0.000000   0.000000   0.000000   0.000000
     2  C    0.000000   4.108582   0.000000   0.000000   0.000000   0.000000
     3  C    0.000000   0.000000   3.943873   0.000000   0.000000   0.000000
     4  C    0.000000   0.000000   0.000000   3.970398   0.000000   0.000000
     5  C    0.000000   0.000000   0.000000   0.000000   4.109559   0.000000
     6  C    0.000000   0.000000   0.000000   0.000000   0.000000   4.183658
     7  C    0.000000   0.000000   0.000000   0.000000   0.000000   0.000000
     8  C    0.000000   0.000000   0.000000   0.000000   0.000000   0.000000
     9  C    0.000000   0.000000   0.000000   0.000000   0.000000   0.000000
    10  C    0.000000   0.000000   0.000000   0.000000   0.000000   0.000000
    11  C    0.000000   0.000000   0.000000   0.000000   0.000000   0.000000
    12  C    0.000000   0.000000   0.000000   0.000000   0.000000   0.000000
    13  C    0.000000   0.000000   0.000000   0.000000   0.000000   0.000000
    14  C    0.000000   0.000000   0.000000   0.000000   0.000000   0.000000
    15  C    0.000000   0.000000   0.000000   0.000000   0.000000   0.000000
    16  C    0.000000   0.000000   0.000000   0.000000   0.000000   0.000000
    17  C    0.000000   0.000000   0.000000   0.000000   0.000000   0.000000
    18  C    0.000000   0.000000   0.000000   0.000000   0.000000   0.000000
    19  C    0.000000   0.000000   0.000000   0.000000   0.000000   0.000000
    20  C    0.000000   0.000000   0.000000   0.000000   0.000000   0.000000
    21  C    0.000000   0.000000   0.000000   0.000000   0.000000   0.000000
    22  C    0.000000   0.000000   0.000000   0.000000   0.000000   0.000000
    23  C    0.000000   0.000000   0.000000   0.000000   0.000000   0.000000
    24  C    0.000000   0.000000   0.000000   0.000000   0.000000   0.000000
    25  C    0.000000   0.000000   0.000000   0.000000   0.000000   0.000000
    26  C    0.000000   0.000000   0.000000   0.000000   0.000000   0.000000
    27  C    0.000000   0.000000   0.000000   0.000000   0.000000   0.000000
    28  C    0.000000   0.000000   0.000000   0.000000   0.000000   0.000000
    29  C    0.000000   0.000000   0.000000   0.000000   0.000000   0.000000
    30  H    0.000000   0.000000   0.000000   0.000000   0.000000   0.000000
    31  H    0.000000   0.000000   0.000000   0.000000   0.000000   0.000000
    32  H    0.000000   0.000000   0.000000   0.000000   0.000000   0.000000
    33  H    0.000000   0.000000   0.000000   0.000000   0.000000   0.000000
    34  H    0.000000   0.000000   0.000000   0.000000   0.000000   0.000000
    35  H    0.000000   0.000000   0.000000   0.000000   0.000000   0.000000
    36  H    0.000000   0.000000   0.000000   0.000000   0.000000   0.000000
    37  H    0.000000   0.000000   0.000000   0.000000   0.000000   0.000000
    38  H    0.000000   0.000000   0.000000   0.000000   0.000000   0.000000
    39  H    0.000000   0.000000   0.000000   0.000000   0.000000   0.000000
    40  H    0.000000   0.000000   0.000000   0.000000   0.000000   0.000000
    41  H    0.000000   0.000000   0.000000   0.000000   0.000000   0.000000
    42  H    0.000000   0.000000   0.000000   0.000000   0.000000   0.000000
    43  H    0.000000   0.000000   0.000000   0.000000   0.000000   0.000000
    44  B    0.000000   0.000000   0.000000   0.000000   0.000000   0.000000
    45  N    0.000000   0.000000   0.000000   0.000000   0.000000   0.000000
    46  O    0.000000   0.000000   0.000000   0.000000   0.000000   0.000000
               7          8          9         10         11         12
     1  C    0.000000   0.000000   0.000000   0.000000   0.000000   0.000000
     2  C    0.000000   0.000000   0.000000   0.000000   0.000000   0.000000
     3  C    0.000000   0.000000   0.000000   0.000000   0.000000   0.000000
     4  C    0.000000   0.000000   0.000000   0.000000   0.000000   0.000000
     5  C    0.000000   0.000000   0.000000   0.000000   0.000000   0.000000
     6  C    0.000000   0.000000   0.000000   0.000000   0.000000   0.000000
     7  C    4.185848   0.000000   0.000000   0.000000   0.000000   0.000000
     8  C    0.000000   4.127219   0.000000   0.000000   0.000000   0.000000
     9  C    0.000000   0.000000   4.085435   0.000000   0.000000   0.000000
    10  C    0.000000   0.000000   0.000000   3.993526   0.000000   0.000000
    11  C    0.000000   0.000000   0.000000   0.000000   4.004031   0.000000
    12  C    0.000000   0.000000   0.000000   0.000000   0.000000   4.155066
    13  C    0.000000   0.000000   0.000000   0.000000   0.000000   0.000000
    14  C    0.000000   0.000000   0.000000   0.000000   0.000000   0.000000
    15  C    0.000000   0.000000   0.000000   0.000000   0.000000   0.000000
    16  C    0.000000   0.000000   0.000000   0.000000   0.000000   0.000000
    17  C    0.000000   0.000000   0.000000   0.000000   0.000000   0.000000
    18  C    0.000000   0.000000   0.000000   0.000000   0.000000   0.000000
    19  C    0.000000   0.000000   0.000000   0.000000   0.000000   0.000000
    20  C    0.000000   0.000000   0.000000   0.000000   0.000000   0.000000
    21  C    0.000000   0.000000   0.000000   0.000000   0.000000   0.000000
    22  C    0.000000   0.000000   0.000000   0.000000   0.000000   0.000000
    23  C    0.000000   0.000000   0.000000   0.000000   0.000000   0.000000
    24  C    0.000000   0.000000   0.000000   0.000000   0.000000   0.000000
    25  C    0.000000   0.000000   0.000000   0.000000   0.000000   0.000000
    26  C    0.000000   0.000000   0.000000   0.000000   0.000000   0.000000
    27  C    0.000000   0.000000   0.000000   0.000000   0.000000   0.000000
    28  C    0.000000   0.000000   0.000000   0.000000   0.000000   0.000000
    29  C    0.000000   0.000000   0.000000   0.000000   0.000000   0.000000
    30  H    0.000000   0.000000   0.000000   0.000000   0.000000   0.000000
    31  H    0.000000   0.000000   0.000000   0.000000   0.000000   0.000000
    32  H    0.000000   0.000000   0.000000   0.000000   0.000000   0.000000
    33  H    0.000000   0.000000   0.000000   0.000000   0.000000   0.000000
    34  H    0.000000   0.000000   0.000000   0.000000   0.000000   0.000000
    35  H    0.000000   0.000000   0.000000   0.000000   0.000000   0.000000
    36  H    0.000000   0.000000   0.000000   0.000000   0.000000   0.000000
    37  H    0.000000   0.000000   0.000000   0.000000   0.000000   0.000000
    38  H    0.000000   0.000000   0.000000   0.000000   0.000000   0.000000
    39  H    0.000000   0.000000   0.000000   0.000000   0.000000   0.000000
    40  H    0.000000   0.000000   0.000000   0.000000   0.000000   0.000000
    41  H    0.000000   0.000000   0.000000   0.000000   0.000000   0.000000
    42  H    0.000000   0.000000   0.000000   0.000000   0.000000   0.000000
    43  H    0.000000   0.000000   0.000000   0.000000   0.000000   0.000000
    44  B    0.000000   0.000000   0.000000   0.000000   0.000000   0.000000
    45  N    0.000000   0.000000   0.000000   0.000000   0.000000   0.000000
    46  O    0.000000   0.000000   0.000000   0.000000   0.000000   0.000000
              13         14         15         16         17         18
     1  C    0.000000   0.000000   0.000000   0.000000   0.000000   0.000000
     2  C    0.000000   0.000000   0.000000   0.000000   0.000000   0.000000
     3  C    0.000000   0.000000   0.000000   0.000000   0.000000   0.000000
     4  C    0.000000   0.000000   0.000000   0.000000   0.000000   0.000000
     5  C    0.000000   0.000000   0.000000   0.000000   0.000000   0.000000
     6  C    0.000000   0.000000   0.000000   0.000000   0.000000   0.000000
     7  C    0.000000   0.000000   0.000000   0.000000   0.000000   0.000000
     8  C    0.000000   0.000000   0.000000   0.000000   0.000000   0.000000
     9  C    0.000000   0.000000   0.000000   0.000000   0.000000   0.000000
    10  C    0.000000   0.000000   0.000000   0.000000   0.000000   0.000000
    11  C    0.000000   0.000000   0.000000   0.000000   0.000000   0.000000
    12  C    0.000000   0.000000   0.000000   0.000000   0.000000   0.000000
    13  C    3.866655   0.000000   0.000000   0.000000   0.000000   0.000000
    14  C    0.000000   3.913175   0.000000   0.000000   0.000000   0.000000
    15  C    0.000000   0.000000   4.084357   0.000000   0.000000   0.000000
    16  C    0.000000   0.000000   0.000000   3.826883   0.000000   0.000000
    17  C    0.000000   0.000000   0.000000   0.000000   4.036081   0.000000
    18  C    0.000000   0.000000   0.000000   0.000000   0.000000   4.104630
    19  C    0.000000   0.000000   0.000000   0.000000   0.000000   0.000000
    20  C    0.000000   0.000000   0.000000   0.000000   0.000000   0.000000
    21  C    0.000000   0.000000   0.000000   0.000000   0.000000   0.000000
    22  C    0.000000   0.000000   0.000000   0.000000   0.000000   0.000000
    23  C    0.000000   0.000000   0.000000   0.000000   0.000000   0.000000
    24  C    0.000000   0.000000   0.000000   0.000000   0.000000   0.000000
    25  C    0.000000   0.000000   0.000000   0.000000   0.000000   0.000000
    26  C    0.000000   0.000000   0.000000   0.000000   0.000000   0.000000
    27  C    0.000000   0.000000   0.000000   0.000000   0.000000   0.000000
    28  C    0.000000   0.000000   0.000000   0.000000   0.000000   0.000000
    29  C    0.000000   0.000000   0.000000   0.000000   0.000000   0.000000
    30  H    0.000000   0.000000   0.000000   0.000000   0.000000   0.000000
    31  H    0.000000   0.000000   0.000000   0.000000   0.000000   0.000000
    32  H    0.000000   0.000000   0.000000   0.000000   0.000000   0.000000
    33  H    0.000000   0.000000   0.000000   0.000000   0.000000   0.000000
    34  H    0.000000   0.000000   0.000000   0.000000   0.000000   0.000000
    35  H    0.000000   0.000000   0.000000   0.000000   0.000000   0.000000
    36  H    0.000000   0.000000   0.000000   0.000000   0.000000   0.000000
    37  H    0.000000   0.000000   0.000000   0.000000   0.000000   0.000000
    38  H    0.000000   0.000000   0.000000   0.000000   0.000000   0.000000
    39  H    0.000000   0.000000   0.000000   0.000000   0.000000   0.000000
    40  H    0.000000   0.000000   0.000000   0.000000   0.000000   0.000000
    41  H    0.000000   0.000000   0.000000   0.000000   0.000000   0.000000
    42  H    0.000000   0.000000   0.000000   0.000000   0.000000   0.000000
    43  H    0.000000   0.000000   0.000000   0.000000   0.000000   0.000000
    44  B    0.000000   0.000000   0.000000   0.000000   0.000000   0.000000
    45  N    0.000000   0.000000   0.000000   0.000000   0.000000   0.000000
    46  O    0.000000   0.000000   0.000000   0.000000   0.000000   0.000000
              19         20         21         22         23         24
     1  C    0.000000   0.000000   0.000000   0.000000   0.000000   0.000000
     2  C    0.000000   0.000000   0.000000   0.000000   0.000000   0.000000
     3  C    0.000000   0.000000   0.000000   0.000000   0.000000   0.000000
     4  C    0.000000   0.000000   0.000000   0.000000   0.000000   0.000000
[...]
 06,-0.00000814,-0.00001765,-0.00001896,0.00000133,0.00024616,0.0000313
 5,0.00000892,-0.00006028,0.00001402,0.00004823,0.00001830,-0.00000725,
 -0.00000535,-0.00234191,0.01235292,0.00166894,0.00006898,-0.00010715,-
 0.00002788,0.00000853,-0.00001610,-0.00000364,0.00092383,-0.00012661,-
 0.00028188,0.00009202,0.00006398,0.00000709,0.00002478,0.00001395,0.00
 000198,0.00000900,0.00004062,-0.00000156,0.00000133,0.00003702,-0.0000
 0654,-0.00000476,0.00003197,-0.00000418,-0.00002341,0.00001344,-0.0000
 0461,-0.00003032,-0.00001199,-0.00000415,-0.00003599,-0.00002298,-0.00
 000550,-0.00002451,-0.00001802,-0.00000100,0.00000265,-0.00002621,0.00
 000107,0.00001771,-0.00000674,0.00000482,-0.00033956,-0.00043278,-0.00
 007248,0.21081787,-0.00003351,-0.00001662,-0.00000089,-0.00000606,0.00
 000374,-0.00000168,-0.00008216,-0.00003009,0.00000858,-0.00119013,-0.0
 0089369,-0.00023438,0.08061817,-0.08244969,-0.01117479,-0.00033219,0.0
 0012920,0.00007153,-0.00958283,0.00675016,0.00106188,-0.00005862,0.000
 03687,-0.00000813,-0.00004232,0.00003345,-0.00000882,0.00005143,0.0000
 1100,0.00000019,0.00002571,-0.00006421,0.00000507,-0.00001069,-0.00002
 049,-0.00000056,-0.00009210,0.00006212,0.00000526,-0.00001724,-0.00000
 541,-0.00000019,-0.00000128,0.00002000,-0.00000188,0.00011246,0.000036
 88,0.00005048,-0.00000735,-0.00001035,0.00007456,-0.00000665,0.0000263
 5,-0.00000762,-0.00044264,-0.00280136,-0.00060190,-0.00012825,-0.00016
 401,0.00005167,0.00000218,0.00002825,-0.00000125,0.00003725,-0.0000608
 6,0.00000210,0.00000784,0.00000906,-0.00000085,-0.00018406,0.00006509,
 0.00000269,0.00004478,0.00002102,-0.00002476,-0.00001128,0.00000073,0.
 00000285,0.02653660,-0.03196533,-0.00538015,0.00047516,-0.00029502,-0.
 00007156,0.00002060,-0.00000271,-0.00000427,0.00012278,-0.00076729,0.0
 0005460,0.00000487,-0.00000170,-0.00001177,-0.00000434,-0.00000299,-0.
 00000123,-0.00000168,-0.00001804,0.00000101,-0.00000063,-0.00001804,0.
 00000316,0.00000258,-0.00001681,0.00000214,0.00001267,-0.00000710,0.00
 000247,0.00001687,0.00000668,0.00000238,0.00002128,0.00001313,0.000003
 10,0.00001531,0.00001492,0.00000057,-0.00000054,0.00002295,-0.00000072
 ,-0.00000592,0.00006634,0.00000081,-0.00091902,0.00046361,0.00018190,-
 0.09499698,0.11184738,-0.00000578,-0.00000276,-0.00000150,0.00000389,-
 0.00000512,0.00001707,-0.00001674,0.00001893,-0.00006401,0.00049556,-0
 .00019410,0.00394247,0.01865672,-0.01114866,-0.04451352,0.00000401,0.0
 0001412,-0.00033707,0.00396810,-0.00041034,0.00533431,-0.00001572,0.00
 000936,-0.00000909,-0.00000999,0.00000665,-0.00000585,0.00001693,0.000
 00685,-0.00000123,0.00000475,-0.00001601,0.00000439,-0.00000157,-0.000
 00330,-0.00000009,-0.00002879,0.00001946,-0.00000065,-0.00000497,-0.00
 000211,-0.00000553,-0.00000345,0.00000522,-0.00000460,-0.00006993,0.00
 009584,-0.00067269,0.00000877,-0.00002303,0.00005268,-0.00000660,0.000
 00729,-0.00000677,0.00069518,-0.00067485,0.00656086,-0.00006506,-0.000
 01834,-0.00032627,0.00000050,0.00001041,-0.00000237,0.00001845,-0.0000
 1826,0.00003922,0.00000756,0.00000350,0.00000314,0.00001431,0.00000260
 ,0.00020076,-0.00001591,-0.00000245,-0.00001361,0.00000608,-0.00000751
 ,0.00000046,0.00265344,-0.00390546,0.00484887,0.00002207,0.00001094,-0
 .00014251,0.00000347,0.00000436,0.00000264,-0.00027125,0.00008322,-0.0
 0169871,0.00000470,-0.00000926,0.00011238,-0.00000119,-0.00000141,0.00
 000834,-0.00000048,-0.00000552,0.00000320,-0.00000086,-0.00000575,0.00
 000477,0.00000045,-0.00000465,0.00000253,0.00000333,-0.00000191,0.0000
 0187,0.00000428,0.00000204,0.00000256,0.00000498,0.00000365,0.00000521
 ,0.00000359,0.00000276,0.00000091,0.00000005,0.00000315,0.00000800,0.0
 0000200,0.00000123,0.00005618,-0.00011284,0.00013400,-0.00074194,-0.02
 597773,0.01602490,0.02730562,-0.00204450,-0.00180249,-0.00040708,0.000
 23897,0.00010162,-0.00007853,-0.00266541,0.00236306,-0.00026117,-0.000
 67025,0.00072327,0.00006247,-0.00006011,-0.00116266,-0.00009330,0.0011
 5825,0.00051271,-0.00005294,0.00094303,0.00018717,-0.00011329,-0.00752
 866,0.00353240,-0.00108769,-0.00452789,0.00091970,-0.00143537,0.001571
 46,-0.01732548,-0.00153424,-0.03579016,-0.01185193,-0.00800949,0.00003
 623,-0.00513175,0.00046031,-0.03207457,0.00111644,0.00234077,-0.202476
 95,0.10184734,-0.03506118,0.00586476,0.00131524,-0.00035603,-0.0039096
 7,-0.00083521,-0.00010774,-0.14846471,-0.07147993,-0.02059431,-0.00139
 210,0.00198711,-0.00042218,0.00057622,-0.00078170,-0.00014873,0.000868
 49,0.00065587,-0.00085418,0.00078415,0.00179026,-0.00072313,-0.0034884
 3,0.01935019,0.00181756,-0.00244740,0.02691417,-0.00209176,-0.00030735
 ,-0.00039919,0.00029528,-0.03450285,0.00127260,-0.00123498,-0.00279714
 ,-0.01668632,0.00106406,-0.00096221,0.00067010,0.00012824,-0.00048903,
 0.00050798,0.00019450,-0.00019815,-0.00022455,-0.00023307,0.00021510,0
 .00008573,-0.00000914,0.00015308,0.00007493,0.00010482,0.00015054,0.00
 013750,0.00006738,0.00022118,0.00007349,0.00023407,-0.00026058,-0.0004
 5510,0.00025766,0.00016714,-0.00023518,0.00007402,-0.00093793,0.000558
 27,-0.00005037,0.00004802,0.00017162,0.00013150,0.00052050,0.00035578,
 0.00014446,0.00001049,-0.00037527,0.00006800,-0.00009718,-0.00028144,0
 .00002472,-0.00002803,-0.00044846,0.00005063,0.00009187,-0.00022190,-0
 .00000720,-0.00006052,0.00003121,0.00002357,0.47888899,0.00081197,0.00
 106479,0.00020847,0.00047933,0.00020852,0.00005446,-0.00331665,-0.0000
 3159,-0.00097985,-0.00271536,0.00139602,0.00030594,-0.00039868,-0.0023
 5408,-0.00015006,0.00441782,0.00177147,-0.00017739,0.00234187,0.000934
 30,-0.00017801,0.00025307,-0.00293150,-0.00036034,-0.00149517,0.001864
 38,-0.00043267,-0.01708802,-0.01845447,-0.00520688,0.00404696,0.011184
 18,0.00150686,-0.00226766,-0.00002613,-0.00038516,-0.01980721,-0.26640
 842,-0.01606644,0.09989668,-0.09178021,0.02251162,-0.00051028,-0.00337
 963,0.00056184,0.00078622,-0.00812365,-0.00110037,-0.06905975,-0.07323
 160,-0.01516303,0.00046569,-0.00407809,0.00035500,0.00088081,-0.001812
 34,-0.00021817,0.00378679,0.00269724,-0.00121923,-0.00035459,-0.002167
 78,0.00005831,0.04076598,-0.02948423,0.00036994,0.01662146,-0.02833734
 ,0.00544221,-0.00047869,-0.00142646,0.00023437,-0.00219968,0.00904089,
 0.00269146,-0.01569990,-0.02308166,0.00013412,-0.00211233,0.00142752,0
 .00036089,-0.00113319,-0.00003576,0.00009324,0.00097999,-0.00016239,-0
 .00004905,0.00063914,0.00031034,-0.00006951,0.00064020,0.00054576,0.00
 002718,-0.00043531,-0.00041523,0.00010344,-0.00009017,0.00002091,0.000
 02577,-0.00014662,0.00001848,0.00022045,0.00028519,-0.00019728,0.00006
 348,0.00088518,-0.00051663,0.00017219,-0.00008439,0.00025468,-0.000022
 07,0.00010475,0.00005194,0.00022543,-0.00017299,-0.00016877,-0.0000034
 1,0.00025461,0.00049263,0.00002624,-0.00029299,-0.00095622,0.00005513,
 0.00009837,-0.00079388,-0.00004411,0.00014139,-0.00006520,-0.00001366,
 -0.03579969,0.52767999,-0.00027571,-0.00032039,0.00083457,0.00006230,0
 .00006992,-0.00024352,-0.00039545,-0.00044179,0.00687554,0.00002285,0.
 00002713,0.00023308,0.00018038,-0.00011330,-0.00006831,0.00034211,0.00
 022442,-0.00008625,-0.00003434,0.00011258,-0.00001374,-0.00136462,0.00
 135074,-0.00160360,-0.00188901,0.00065785,0.00409311,0.00027246,-0.002
 82164,0.00506546,-0.00683704,-0.00257935,0.00183839,0.00003403,-0.0012
 7727,0.00015938,0.00056459,-0.01883506,-0.04844978,-0.03720329,0.02378
 691,-0.05511483,0.00076539,0.00111894,0.00411683,0.00124346,-0.0003313
 9,-0.00216733,-0.04662595,-0.02780424,-0.04296199,0.00082537,0.0011638
 3,-0.00126288,0.00004361,0.00012248,0.00003831,0.00073243,-0.00054036,
 -0.00055928,0.00029645,0.00148045,-0.00053775,0.00138132,-0.00144809,0
 .00334319,-0.00323341,0.00647537,0.00237483,-0.00039505,0.00018793,0.0
 0001547,0.00063099,0.00240301,0.00409493,0.00259766,0.00045388,0.00379
 715,-0.00017898,-0.00007894,-0.00000773,0.00021854,-0.00014405,-0.0002
 0603,-0.00010889,0.00000871,-0.00006373,0.00009726,0.00003845,0.000028
 58,0.00011773,0.00001853,0.00008372,-0.00000983,-0.00000960,0.00009310
 ,0.00023003,0.00007107,0.00012226,-0.00002897,-0.00015051,0.00010156,-
 0.00002044,-0.00008497,-0.00006543,-0.00006923,0.00005428,-0.00071259,
 0.00006974,0.00005152,-0.00014372,0.00011865,0.00007971,0.00001199,-0.
 00002614,-0.00008165,0.00002228,-0.00001516,-0.00004484,-0.00008631,-0
 .00007370,-0.00012295,-0.00063837,0.00003283,-0.00010924,0.00002552,-0
 .00000936,0.00000410,0.00001828,0.09973399,0.02589279,0.14300977,-0.00
 017675,-0.00009360,0.00002457,0.00001187,-0.00012681,0.00001573,0.0001
 2501,0.00006022,-0.00008524,-0.00038856,0.00007697,0.00004238,-0.00022
 555,-0.00045554,0.00001007,0.00011641,-0.00013022,-0.00000148,0.000535
 82,-0.00001698,0.00000163,-0.00031211,0.00017759,0.00006846,-0.0000265
 0,-0.00035907,0.00002661,0.00037171,-0.00012924,-0.00017849,-0.0003868
 5,0.00006202,-0.00038664,0.00025022,0.00041823,-0.00002647,-0.00177437
 ,-0.00000562,-0.00035784,-0.00161245,-0.00051192,0.00097487,-0.0007672
 7,0.00006659,0.00002938,-0.00178194,-0.00125690,0.00066104,-0.02150354
 ,0.01387309,-0.02070039,-0.00204920,0.00137613,0.00032505,0.00047910,-
 0.00061677,-0.00010252,-0.00023099,0.00098805,0.00035790,-0.00058342,0
 .00050819,0.00035095,0.00143901,0.00070556,0.00044024,0.00167186,0.000
 50850,-0.00055095,-0.00004034,0.00006022,-0.00067561,-0.01353954,0.009
 24572,0.02698603,0.00657484,-0.00457687,-0.00134300,-0.00024199,0.0005
 1332,0.00019266,-0.00045114,0.00056622,-0.00017435,0.00006882,-0.00039
 072,0.00041123,-0.00008607,-0.00004232,-0.00003790,-0.00009607,-0.0000
 4133,-0.00003880,-0.00007526,-0.00007156,-0.00010743,0.00018613,-0.000
 05182,-0.00013153,-0.00010013,-0.00034569,0.00008262,0.00003806,-0.000
 12327,-0.00010260,0.00006840,-0.00004895,-0.00000922,0.00006524,0.0000
 4704,-0.00001029,0.00006124,0.00003709,-0.00000445,0.00004732,0.000004
 54,-0.00001298,-0.00000458,0.00005299,-0.00001326,0.00001563,0.0001243
 1,-0.00000338,-0.00001863,0.00008250,-0.00001322,-0.00006942,0.0000371
 2,-0.00002198,0.00113674,-0.00053041,-0.01022395,0.13126411,0.00029756
 ,0.00017509,-0.00005681,-0.00006314,0.00022227,-0.00005223,-0.00014966
 ,-0.00015105,-0.00008026,0.00059997,0.00005649,-0.00006015,0.00012487,
 0.00085017,0.00003129,-0.00029391,0.00022670,0.00001132,-0.00084967,-0
 .00003836,0.00002147,0.00062964,-0.00010925,-0.00023901,-0.00029861,0.
 00104914,-0.00032248,-0.00065854,-0.00037033,-0.00013345,0.00105557,0.
 00010588,0.00037881,-0.00077867,-0.00140756,0.00002511,0.00049352,-0.0
 0140332,-0.00012256,0.00042405,-0.00051146,-0.00095232,0.00221296,-0.0
 0029333,0.00004028,0.00269209,0.00176701,-0.00041194,0.01662047,-0.057
 78294,0.06226303,0.00370265,-0.00318129,-0.00055487,-0.00079455,0.0008
 9910,0.00019382,-0.00157284,0.00006166,0.00055273,0.00028115,-0.001810
 07,-0.00104571,-0.00235691,-0.00180092,-0.00037079,-0.00364103,0.00007
 419,0.00117215,0.00040084,-0.00027607,0.00047741,0.01376313,-0.0057734
 1,-0.01774280,-0.00192859,0.00069145,0.03123397,0.00046847,-0.00078416
 ,-0.00022052,0.00020867,-0.00109768,0.00014505,-0.00033895,0.00031053,
 -0.00005353,0.00014592,0.00008879,0.00003404,0.00006640,0.00015327,-0.
 00000742,0.00000389,0.00000374,0.00027696,-0.00016702,0.00030012,0.000
 70773,0.00047225,0.00008770,-0.00154799,-0.00003359,0.00027948,0.00017
 223,-0.00018633,0.00012017,0.00003530,-0.00017113,-0.00007619,0.000072
 48,-0.00021961,-0.00013610,0.00012000,-0.00013167,-0.00004425,0.000062
 18,0.00001087,-0.00010648,0.00005110,-0.00003013,-0.00022748,0.0000472
 9,0.00001692,-0.00014548,0.00000807,0.00021451,-0.00011622,0.00000273,
 -0.01270532,-0.00473768,-0.00615738,-0.24589580,0.62191373,0.00061218,
 0.00022627,-0.00016793,-0.00007921,0.00039277,-0.00012706,-0.00018634,
 -0.00035870,0.00011842,0.00093358,-0.00002865,-0.00009141,0.00039731,0
 .00138128,0.00000120,-0.00049401,0.00039393,-0.00002021,-0.00144459,0.
 00011424,0.00009601,0.00065541,-0.00000421,-0.00041350,0.00008739,0.00
 086985,-0.00030311,-0.00087886,0.00033560,0.00008731,0.00102162,-0.000
 67379,0.00055833,-0.00049939,-0.00134918,0.00011457,0.00399050,-0.0015
 6071,-0.00141628,0.00334644,0.00147992,-0.00128996,0.00234332,-0.00036
 246,-0.00003033,0.00269936,0.00452340,-0.00114880,0.00785294,0.0628140
 2,-0.11784875,0.00446917,-0.00147704,-0.00146634,-0.00126055,0.0013757
 9,0.00025825,-0.00293547,0.00063677,0.00007022,0.00040503,-0.00117713,
 -0.00046519,-0.00444014,-0.00268644,0.00053085,-0.00383111,0.00061953,
 -0.00036981,0.00065541,0.00014271,-0.00018153,0.03398496,-0.02492439,-
 0.02630445,-0.00505571,0.03225465,-0.03615217,0.00069429,-0.00136354,-
 0.00029080,-0.00000562,-0.00203733,-0.00036549,-0.00049037,0.00070591,
 -0.00038571,0.00028259,0.00015576,0.00007838,0.00021573,0.00032286,0.0
 0020836,0.00016988,0.00013736,0.00028722,-0.00035183,0.00039617,0.0006
 1644,-0.00005062,0.00104410,0.00155906,-0.00001050,0.00040678,0.000222
 43,-0.00034021,0.00021547,0.00002313,-0.00022865,-0.00015392,0.0001184
 5,-0.00027736,-0.00016116,0.00019234,-0.00021967,-0.00003727,0.0001269
 6,0.00001115,-0.00020667,0.00010914,-0.00003942,-0.00040596,0.00005974
 ,0.00003247,-0.00030321,0.00005321,0.00032161,-0.00017059,0.00001229,-
 0.04041962,-0.02115640,-0.02046253,-0.13431047,0.25595665,0.46318139,0
 .00016174,0.00008872,-0.00001953,-0.00000024,0.00010971,-0.00001867,-0
 .00019887,0.00005303,0.00001684,0.00022498,-0.00000188,-0.00002913,0.0
 0012914,0.00033522,-0.00000460,-0.00000310,0.00012771,-0.00001013,-0.0
 0037022,0.00001490,0.00002415,0.00016428,0.00010628,-0.00008998,0.0000
 1853,0.00030995,-0.00012499,-0.00014640,0.00006229,0.00000802,0.000182
 64,-0.00039553,0.00011608,-0.00021394,-0.00043288,0.00002553,0.0004119
 4,0.00032665,0.00032859,0.00124194,-0.00025654,-0.00013788,0.00079204,
 -0.00009961,-0.00008068,0.00072000,0.00129355,-0.00008794,0.00020156,0
 .00147714,0.03082494,0.00088980,-0.00070353,-0.00031427,-0.00033729,0.
 00047933,0.00007234,-0.00092267,-0.00027064,0.00002587,0.00007292,-0.0
 0080634,0.00005107,-0.00066728,-0.00078867,-0.00004364,-0.00126961,0.0
 0018856,0.00021418,-0.00002369,0.00000860,-0.00002033,0.00398180,-0.00
 172937,-0.00090597,-0.00087799,0.00272555,0.00157507,0.00017367,-0.000
 37458,-0.00008457,0.00023413,-0.00052739,-0.00011813,-0.00011932,0.000
 14021,-0.00011586,0.00007814,0.00004167,0.00002070,0.00007082,0.000043
 75,0.00007489,0.00004998,0.00005312,0.00011485,-0.00014734,0.00005873,
 0.00009606,0.00007931,0.00028174,0.00004012,-0.00001924,0.00011832,0.0
 0009602,-0.00008816,0.00005800,0.00002119,-0.00007024,-0.00004496,0.00
 004096,-0.00006607,-0.00003672,0.00004459,-0.00005513,-0.00001055,0.00
 002086,0.00000341,-0.00004946,0.00001716,-0.00001728,-0.00012410,0.000
 00972,0.00001473,-0.00008233,0.00001376,0.00007392,-0.00003991,0.00000
 521,-0.00547872,-0.00340759,-0.00160274,-0.09797779,0.22833775,0.13265
 097,0.09909401,-0.00032902,-0.00016658,0.00011037,0.00009366,-0.000253
 90,0.00006177,0.00000765,0.00022885,-0.00008427,-0.00082716,0.00005704
 ,0.00008475,-0.00023462,-0.00112514,-0.00002837,0.00049899,-0.00018817
 ,-0.00001022,0.00115039,0.00006197,-0.00008032,-0.00075874,0.00034360,
 0.00023987,0.00009133,-0.00086013,0.00018700,0.00100384,0.00031695,-0.
 00011992,-0.00090861,-0.00031176,-0.00048969,0.00066821,0.00118606,-0.
 00004681,-0.00270326,0.00150799,0.00077911,-0.00068787,-0.00012835,0.0
 0169029,-0.00207331,0.00033006,-0.00006098,-0.00207411,-0.00386652,-0.
 00006760,-0.00162189,0.00191370,-0.06889627,-0.00370032,0.00180447,0.0
 0109694,0.00096344,-0.00120684,-0.00022070,0.00228401,0.00012935,-0.00
 052998,-0.00040712,0.00083654,0.00092220,0.00374511,0.00168218,-0.0000
 6519,0.00369561,0.00029945,-0.00039143,-0.00029749,0.00005673,0.000125
 34,-0.00933251,0.00755068,0.00264553,0.00162373,-0.00870161,0.00059008
 ,-0.00065988,0.00103888,0.00021345,-0.00030351,0.00133413,0.00023732,0
 .00029729,-0.00041978,0.00010630,-0.00014738,-0.00009213,-0.00004362,-
 0.00007921,-0.00014813,-0.00008935,-0.00003822,-0.00005557,-0.00022274
 ,0.00019027,-0.00032473,-0.00052727,-0.00020703,-0.00061415,0.00003861
 ,0.00003219,-0.00033446,-0.00016314,0.00020949,-0.00013551,-0.00001583
 ,0.00020793,0.00009987,-0.00005762,0.00022536,0.00014399,-0.00009367,0
 .00014037,0.00004168,-0.00007309,-0.00000750,0.00012918,-0.00005971,0.
 00002611,0.00022043,-0.00002539,-0.00001677,0.00014330,-0.00002625,-0.
 00023222,0.00012492,0.00000225,0.01094178,0.00420044,-0.00235757,0.226
 23093,-0.54704387,-0.30629163,-0.22665797,0.54018173,-0.00021752,-0.00
 010355,0.00010224,0.00008204,-0.00017604,0.00006187,-0.00002004,0.0001
 5150,-0.00012668,-0.00069726,0.00009274,0.00007342,-0.00020702,-0.0009
 2548,-0.00001727,0.00043054,-0.00008972,0.00000607,0.00094368,0.000083
 74,-0.00008477,-0.00049715,0.00019648,0.00017237,-0.00020657,-0.000152
 93,-0.00000086,0.00073462,0.00023187,-0.00011572,-0.00007786,-0.000082
 02,-0.00017057,0.00014809,0.00032098,-0.00003664,-0.00207277,0.0009808
 1,0.00108673,-0.00144235,-0.00020160,0.00108599,-0.00079393,0.00016919
 ,-0.00001667,-0.00130961,-0.00324224,0.00004665,0.02122317,-0.05012752
 ,-0.08021338,-0.00099218,0.00067184,-0.00013007,0.00074684,-0.00101995
 ,-0.00017569,0.00196194,0.00023933,-0.00024910,0.00012554,0.00038999,-
 0.00022665,0.00300525,0.00132356,-0.00045754,0.00126574,-0.00005360,-0
 .00001416,-0.00015973,-0.00007495,0.00051133,-0.00656910,0.00431483,-0
 .00481672,0.00102029,-0.00318659,-0.00025645,-0.00058461,0.00083473,0.
 00014361,-0.00035374,0.00096516,0.00042725,0.00029631,-0.00028946,0.00
 003080,-0.00008963,-0.00005543,-0.00003962,-0.00005057,-0.00006807,-0.
 00012003,-0.00008332,-0.00008904,-0.00012713,0.00008657,-0.00020640,-0
 .00018230,-0.00003310,-0.00048525,-0.00038095,0.00002231,-0.00021585,-
 0.00007365,0.00015012,-0.00009493,0.00000377,0.00015503,0.00007944,-0.
 00004022,0.00015134,0.00009863,-0.00006549,0.00009545,0.00002679,-0.00
 006109,-0.00000278,0.00009919,-0.00005469,0.00001529,0.00014548,-0.000
 02073,-0.00001047,0.00008777,-0.00003432,-0.00016666,0.00009011,0.0000
 0187,0.00811013,0.00128934,-0.00494049,0.13861521,-0.32396684,-0.25938
 596,-0.16273899,0.37201393,0.34888212||0.00002794,-0.00000671,0.000017
 47,-0.00002606,0.00000572,-0.00002674,-0.00001225,0.00000719,0.0000127
 8,0.00000123,-0.00002638,-0.00001153,-0.00000627,-0.00003965,0.0000390
 0,0.00002659,0.00000171,-0.00000249,-0.00000633,0.00002383,0.00000021,
 -0.00001027,0.00002641,0.00003377,0.00001380,-0.00004616,0.00002362,-0
 .00000245,-0.00001478,-0.00002153,-0.00001706,-0.00002673,-0.00002243,
 -0.00003564,0.00000386,0.00001654,-0.00003238,-0.00001967,-0.00001783,
 0.00000670,0.00001699,-0.00000045,0.00005476,0.00002693,0.00000342,0.0
 0003656,-0.00002325,-0.00004194,0.00002087,0.00000823,0.00010143,-0.00
 000800,0.00000117,0.00002409,-0.00001659,0.00000866,0.00000928,0.00005
 075,-0.00002557,-0.00003708,-0.00001430,0.00000730,-0.00002355,0.00001
 427,0.00004286,0.00001415,0.00000380,0.00001173,-0.00001054,-0.0000251
 7,0.00000673,0.00000157,-0.00004903,-0.00002751,0.00007543,-0.00003033
 ,0.00002884,-0.00000671,0.00002039,0.00000523,-0.00001689,-0.00006826,
 0.00005450,0.00001743,0.00001936,-0.00004413,0.00003771,0.00001187,-0.
 00000006,-0.00000150,0.00000058,0.00000722,-0.00000040,0.00001466,0.00
 000197,-0.00000486,-0.00000525,0.00000576,0.00000385,0.00000279,-0.000
 00158,-0.00000803,0.00000611,0.00000410,-0.00000236,-0.00001097,0.0000
 0407,-0.00001498,-0.00000077,-0.00000806,-0.00000847,0.00000171,-0.000
 00170,-0.00000938,-0.00000281,0.00000016,0.00000008,0.00000024,-0.0000
 0183,0.00000667,-0.00000155,-0.00000841,0.00000148,-0.00000116,-0.0000
 0136,-0.00000534,0.00000497,0.00000070,-0.00001644,-0.00000231,-0.0000
 0799,0.00000911,0.00010008,0.00004106,-0.00012052,-0.00005480,-0.00002
 138,-0.00001709|||@


 DO YOU KNOW THAT THE LETTERS IN "EPISCOPAL", WHEN
 REARRANGED, SPELL "PEPSI COLA"?
 Job cpu time:       0 days  0 hours  0 minutes  9.0 seconds.
 File lengths (MBytes):  RWF=    414 Int=      0 D2E=      0 Chk=      5 Scr=      1
 Normal termination of Gaussian 09 at Sat Mar 14 10:58:54 2026.
