 Entering Link 1 = C:\Gaussian\G09W\l1.exe PID=     27552.
  
 Copyright (c) 1988,1990,1992,1993,1995,1998,2003,2009,2013,
            Gaussian, Inc.  All Rights Reserved.
  
 This is part of the Gaussian(R) 09 program.  It is based on
 the Gaussian(R) 03 system (copyright 2003, Gaussian, Inc.),
 the Gaussian(R) 98 system (copyright 1998, Gaussian, Inc.),
 the Gaussian(R) 94 system (copyright 1995, Gaussian, Inc.),
 the Gaussian 92(TM) system (copyright 1992, Gaussian, Inc.),
 the Gaussian 90(TM) system (copyright 1990, Gaussian, Inc.),
 the Gaussian 88(TM) system (copyright 1988, Gaussian, Inc.),
 the Gaussian 86(TM) system (copyright 1986, Carnegie Mellon
 University), and the Gaussian 82(TM) system (copyright 1983,
 Carnegie Mellon University). Gaussian is a federally registered
 trademark of Gaussian, Inc.
  
 This software contains proprietary and confidential information,
 including trade secrets, belonging to Gaussian, Inc.
  
 This software is provided under written license and may be
 used, copied, transmitted, or stored only in accord with that
 written license.
  
 The following legend is applicable only to US Government
 contracts under FAR:
  
                    RESTRICTED RIGHTS LEGEND
  
 Use, reproduction and disclosure by the US Government is
 subject to restrictions as set forth in subparagraphs (a)
 and (c) of the Commercial Computer Software - Restricted
 Rights clause in FAR 52.227-19.
  
 Gaussian, Inc.
 340 Quinnipiac St., Bldg. 40, Wallingford CT 06492
  
  
 ---------------------------------------------------------------
 Warning -- This program may not be used in any manner that
 competes with the business of Gaussian, Inc. or will provide
 assistance to any competitor of Gaussian, Inc.  The licensee
 of this program is prohibited from giving any competitor of
 Gaussian, Inc. access to this program.  By using this program,
 the user acknowledges that Gaussian, Inc. is engaged in the
 business of creating and licensing software in the field of
 computational chemistry and represents and warrants to the
 licensee that it is not a competitor of Gaussian, Inc. and that
 it will not use this program in any manner prohibited above.
 ---------------------------------------------------------------
  

 Cite this work as:
 Gaussian 09, Revision D.01,
 M. J. Frisch, G. W. Trucks, H. B. Schlegel, G. E. Scuseria, 
 M. A. Robb, J. R. Cheeseman, G. Scalmani, V. Barone, B. Mennucci, 
 G. A. Petersson, H. Nakatsuji, M. Caricato, X. Li, H. P. Hratchian, 
 A. F. Izmaylov, J. Bloino, G. Zheng, J. L. Sonnenberg, M. Hada, 
 M. Ehara, K. Toyota, R. Fukuda, J. Hasegawa, M. Ishida, T. Nakajima, 
 Y. Honda, O. Kitao, H. Nakai, T. Vreven, J. A. Montgomery, Jr., 
 J. E. Peralta, F. Ogliaro, M. Bearpark, J. J. Heyd, E. Brothers, 
 K. N. Kudin, V. N. Staroverov, T. Keith, R. Kobayashi, J. Normand, 
 K. Raghavachari, A. Rendell, J. C. Burant, S. S. Iyengar, J. Tomasi, 
 M. Cossi, N. Rega, J. M. Millam, M. Klene, J. E. Knox, J. B. Cross, 
 V. Bakken, C. Adamo, J. Jaramillo, R. Gomperts, R. E. Stratmann, 
 O. Yazyev, A. J. Austin, R. Cammi, C. Pomelli, J. W. Ochterski, 
 R. L. Martin, K. Morokuma, V. G. Zakrzewski, G. A. Voth, 
 P. Salvador, J. J. Dannenberg, S. Dapprich, A. D. Daniels, 
 O. Farkas, J. B. Foresman, J. V. Ortiz, J. Cioslowski, 
 and D. J. Fox, Gaussian, Inc., Wallingford CT, 2013.
 
 ******************************************
 Gaussian 09:  IA32W-G09RevD.01 24-Apr-2013
                19-Jun-2025 
 ******************************************
 %chk=C:\Gaussian\4x4_B_graphene_1.chk
 ---------------------------------------
 # opt freq pm6 scf=qc geom=connectivity
 ---------------------------------------
 1/14=-1,18=20,19=15,26=1,38=1,57=2/1,3;
 2/9=110,12=2,17=6,18=5,40=1/2;
 3/5=2,16=1,25=1,41=3900000,71=1/1,2,3;
 4/35=1/1;
 5/5=2,8=3,35=1,38=5/8;
 6/7=2,8=2,9=2,10=2,28=1/1;
 7//1,2,3,16;
 1/14=-1,18=20,19=15,26=1/3(2);
 2/9=110/2;
 99//99;
 2/9=110/2;
 3/5=2,16=1,25=1,41=3900000,71=1,135=20/1,2,3;
 4/5=5,16=3,35=1/1;
 5/5=2,8=3,35=1,38=5/8;
 7//1,2,3,16;
 1/14=-1,18=20,19=15,26=1/3(-5);
 2/9=110/2;
 6/7=2,8=2,9=2,10=2,19=2,28=1/1;
 99/9=1/99;
 ----------------
 4x4_B_graphene_1
 ----------------
 Symbolic Z-matrix:
 Charge =  0 Multiplicity = 2
 C                     0.17695   1.02371   2.99497 
 C                     1.43495   0.29741   2.57781 
 C                     2.69295   1.02371   2.99497 
 C                     5.20895   1.02371   2.99497 
 C                     7.72495   1.02371   2.99497 
 C                     3.95095   0.29741   2.57781 
 C                     6.46695   0.29741   2.57781 
 C                    -1.08105   3.20263   2.99497 
 C                    -2.33905   5.38155   2.99497 
 C                     0.17695   2.47633   2.57781 
 C                    -1.08105   4.65525   2.57781 
 C                    -2.33905   6.83417   2.57781 
 C                     1.43495   3.20263   2.99497 
 C                     0.17695   5.38155   2.99497 
 C                    -1.08105   7.56047   2.99497 
 C                     3.95095   3.20263   2.99497 
 C                     2.69295   5.38155   2.99497 
 C                     1.43495   7.56047   2.99497 
 C                     6.46695   3.20263   2.99497 
 C                     5.20895   5.38155   2.99497 
 C                     3.95095   7.56047   2.99497 
 C                     2.69295   2.47633   2.57781 
 C                     0.17695   6.83417   2.57781 
 C                     5.20895   2.47633   2.57781 
 C                     3.95095   4.65525   2.57781 
 C                     2.69295   6.83417   2.57781 
 C                     7.72495   2.47633   2.57781 
 C                     6.46695   4.65525   2.57781 
 C                     5.20895   6.83417   2.57781 
 H                     8.6156    2.99054   2.87315 
 H                     7.3576    5.16946   2.87315 
 H                     6.0996    7.34838   2.87315 
 H                     3.95095   8.58891   2.69962 
 H                     1.43495   8.58891   2.69962 
 H                    -1.08105   8.58891   2.69962 
 H                    -3.2297    7.34838   2.87315 
 H                    -3.2297    4.86734   2.69962 
 H                    -1.9717    2.68842   2.69962 
 H                    -0.7137    0.5095    2.69962 
 H                     1.43495  -0.73103   2.87315 
 H                     3.95095  -0.73103   2.87315 
 H                     6.49522  -0.60455   3.15277 
 H                     8.37341   0.35071   3.51599 
 B                     1.43495   4.65525   2.57781 
 

 GradGradGradGradGradGradGradGradGradGradGradGradGradGradGradGradGradGrad
 Berny optimization.
 Initialization pass.
                           ----------------------------
                           !    Initial Parameters    !
                           ! (Angstroms and Degrees)  !
 --------------------------                            --------------------------
 ! Name  Definition              Value          Derivative Info.                !
 --------------------------------------------------------------------------------
 ! R1    R(1,2)                  1.5113         estimate D2E/DX2                !
 ! R2    R(1,10)                 1.5113         estimate D2E/DX2                !
 ! R3    R(1,39)                 1.07           estimate D2E/DX2                !
 ! R4    R(2,3)                  1.5113         estimate D2E/DX2                !
 ! R5    R(2,40)                 1.07           estimate D2E/DX2                !
 ! R6    R(3,6)                  1.5113         estimate D2E/DX2                !
 ! R7    R(3,22)                 1.5113         estimate D2E/DX2                !
 ! R8    R(4,6)                  1.5113         estimate D2E/DX2                !
 ! R9    R(4,7)                  1.5113         estimate D2E/DX2                !
 ! R10   R(4,24)                 1.5113         estimate D2E/DX2                !
 ! R11   R(5,7)                  1.5113         estimate D2E/DX2                !
 ! R12   R(5,27)                 1.5113         estimate D2E/DX2                !
 ! R13   R(5,43)                 1.07           estimate D2E/DX2                !
 ! R14   R(6,41)                 1.07           estimate D2E/DX2                !
 ! R15   R(7,42)                 1.07           estimate D2E/DX2                !
 ! R16   R(8,10)                 1.5113         estimate D2E/DX2                !
 ! R17   R(8,11)                 1.5113         estimate D2E/DX2                !
 ! R18   R(8,38)                 1.07           estimate D2E/DX2                !
 ! R19   R(9,11)                 1.5113         estimate D2E/DX2                !
 ! R20   R(9,12)                 1.5113         estimate D2E/DX2                !
 ! R21   R(9,37)                 1.07           estimate D2E/DX2                !
 ! R22   R(10,13)                1.5113         estimate D2E/DX2                !
 ! R23   R(11,14)                1.5113         estimate D2E/DX2                !
 ! R24   R(12,15)                1.5113         estimate D2E/DX2                !
 ! R25   R(12,36)                1.07           estimate D2E/DX2                !
 ! R26   R(13,22)                1.5113         estimate D2E/DX2                !
 ! R27   R(13,44)                1.5113         estimate D2E/DX2                !
 ! R28   R(14,23)                1.5113         estimate D2E/DX2                !
 ! R29   R(14,44)                1.5113         estimate D2E/DX2                !
 ! R30   R(15,23)                1.5113         estimate D2E/DX2                !
 ! R31   R(15,35)                1.07           estimate D2E/DX2                !
 ! R32   R(16,22)                1.5113         estimate D2E/DX2                !
 ! R33   R(16,24)                1.5113         estimate D2E/DX2                !
 ! R34   R(16,25)                1.5113         estimate D2E/DX2                !
 ! R35   R(17,25)                1.5113         estimate D2E/DX2                !
 ! R36   R(17,26)                1.5113         estimate D2E/DX2                !
 ! R37   R(17,44)                1.5113         estimate D2E/DX2                !
 ! R38   R(18,23)                1.5113         estimate D2E/DX2                !
 ! R39   R(18,26)                1.5113         estimate D2E/DX2                !
 ! R40   R(18,34)                1.07           estimate D2E/DX2                !
 ! R41   R(19,24)                1.5113         estimate D2E/DX2                !
 ! R42   R(19,27)                1.5113         estimate D2E/DX2                !
 ! R43   R(19,28)                1.5113         estimate D2E/DX2                !
 ! R44   R(20,25)                1.5113         estimate D2E/DX2                !
 ! R45   R(20,28)                1.5113         estimate D2E/DX2                !
 ! R46   R(20,29)                1.5113         estimate D2E/DX2                !
 ! R47   R(21,26)                1.5113         estimate D2E/DX2                !
 ! R48   R(21,29)                1.5113         estimate D2E/DX2                !
 ! R49   R(21,33)                1.07           estimate D2E/DX2                !
 ! R50   R(27,30)                1.07           estimate D2E/DX2                !
 ! R51   R(28,31)                1.07           estimate D2E/DX2                !
 ! R52   R(29,32)                1.07           estimate D2E/DX2                !
 ! A1    A(2,1,10)             112.6884         estimate D2E/DX2                !
 ! A2    A(2,1,39)             112.6884         estimate D2E/DX2                !
 ! A3    A(10,1,39)            112.6884         estimate D2E/DX2                !
 ! A4    A(1,2,3)              112.6884         estimate D2E/DX2                !
 ! A5    A(1,2,40)             112.6884         estimate D2E/DX2                !
 ! A6    A(3,2,40)             112.6884         estimate D2E/DX2                !
 ! A7    A(2,3,6)              112.6884         estimate D2E/DX2                !
 ! A8    A(2,3,22)             112.6884         estimate D2E/DX2                !
 ! A9    A(6,3,22)             112.6884         estimate D2E/DX2                !
 ! A10   A(6,4,7)              112.6884         estimate D2E/DX2                !
 ! A11   A(6,4,24)             112.6884         estimate D2E/DX2                !
 ! A12   A(7,4,24)             112.6884         estimate D2E/DX2                !
 ! A13   A(7,5,27)             112.6884         estimate D2E/DX2                !
 ! A14   A(7,5,43)             109.6693         estimate D2E/DX2                !
 ! A15   A(27,5,43)            137.6415         estimate D2E/DX2                !
 ! A16   A(3,6,4)              112.6884         estimate D2E/DX2                !
 ! A17   A(3,6,41)             112.6884         estimate D2E/DX2                !
 ! A18   A(4,6,41)             112.6884         estimate D2E/DX2                !
 ! A19   A(4,7,5)              112.6884         estimate D2E/DX2                !
 ! A20   A(4,7,42)             106.187          estimate D2E/DX2                !
 ! A21   A(5,7,42)             103.5792         estimate D2E/DX2                !
 ! A22   A(10,8,11)            112.6884         estimate D2E/DX2                !
 ! A23   A(10,8,38)            112.6884         estimate D2E/DX2                !
 ! A24   A(11,8,38)            112.6884         estimate D2E/DX2                !
 ! A25   A(11,9,12)            112.6884         estimate D2E/DX2                !
 ! A26   A(11,9,37)            112.6884         estimate D2E/DX2                !
 ! A27   A(12,9,37)            112.6884         estimate D2E/DX2                !
 ! A28   A(1,10,8)             112.6884         estimate D2E/DX2                !
 ! A29   A(1,10,13)            112.6884         estimate D2E/DX2                !
 ! A30   A(8,10,13)            112.6884         estimate D2E/DX2                !
 ! A31   A(8,11,9)             112.6884         estimate D2E/DX2                !
 ! A32   A(8,11,14)            112.6884         estimate D2E/DX2                !
 ! A33   A(9,11,14)            112.6884         estimate D2E/DX2                !
 ! A34   A(9,12,15)            112.6884         estimate D2E/DX2                !
 ! A35   A(9,12,36)            112.6884         estimate D2E/DX2                !
 ! A36   A(15,12,36)           112.6884         estimate D2E/DX2                !
 ! A37   A(10,13,22)           112.6884         estimate D2E/DX2                !
 ! A38   A(10,13,44)           112.6884         estimate D2E/DX2                !
 ! A39   A(22,13,44)           112.6884         estimate D2E/DX2                !
 ! A40   A(11,14,23)           112.6884         estimate D2E/DX2                !
 ! A41   A(11,14,44)           112.6884         estimate D2E/DX2                !
 ! A42   A(23,14,44)           112.6884         estimate D2E/DX2                !
 ! A43   A(12,15,23)           112.6884         estimate D2E/DX2                !
 ! A44   A(12,15,35)           112.6884         estimate D2E/DX2                !
 ! A45   A(23,15,35)           112.6884         estimate D2E/DX2                !
 ! A46   A(22,16,24)           112.6884         estimate D2E/DX2                !
 ! A47   A(22,16,25)           112.6884         estimate D2E/DX2                !
 ! A48   A(24,16,25)           112.6884         estimate D2E/DX2                !
 ! A49   A(25,17,26)           112.6884         estimate D2E/DX2                !
 ! A50   A(25,17,44)           112.6884         estimate D2E/DX2                !
 ! A51   A(26,17,44)           112.6884         estimate D2E/DX2                !
 ! A52   A(23,18,26)           112.6884         estimate D2E/DX2                !
 ! A53   A(23,18,34)           112.6884         estimate D2E/DX2                !
 ! A54   A(26,18,34)           112.6884         estimate D2E/DX2                !
 ! A55   A(24,19,27)           112.6884         estimate D2E/DX2                !
 ! A56   A(24,19,28)           112.6884         estimate D2E/DX2                !
 ! A57   A(27,19,28)           112.6884         estimate D2E/DX2                !
 ! A58   A(25,20,28)           112.6884         estimate D2E/DX2                !
 ! A59   A(25,20,29)           112.6884         estimate D2E/DX2                !
 ! A60   A(28,20,29)           112.6884         estimate D2E/DX2                !
 ! A61   A(26,21,29)           112.6884         estimate D2E/DX2                !
 ! A62   A(26,21,33)           112.6884         estimate D2E/DX2                !
 ! A63   A(29,21,33)           112.6884         estimate D2E/DX2                !
 ! A64   A(3,22,13)            112.6884         estimate D2E/DX2                !
 ! A65   A(3,22,16)            112.6884         estimate D2E/DX2                !
 ! A66   A(13,22,16)           112.6884         estimate D2E/DX2                !
 ! A67   A(14,23,15)           112.6884         estimate D2E/DX2                !
 ! A68   A(14,23,18)           112.6884         estimate D2E/DX2                !
 ! A69   A(15,23,18)           112.6884         estimate D2E/DX2                !
 ! A70   A(4,24,16)            112.6884         estimate D2E/DX2                !
 ! A71   A(4,24,19)            112.6884         estimate D2E/DX2                !
 ! A72   A(16,24,19)           112.6884         estimate D2E/DX2                !
 ! A73   A(16,25,17)           112.6884         estimate D2E/DX2                !
 ! A74   A(16,25,20)           112.6884         estimate D2E/DX2                !
 ! A75   A(17,25,20)           112.6884         estimate D2E/DX2                !
 ! A76   A(17,26,18)           112.6884         estimate D2E/DX2                !
 ! A77   A(17,26,21)           112.6884         estimate D2E/DX2                !
 ! A78   A(18,26,21)           112.6884         estimate D2E/DX2                !
 ! A79   A(5,27,19)            112.6884         estimate D2E/DX2                !
 ! A80   A(5,27,30)            112.6884         estimate D2E/DX2                !
 ! A81   A(19,27,30)           112.6884         estimate D2E/DX2                !
 ! A82   A(19,28,20)           112.6884         estimate D2E/DX2                !
 ! A83   A(19,28,31)           112.6884         estimate D2E/DX2                !
 ! A84   A(20,28,31)           112.6884         estimate D2E/DX2                !
 ! A85   A(20,29,21)           112.6884         estimate D2E/DX2                !
 ! A86   A(20,29,32)           112.6884         estimate D2E/DX2                !
 ! A87   A(21,29,32)           112.6884         estimate D2E/DX2                !
 ! A88   A(13,44,14)           112.6884         estimate D2E/DX2                !
 ! A89   A(13,44,17)           112.6884         estimate D2E/DX2                !
 ! A90   A(14,44,17)           112.6884         estimate D2E/DX2                !
 ! D1    D(10,1,2,3)            51.1032         estimate D2E/DX2                !
 ! D2    D(10,1,2,40)          180.0            estimate D2E/DX2                !
 ! D3    D(39,1,2,3)           180.0            estimate D2E/DX2                !
 ! D4    D(39,1,2,40)          -51.1032         estimate D2E/DX2                !
 ! D5    D(2,1,10,8)           180.0            estimate D2E/DX2                !
 ! D6    D(2,1,10,13)          -51.1032         estimate D2E/DX2                !
 ! D7    D(39,1,10,8)           51.1032         estimate D2E/DX2                !
 ! D8    D(39,1,10,13)         180.0            estimate D2E/DX2                !
 ! D9    D(1,2,3,6)            180.0            estimate D2E/DX2                !
 ! D10   D(1,2,3,22)           -51.1032         estimate D2E/DX2                !
 ! D11   D(40,2,3,6)            51.1032         estimate D2E/DX2                !
 ! D12   D(40,2,3,22)         -180.0            estimate D2E/DX2                !
 ! D13   D(2,3,6,4)            180.0            estimate D2E/DX2                !
 ! D14   D(2,3,6,41)           -51.1032         estimate D2E/DX2                !
 ! D15   D(22,3,6,4)            51.1032         estimate D2E/DX2                !
 ! D16   D(22,3,6,41)          180.0            estimate D2E/DX2                !
 ! D17   D(2,3,22,13)           51.1032         estimate D2E/DX2                !
 ! D18   D(2,3,22,16)          180.0            estimate D2E/DX2                !
 ! D19   D(6,3,22,13)          180.0            estimate D2E/DX2                !
 ! D20   D(6,3,22,16)          -51.1032         estimate D2E/DX2                !
 ! D21   D(7,4,6,3)            180.0            estimate D2E/DX2                !
 ! D22   D(7,4,6,41)            51.1032         estimate D2E/DX2                !
 ! D23   D(24,4,6,3)           -51.1032         estimate D2E/DX2                !
 ! D24   D(24,4,6,41)          180.0            estimate D2E/DX2                !
 ! D25   D(6,4,7,5)            180.0            estimate D2E/DX2                !
 ! D26   D(6,4,7,42)           -67.2727         estimate D2E/DX2                !
 ! D27   D(24,4,7,5)            51.1032         estimate D2E/DX2                !
 ! D28   D(24,4,7,42)          163.8304         estimate D2E/DX2                !
 ! D29   D(6,4,24,16)           51.1032         estimate D2E/DX2                !
 ! D30   D(6,4,24,19)          180.0            estimate D2E/DX2                !
 ! D31   D(7,4,24,16)          180.0            estimate D2E/DX2                !
 ! D32   D(7,4,24,19)          -51.1032         estimate D2E/DX2                !
 ! D33   D(27,5,7,4)           -51.1032         estimate D2E/DX2                !
 ! D34   D(27,5,7,42)         -165.4227         estimate D2E/DX2                !
 ! D35   D(43,5,7,4)           128.6399         estimate D2E/DX2                !
 ! D36   D(43,5,7,42)           14.3203         estimate D2E/DX2                !
 ! D37   D(7,5,27,19)           51.1032         estimate D2E/DX2                !
 ! D38   D(7,5,27,30)          180.0            estimate D2E/DX2                !
 ! D39   D(43,5,27,19)        -128.5377         estimate D2E/DX2                !
 ! D40   D(43,5,27,30)           0.3591         estimate D2E/DX2                !
 ! D41   D(11,8,10,1)          180.0            estimate D2E/DX2                !
 ! D42   D(11,8,10,13)          51.1032         estimate D2E/DX2                !
 ! D43   D(38,8,10,1)          -51.1032         estimate D2E/DX2                !
 ! D44   D(38,8,10,13)        -180.0            estimate D2E/DX2                !
 ! D45   D(10,8,11,9)          180.0            estimate D2E/DX2                !
 ! D46   D(10,8,11,14)         -51.1032         estimate D2E/DX2                !
 ! D47   D(38,8,11,9)           51.1032         estimate D2E/DX2                !
 ! D48   D(38,8,11,14)         180.0            estimate D2E/DX2                !
 ! D49   D(12,9,11,8)         -180.0            estimate D2E/DX2                !
 ! D50   D(12,9,11,14)          51.1032         estimate D2E/DX2                !
 ! D51   D(37,9,11,8)          -51.1032         estimate D2E/DX2                !
 ! D52   D(37,9,11,14)         180.0            estimate D2E/DX2                !
 ! D53   D(11,9,12,15)         -51.1032         estimate D2E/DX2                !
 ! D54   D(11,9,12,36)        -180.0            estimate D2E/DX2                !
 ! D55   D(37,9,12,15)         180.0            estimate D2E/DX2                !
 ! D56   D(37,9,12,36)          51.1032         estimate D2E/DX2                !
 ! D57   D(1,10,13,22)          51.1032         estimate D2E/DX2                !
 ! D58   D(1,10,13,44)         180.0            estimate D2E/DX2                !
 ! D59   D(8,10,13,22)         180.0            estimate D2E/DX2                !
 ! D60   D(8,10,13,44)         -51.1032         estimate D2E/DX2                !
 ! D61   D(8,11,14,23)         180.0            estimate D2E/DX2                !
 ! D62   D(8,11,14,44)          51.1032         estimate D2E/DX2                !
 ! D63   D(9,11,14,23)         -51.1032         estimate D2E/DX2                !
 ! D64   D(9,11,14,44)         180.0            estimate D2E/DX2                !
 ! D65   D(9,12,15,23)          51.1032         estimate D2E/DX2                !
 ! D66   D(9,12,15,35)         180.0            estimate D2E/DX2                !
 ! D67   D(36,12,15,23)        180.0            estimate D2E/DX2                !
 ! D68   D(36,12,15,35)        -51.1032         estimate D2E/DX2                !
 ! D69   D(10,13,22,3)         -51.1032         estimate D2E/DX2                !
 ! D70   D(10,13,22,16)        180.0            estimate D2E/DX2                !
 ! D71   D(44,13,22,3)         180.0            estimate D2E/DX2                !
 ! D72   D(44,13,22,16)         51.1032         estimate D2E/DX2                !
 ! D73   D(10,13,44,14)         51.1032         estimate D2E/DX2                !
 ! D74   D(10,13,44,17)        180.0            estimate D2E/DX2                !
 ! D75   D(22,13,44,14)       -180.0            estimate D2E/DX2                !
 ! D76   D(22,13,44,17)        -51.1032         estimate D2E/DX2                !
 ! D77   D(11,14,23,15)         51.1032         estimate D2E/DX2                !
 ! D78   D(11,14,23,18)        180.0            estimate D2E/DX2                !
 ! D79   D(44,14,23,15)        180.0            estimate D2E/DX2                !
 ! D80   D(44,14,23,18)        -51.1032         estimate D2E/DX2                !
 ! D81   D(11,14,44,13)        -51.1032         estimate D2E/DX2                !
 ! D82   D(11,14,44,17)        180.0            estimate D2E/DX2                !
 ! D83   D(23,14,44,13)       -180.0            estimate D2E/DX2                !
 ! D84   D(23,14,44,17)         51.1032         estimate D2E/DX2                !
 ! D85   D(12,15,23,14)        -51.1032         estimate D2E/DX2                !
 ! D86   D(12,15,23,18)        180.0            estimate D2E/DX2                !
 ! D87   D(35,15,23,14)        180.0            estimate D2E/DX2                !
 ! D88   D(35,15,23,18)         51.1032         estimate D2E/DX2                !
 ! D89   D(24,16,22,3)          51.1032         estimate D2E/DX2                !
 ! D90   D(24,16,22,13)        180.0            estimate D2E/DX2                !
 ! D91   D(25,16,22,3)         180.0            estimate D2E/DX2                !
 ! D92   D(25,16,22,13)        -51.1032         estimate D2E/DX2                !
 ! D93   D(22,16,24,4)         -51.1032         estimate D2E/DX2                !
 ! D94   D(22,16,24,19)        180.0            estimate D2E/DX2                !
 ! D95   D(25,16,24,4)         180.0            estimate D2E/DX2                !
 ! D96   D(25,16,24,19)         51.1032         estimate D2E/DX2                !
 ! D97   D(22,16,25,17)         51.1032         estimate D2E/DX2                !
 ! D98   D(22,16,25,20)        180.0            estimate D2E/DX2                !
 ! D99   D(24,16,25,17)        180.0            estimate D2E/DX2                !
 ! D100  D(24,16,25,20)        -51.1032         estimate D2E/DX2                !
 ! D101  D(26,17,25,16)       -180.0            estimate D2E/DX2                !
 ! D102  D(26,17,25,20)         51.1032         estimate D2E/DX2                !
 ! D103  D(44,17,25,16)        -51.1032         estimate D2E/DX2                !
 ! D104  D(44,17,25,20)        180.0            estimate D2E/DX2                !
 ! D105  D(25,17,26,18)        180.0            estimate D2E/DX2                !
 ! D106  D(25,17,26,21)        -51.1032         estimate D2E/DX2                !
 ! D107  D(44,17,26,18)         51.1032         estimate D2E/DX2                !
 ! D108  D(44,17,26,21)        180.0            estimate D2E/DX2                !
 ! D109  D(25,17,44,13)         51.1032         estimate D2E/DX2                !
 ! D110  D(25,17,44,14)        180.0            estimate D2E/DX2                !
 ! D111  D(26,17,44,13)        180.0            estimate D2E/DX2                !
 ! D112  D(26,17,44,14)        -51.1032         estimate D2E/DX2                !
 ! D113  D(26,18,23,14)         51.1032         estimate D2E/DX2                !
 ! D114  D(26,18,23,15)        180.0            estimate D2E/DX2                !
 ! D115  D(34,18,23,14)        180.0            estimate D2E/DX2                !
 ! D116  D(34,18,23,15)        -51.1032         estimate D2E/DX2                !
 ! D117  D(23,18,26,17)        -51.1032         estimate D2E/DX2                !
 ! D118  D(23,18,26,21)        180.0            estimate D2E/DX2                !
 ! D119  D(34,18,26,17)        180.0            estimate D2E/DX2                !
 ! D120  D(34,18,26,21)         51.1032         estimate D2E/DX2                !
 ! D121  D(27,19,24,4)          51.1032         estimate D2E/DX2                !
 ! D122  D(27,19,24,16)        180.0            estimate D2E/DX2                !
 ! D123  D(28,19,24,4)         180.0            estimate D2E/DX2                !
 ! D124  D(28,19,24,16)        -51.1032         estimate D2E/DX2                !
 ! D125  D(24,19,27,5)         -51.1032         estimate D2E/DX2                !
 ! D126  D(24,19,27,30)        180.0            estimate D2E/DX2                !
 ! D127  D(28,19,27,5)         180.0            estimate D2E/DX2                !
 ! D128  D(28,19,27,30)         51.1032         estimate D2E/DX2                !
 ! D129  D(24,19,28,20)         51.1032         estimate D2E/DX2                !
 ! D130  D(24,19,28,31)        180.0            estimate D2E/DX2                !
 ! D131  D(27,19,28,20)        180.0            estimate D2E/DX2                !
 ! D132  D(27,19,28,31)        -51.1032         estimate D2E/DX2                !
 ! D133  D(28,20,25,16)         51.1032         estimate D2E/DX2                !
 ! D134  D(28,20,25,17)        180.0            estimate D2E/DX2                !
 ! D135  D(29,20,25,16)        180.0            estimate D2E/DX2                !
 ! D136  D(29,20,25,17)        -51.1032         estimate D2E/DX2                !
 ! D137  D(25,20,28,19)        -51.1032         estimate D2E/DX2                !
 ! D138  D(25,20,28,31)        180.0            estimate D2E/DX2                !
 ! D139  D(29,20,28,19)       -180.0            estimate D2E/DX2                !
 ! D140  D(29,20,28,31)         51.1032         estimate D2E/DX2                !
 ! D141  D(25,20,29,21)         51.1032         estimate D2E/DX2                !
 ! D142  D(25,20,29,32)        180.0            estimate D2E/DX2                !
 ! D143  D(28,20,29,21)        180.0            estimate D2E/DX2                !
 ! D144  D(28,20,29,32)        -51.1032         estimate D2E/DX2                !
 ! D145  D(29,21,26,17)         51.1032         estimate D2E/DX2                !
 ! D146  D(29,21,26,18)       -180.0            estimate D2E/DX2                !
 ! D147  D(33,21,26,17)        180.0            estimate D2E/DX2                !
 ! D148  D(33,21,26,18)        -51.1032         estimate D2E/DX2                !
 ! D149  D(26,21,29,20)        -51.1032         estimate D2E/DX2                !
 ! D150  D(26,21,29,32)        180.0            estimate D2E/DX2                !
 ! D151  D(33,21,29,20)        180.0            estimate D2E/DX2                !
 ! D152  D(33,21,29,32)         51.1032         estimate D2E/DX2                !
 --------------------------------------------------------------------------------
 Trust Radius=3.00D-01 FncErr=1.00D-07 GrdErr=1.00D-07
 Number of steps in this run=    264 maximum allowed number of steps=    264.
 GradGradGradGradGradGradGradGradGradGradGradGradGradGradGradGradGradGrad

                          Input orientation:                          
 ---------------------------------------------------------------------
 Center     Atomic      Atomic             Coordinates (Angstroms)
 Number     Number       Type             X           Y           Z
 ---------------------------------------------------------------------
      1          6           0        0.176948    1.023714    2.994967
      2          6           0        1.434948    0.297407    2.577810
      3          6           0        2.692948    1.023714    2.994967
      4          6           0        5.208948    1.023714    2.994967
      5          6           0        7.724948    1.023714    2.994967
      6          6           0        3.950948    0.297407    2.577810
      7          6           0        6.466948    0.297407    2.577810
      8          6           0       -1.081052    3.202634    2.994967
      9          6           0       -2.339052    5.381554    2.994967
     10          6           0        0.176948    2.476327    2.577810
     11          6           0       -1.081052    4.655247    2.577810
     12          6           0       -2.339052    6.834167    2.577810
     13          6           0        1.434948    3.202634    2.994967
     14          6           0        0.176948    5.381554    2.994967
     15          6           0       -1.081052    7.560474    2.994967
     16          6           0        3.950948    3.202634    2.994967
     17          6           0        2.692948    5.381554    2.994967
     18          6           0        1.434948    7.560474    2.994967
     19          6           0        6.466948    3.202634    2.994967
     20          6           0        5.208948    5.381554    2.994967
     21          6           0        3.950948    7.560474    2.994967
     22          6           0        2.692948    2.476327    2.577810
     23          6           0        0.176948    6.834167    2.577810
     24          6           0        5.208948    2.476327    2.577810
     25          6           0        3.950948    4.655247    2.577810
     26          6           0        2.692948    6.834167    2.577810
     27          6           0        7.724948    2.476327    2.577810
     28          6           0        6.466948    4.655247    2.577810
     29          6           0        5.208948    6.834167    2.577810
     30          1           0        8.615597    2.990544    2.873152
     31          1           0        7.357597    5.169464    2.873152
     32          1           0        6.099597    7.348383    2.873152
     33          1           0        3.950948    8.588906    2.699625
     34          1           0        1.434948    8.588906    2.699625
     35          1           0       -1.081052    8.588906    2.699625
     36          1           0       -3.229701    7.348383    2.873152
     37          1           0       -3.229701    4.867338    2.699625
     38          1           0       -1.971701    2.688418    2.699625
     39          1           0       -0.713701    0.509498    2.699625
     40          1           0        1.434948   -0.731025    2.873152
     41          1           0        3.950948   -0.731025    2.873152
     42          1           0        6.495217   -0.604546    3.152772
     43          1           0        8.373408    0.350713    3.515994
     44          5           0        1.434948    4.655247    2.577810
 ---------------------------------------------------------------------
                    Distance matrix (angstroms):
                    1          2          3          4          5
     1  C    0.000000
     2  C    1.511326   0.000000
     3  C    2.516000   1.511326   0.000000
     4  C    5.032000   3.865827   2.516000   0.000000
     5  C    7.548000   6.345521   5.032000   2.516000   0.000000
     6  C    3.865827   2.516000   1.511326   1.511326   3.865827
     7  C    6.345521   5.032000   3.865827   1.511326   1.511326
     8  C    2.516000   3.865827   4.357840   6.656710   9.071567
     9  C    5.032000   6.345521   6.656710   8.715680  10.966990
    10  C    1.511326   2.516000   2.935023   5.254058   7.697818
    11  C    3.865827   5.032000   5.254058   7.275036   9.534552
    12  C    6.345521   7.548000   7.697818   9.534552  11.628391
    13  C    2.516000   2.935023   2.516000   4.357840   6.656710
    14  C    4.357840   5.254058   5.032000   6.656710   8.715680
    15  C    6.656710   7.697818   7.548000   9.071567  10.966990
    16  C    4.357840   3.865827   2.516000   2.516000   4.357840
    17  C    5.032000   5.254058   4.357840   5.032000   6.656710
    18  C    6.656710   7.275036   6.656710   7.548000   9.071567
    19  C    6.656710   5.825409   4.357840   2.516000   2.516000
    20  C    6.656710   6.345521   5.032000   4.357840   5.032000
    21  C    7.548000   7.697818   6.656710   6.656710   7.548000
    22  C    2.935023   2.516000   1.511326   2.935023   5.254058
    23  C    5.825409   6.656710   6.345521   7.697818   9.534552
    24  C    5.254058   4.357840   2.935023   1.511326   2.935023
    25  C    5.254058   5.032000   3.865827   3.865827   5.254058
    26  C    6.345521   6.656710   5.825409   6.345521   7.697818
    27  C    7.697818   6.656710   5.254058   2.935023   1.511326
    28  C    7.275036   6.656710   5.254058   3.865827   3.865827
    29  C    7.697818   7.548000   6.345521   5.825409   6.345521
    30  H    8.665682   7.674759   6.241877   3.935545   2.162524
    31  H    8.292394   7.674759   6.241877   4.671056   4.163775
    32  H    8.665682   8.459458   7.184813   6.388234   6.531313
    33  H    8.459458   8.665682   7.674759   7.674759   8.459458
    34  H    7.674759   8.292394   7.674759   8.459458   9.842940
    35  H    7.674759   8.665682   8.459458   9.842940  11.613139
    36  H    7.184813   8.459458   8.665682  10.546425  12.649925
    37  H    5.144504   6.531313   7.066713   9.277471  11.613139
    38  H    2.734073   4.163775   4.961594   7.377003   9.842940
    39  H    1.070000   2.162524   3.457875   5.952261   8.459458
    40  H    2.162524   1.070000   2.162524   4.163775   6.531313
    41  H    4.163775   2.734073   2.162524   2.162524   4.163775
    42  H    6.526612   5.172082   4.139249   2.081015   2.046551
    43  H    8.240531   7.001804   5.743868   3.276920   1.070000
    44  B    3.865827   4.357840   3.865827   5.254058   7.275036
                    6          7          8          9         10
     6  C    0.000000
     7  C    2.516000   0.000000
     8  C    5.825409   8.098559   0.000000
     9  C    8.098559  10.176846   2.516000   0.000000
    10  C    4.357840   6.656710   1.511326   3.865827   0.000000
    11  C    6.656710   8.715680   1.511326   1.511326   2.516000
    12  C    9.071567  10.966990   3.865827   1.511326   5.032000
    13  C    3.865827   5.825409   2.516000   4.357840   1.511326
    14  C    6.345521   8.098559   2.516000   2.516000   2.935023
    15  C    8.845743  10.483246   4.357840   2.516000   5.254058
    16  C    2.935023   3.865827   5.032000   6.656710   3.865827
    17  C    5.254058   6.345521   4.357840   5.032000   3.865827
    18  C    7.697818   8.845743   5.032000   4.357840   5.254058
    19  C    3.865827   2.935023   7.548000   9.071567   6.345521
    20  C    5.254058   5.254058   6.656710   7.548000   5.825409
    21  C    7.275036   7.697818   6.656710   6.656710   6.345521
    22  C    2.516000   4.357840   3.865827   5.825409   2.516000
    23  C    7.548000   9.071567   3.865827   2.935023   4.357840
    24  C    2.516000   2.516000   6.345521   8.098559   5.032000
    25  C    4.357840   5.032000   5.254058   6.345521   4.357840
    26  C    6.656710   7.548000   5.254058   5.254058   5.032000
    27  C    4.357840   2.516000   8.845743  10.483246   7.548000
    28  C    5.032000   4.357840   7.697818   8.845743   6.656710
    29  C    6.656710   6.656710   7.275036   7.697818   6.656710
    30  H    5.394363   3.457875   9.699733  11.213211   8.459458
    31  H    5.952261   4.961594   8.665682   9.699733   7.674759
    32  H    7.377003   7.066713   8.292394   8.665682   7.674759
    33  H    8.292394   8.665682   7.377003   7.066713   7.184813
    34  H    8.665682   9.699733   5.952261   4.961594   6.241877
    35  H    9.699733  11.213211   5.394363   3.457875   6.241877
    36  H   10.068029  11.992851   4.671056   2.162524   5.952261
    37  H    8.512392  10.720266   2.734073   1.070000   4.163775
    38  H    6.388234   8.771691   1.070000   2.734073   2.162524
    39  H    4.671056   7.184813   2.734073   5.144504   2.162524
    40  H    2.734073   5.144504   4.671056   7.184813   3.457875
    41  H    1.070000   2.734073   6.388234   8.771691   4.961594
    42  H    2.759965   1.070000   8.480529  10.672516   7.052864
    43  H    4.521192   2.125469   9.888970  11.846418   8.519412
    44  B    5.032000   6.656710   2.935023   3.865827   2.516000
                   11         12         13         14         15
    11  C    0.000000
    12  C    2.516000   0.000000
    13  C    2.935023   5.254058   0.000000
    14  C    1.511326   2.935023   2.516000   0.000000
    15  C    2.935023   1.511326   5.032000   2.516000   0.000000
    16  C    5.254058   7.275036   2.516000   4.357840   6.656710
    17  C    3.865827   5.254058   2.516000   2.516000   4.357840
    18  C    3.865827   3.865827   4.357840   2.516000   2.516000
    19  C    7.697818   9.534552   5.032000   6.656710   8.715680
    20  C    6.345521   7.697818   4.357840   5.032000   6.656710
    21  C    5.825409   6.345521   5.032000   4.357840   5.032000
    22  C    4.357840   6.656710   1.511326   3.865827   6.345521
    23  C    2.516000   2.516000   3.865827   1.511326   1.511326
    24  C    6.656710   8.715680   3.865827   5.825409   8.098559
    25  C    5.032000   6.656710   2.935023   3.865827   5.825409
    26  C    4.357840   5.032000   3.865827   2.935023   3.865827
    27  C    9.071567  10.966990   6.345521   8.098559  10.176846
    28  C    7.548000   9.071567   5.254058   6.345521   8.098559
    29  C    6.656710   7.548000   5.254058   5.254058   6.345521
    30  H    9.842940  11.613139   7.184813   8.771691  10.720266
    31  H    8.459458   9.842940   6.241877   7.184813   8.771691
    32  H    7.674759   8.459458   6.241877   6.241877   7.184813
    33  H    6.388234   6.531313   5.952261   4.961594   5.144504
    34  H    4.671056   4.163775   5.394363   3.457875   2.734073
    35  H    3.935545   2.162524   5.952261   3.457875   1.070000
    36  H    3.457875   1.070000   6.241877   3.935545   2.162524
    37  H    2.162524   2.162524   4.961594   3.457875   3.457875
    38  H    2.162524   4.163775   3.457875   3.457875   4.961594
    39  H    4.163775   6.531313   3.457875   4.961594   7.066713
    40  H    5.952261   8.459458   3.935545   6.241877   8.665682
    41  H    7.377003   9.842940   4.671056   7.184813   9.699733
    42  H    9.240988  11.563276   6.334497   8.705103  11.139673
    43  H   10.430533  12.556757   7.519784   9.631344  11.901215
    44  B    2.516000   4.357840   1.511326   1.511326   3.865827
                   16         17         18         19         20
    16  C    0.000000
    17  C    2.516000   0.000000
    18  C    5.032000   2.516000   0.000000
    19  C    2.516000   4.357840   6.656710   0.000000
    20  C    2.516000   2.516000   4.357840   2.516000   0.000000
    21  C    4.357840   2.516000   2.516000   5.032000   2.516000
    22  C    1.511326   2.935023   5.254058   3.865827   3.865827
    23  C    5.254058   2.935023   1.511326   7.275036   5.254058
    24  C    1.511326   3.865827   6.345521   1.511326   2.935023
    25  C    1.511326   1.511326   3.865827   2.935023   1.511326
    26  C    3.865827   1.511326   1.511326   5.254058   2.935023
    27  C    3.865827   5.825409   8.098559   1.511326   3.865827
    28  C    2.935023   3.865827   5.825409   1.511326   1.511326
    29  C    3.865827   2.935023   3.865827   3.865827   1.511326
    30  H    4.671056   6.388234   8.512392   2.162524   4.163775
    31  H    3.935545   4.671056   6.388234   2.162524   2.162524
    32  H    4.671056   3.935545   4.671056   4.163775   2.162524
    33  H    5.394363   3.457875   2.734073   5.952261   3.457875
    34  H    5.952261   3.457875   1.070000   7.377003   4.961594
    35  H    7.377003   4.961594   2.734073   9.277471   7.066713
    36  H    8.292394   6.241877   4.671056  10.546425   8.665682
    37  H    7.377003   5.952261   5.394363   9.842940   8.459458
    38  H    5.952261   5.394363   5.952261   8.459458   7.674759
    39  H    5.394363   5.952261   7.377003   7.674759   7.674759
    40  H    4.671056   6.241877   8.292394   6.388234   7.184813
    41  H    3.935545   6.241877   8.665682   4.671056   6.241877
    42  H    4.581793   7.093345   9.607225   3.810554   6.124768
    43  H    5.288012   7.605817  10.019698   3.469800   5.966124
    44  B    2.935023   1.511326   2.935023   5.254058   3.865827
                   21         22         23         24         25
    21  C    0.000000
    22  C    5.254058   0.000000
    23  C    3.865827   5.032000   0.000000
    24  C    5.254058   2.516000   6.656710   0.000000
    25  C    2.935023   2.516000   4.357840   2.516000   0.000000
    26  C    1.511326   4.357840   2.516000   5.032000   2.516000
    27  C    6.345521   5.032000   8.715680   2.516000   4.357840
    28  C    3.865827   4.357840   6.656710   2.516000   2.516000
    29  C    1.511326   5.032000   5.032000   4.357840   2.516000
    30  H    6.531313   5.952261   9.277471   3.457875   4.961594
    31  H    4.163775   5.394363   7.377003   3.457875   3.457875
    32  H    2.162524   5.952261   5.952261   4.961594   3.457875
    33  H    1.070000   6.241877   4.163775   6.241877   3.935545
    34  H    2.734073   6.241877   2.162524   7.184813   4.671056
    35  H    5.144504   7.184813   2.162524   8.771691   6.388234
    36  H    7.184813   7.674759   3.457875   9.748587   7.674759
    37  H    7.674759   6.388234   3.935545   8.771691   7.184813
    38  H    7.674759   4.671056   4.671056   7.184813   6.241877
    39  H    8.459458   3.935545   6.388234   6.241877   6.241877
    40  H    8.665682   3.457875   7.674759   4.961594   5.952261
    41  H    8.292394   3.457875   8.459458   3.457875   5.394363
    42  H    8.553698   4.927435   9.776787   3.387750   5.871057
    43  H    8.474094   6.137267  10.492727   3.925841   6.242384
    44  B    3.865827   2.516000   2.516000   4.357840   2.516000
                   26         27         28         29         30
    26  C    0.000000
    27  C    6.656710   0.000000
    28  C    4.357840   2.516000   0.000000
    29  C    2.516000   5.032000   2.516000   0.000000
    30  H    7.066713   1.070000   2.734073   5.144504   0.000000
    31  H    4.961594   2.734073   1.070000   2.734073   2.516000
    32  H    3.457875   5.144504   2.734073   1.070000   5.032000
    33  H    2.162524   7.184813   4.671056   2.162524   7.289082
    34  H    2.162524   8.771691   6.388234   4.163775   9.106783
    35  H    4.163775  10.720266   8.512392   6.531313  11.198070
    36  H    5.952261  11.992851  10.068029   8.459458  12.621483
    37  H    6.241877  11.213211   9.699733   8.665682  11.994313
    38  H    6.241877   9.699733   8.665682   8.292394  10.593029
    39  H    7.184813   8.665682   8.292394   8.665682   9.655127
    40  H    7.674759   7.066713   7.377003   8.459458   8.087755
    41  H    7.674759   4.961594   5.952261   7.674759   5.967329
    42  H    8.373905   3.366689   5.291201   7.570966   4.183164
    43  H    8.670812   2.412245   4.800395   7.275244   2.727747
    44  B    2.516000   6.656710   5.032000   4.357840   7.377003
                   31         32         33         34         35
    31  H    0.000000
    32  H    2.516000   0.000000
    33  H    4.829902   2.487107   0.000000
    34  H    6.841087   4.829902   2.516000   0.000000
    35  H    9.106783   7.289082   5.032000   2.516000   0.000000
    36  H   10.809188   9.329297   7.289082   4.829902   2.487107
    37  H   10.593029   9.655127   8.087755   5.967329   4.297297
    38  H    9.655127   9.321547   8.360235   6.813297   5.967329
    39  H    9.321547   9.655127   9.329297   8.360235   8.087755
    40  H    8.360235   9.329297   9.655127   9.321547   9.655127
    41  H    6.813297   8.360235   9.321547   9.655127  10.593029
    42  H    5.844747   7.967671   9.549775  10.503867  11.921609
    43  H    4.966435   7.385855   9.385757  10.801690  12.566666
    44  B    5.952261   5.394363   4.671056   3.935545   4.671056
                   36         37         38         39         40
    36  H    0.000000
    37  H    2.487107   0.000000
    38  H    4.829902   2.516000   0.000000
    39  H    7.289082   5.032000   2.516000   0.000000
    40  H    9.329297   7.289082   4.829902   2.487107   0.000000
    41  H   10.809188   9.106783   6.841087   4.829902   2.516000
    42  H   12.565878  11.167850   9.096024   7.308552   5.069567
    43  H   13.565130  12.477920  10.637321   9.125087   7.051640
    44  B    5.394363   4.671056   3.935545   4.671056   5.394363
                   41         42         43         44
    41  H    0.000000
    42  H    2.562712   0.000000
    43  H    4.597995   2.138235   0.000000
    44  B    5.952261   7.321361   8.218967   0.000000
 Stoichiometry    C29H14B(2)
 Framework group  C1[X(C29H14B)]
 Deg. of freedom   126
 Full point group                 C1      NOp   1
 Largest Abelian subgroup         C1      NOp   1
 Largest concise Abelian subgroup C1      NOp   1
                         Standard orientation:                         
 ---------------------------------------------------------------------
 Center     Atomic      Atomic             Coordinates (Angstroms)
 Number     Number       Type             X           Y           Z
 ---------------------------------------------------------------------
      1          6           0       -0.729847   -3.774103    0.198047
      2          6           0        0.723140   -3.772493   -0.217800
      3          6           0        1.447974   -2.514206    0.201047
      4          6           0        3.625795   -1.254308    0.204048
      5          6           0        5.803616    0.005590    0.207048
      6          6           0        2.900962   -2.512595   -0.214800
      7          6           0        5.078783   -1.252698   -0.211800
      8          6           0       -2.909863   -2.518003    0.197122
      9          6           0       -5.089878   -1.261903    0.196196
     10          6           0       -1.456875   -2.516393   -0.218726
     11          6           0       -3.636890   -1.260293   -0.219652
     12          6           0       -5.816906   -0.004192   -0.220577
     13          6           0       -0.732041   -1.258105    0.200122
     14          6           0       -2.912057   -0.002005    0.199196
     15          6           0       -5.092072    1.254096    0.198270
     16          6           0        1.445780    0.001793    0.203122
     17          6           0       -0.734236    1.257893    0.202196
     18          6           0       -2.914251    2.513993    0.201270
     19          6           0        3.623601    1.261690    0.206122
     20          6           0        1.443585    2.517791    0.205196
     21          6           0       -0.736430    3.773891    0.204270
     22          6           0        0.720946   -1.256495   -0.215726
     23          6           0       -3.639085    1.255706   -0.217577
     24          6           0        2.898767    0.003403   -0.212726
     25          6           0        0.718752    1.259503   -0.213651
     26          6           0       -1.461264    2.515603   -0.214577
     27          6           0        5.076588    1.263301   -0.209726
     28          6           0        2.896573    2.519401   -0.210651
     29          6           0        0.716558    3.775501   -0.211577
     30          1           0        5.589761    2.154153    0.086813
     31          1           0        3.409746    3.410253    0.085888
     32          1           0        1.229731    4.666354    0.084962
     33          1           0       -1.251157    4.664335   -0.090800
     34          1           0       -3.428978    3.404437   -0.093800
     35          1           0       -5.606799    2.144539   -0.096800
     36          1           0       -6.845603   -0.005332    0.073838
     37          1           0       -5.603051   -2.152755   -0.100343
     38          1           0       -3.423036   -3.408855   -0.099417
     39          1           0       -1.243020   -4.664956   -0.098492
     40          1           0        1.237867   -4.662937    0.077270
     41          1           0        3.415688   -3.403039    0.080270
     42          1           0        5.554392   -2.019737    0.362958
     43          1           0        6.701455   -0.252663    0.728671
     44          5           0       -1.459069   -0.000395   -0.216651
 ---------------------------------------------------------------------
 Rotational constants (GHZ):      0.2993500      0.1336865      0.0929704
 Standard basis: VSTO-6G (5D, 7F)
 There are   134 symmetry adapted cartesian basis functions of A   symmetry.
 There are   134 symmetry adapted basis functions of A   symmetry.
   134 basis functions,   804 primitive gaussians,   134 cartesian basis functions
    67 alpha electrons       66 beta electrons
       nuclear repulsion energy      1216.8481107482 Hartrees.
 Integral buffers will be    262144 words long.
 Regular integral format.
 Two-electron integral symmetry is turned off.
 Do NDO integrals.
 One-electron integrals computed using PRISM.
 NBasis=   134 RedAO= F EigKep=  0.00D+00  NBF=   134
 NBsUse=   134 1.00D-04 EigRej=  0.00D+00 NBFU=   134
 Simple Huckel Guess.
 Initial guess <Sx>= 0.0000 <Sy>= 0.0000 <Sz>= 0.5000 <S**2>= 0.7500 S= 0.5000
 Keep J ints in memory in canonical form, NReq=1097150.
 Gradient too large for Newton-Raphson -- use scaled steepest descent instead.
     Minimum is close to point  6 DX=  9.18D-02 DF= -1.57D-03 DXR=  6.59D-02 DFR=  4.30D-03 which will be used.
 Gradient too large for Newton-Raphson -- use scaled steepest descent instead.
     Minimum is close to point  3 DX=  6.32D-02 DF= -1.18D-04 DXR=  5.95D-02 DFR=  3.50D-03 which will be used.
 Gradient too large for Newton-Raphson -- use scaled steepest descent instead.
     Accept linear search using points  2 and  3.
 Gradient too large for Newton-Raphson -- use scaled steepest descent instead.
     Accept linear search using points  1 and  2.
     Minimum is close to point  2 DX= -3.53D-02 DF= -1.04D-05 DXR=  2.79D-02 DFR=  1.18D-03 which will be used.
 Gradient too large for Newton-Raphson -- use scaled steepest descent instead.
 Gradient too large for Newton-Raphson -- use scaled steepest descent instead.
     Accept linear search using points  1 and  2.
     Minimum is close to point  2 DX= -2.50D-02 DF= -4.41D-06 DXR=  1.69D-02 DFR=  5.46D-04 which will be used.
 Gradient too large for Newton-Raphson -- use scaled steepest descent instead.
     Accept linear search using points  1 and  2.
     Minimum is close to point  2 DX= -1.78D-02 DF= -2.13D-06 DXR=  1.12D-02 DFR=  2.76D-04 which will be used.
 Gradient too large for Newton-Raphson -- use scaled steepest descent instead.
     Accept linear search using points  1 and  2.
     Minimum is close to point  2 DX= -8.02D-03 DF= -4.03D-07 DXR=  5.38D-03 DFR=  5.67D-05 which will be used.
 Gradient too large for Newton-Raphson -- use scaled steepest descent instead.
     Minimum is close to point  2 DX=  1.32D-01 DF= -4.09D-05 DXR=  8.12D-02 DFR=  6.63D-03 which will be used.
 Gradient too large for Newton-Raphson -- use scaled steepest descent instead.
 Gradient too large for Newton-Raphson -- use scaled steepest descent instead.
     Accept linear search using points  1 and  2.
     Minimum is close to point  2 DX= -9.35D-02 DF= -3.07D-05 DXR=  5.82D-02 DFR=  6.91D-03 which will be used.
 Gradient too large for Newton-Raphson -- use scaled steepest descent instead.
     Accept linear search using points  1 and  2.
     Minimum is close to point  2 DX= -1.32D-01 DF= -5.23D-05 DXR=  8.40D-02 DFR=  1.37D-02 which will be used.
 Gradient too large for Newton-Raphson -- use scaled steepest descent instead.
     Accept linear search using points  1 and  2.
     Minimum is close to point  2 DX= -1.06D-01 DF= -3.20D-05 DXR=  7.07D-02 DFR=  9.29D-03 which will be used.
 Gradient too large for Newton-Raphson -- use scaled steepest descent instead.
     Accept linear search using points  1 and  2.
     Minimum is close to point  2 DX= -2.48D-03 DF= -1.63D-08 DXR=  1.66D-03 DFR=  5.45D-06 which will be used.
 Gradient too large for Newton-Raphson -- use scaled steepest descent instead.
 Gradient too large for Newton-Raphson -- use scaled steepest descent instead.
     Minimum is close to point  2 DX= -1.04D-01 DF= -1.11D-05 DXR=  6.54D-02 DFR=  4.29D-03 which will be used.
 Gradient too large for Newton-Raphson -- use scaled steepest descent instead.
     Minimum is close to point  2 DX=  2.00D-02 DF= -3.28D-07 DXR=  1.10D-02 DFR=  1.21D-04 which will be used.
 Gradient too large for Newton-Raphson -- use scaled steepest descent instead.
 Gradient too large for Newton-Raphson -- use scaled steepest descent instead.
     Minimum is close to point  2 DX= -1.47D-01 DF= -2.29D-05 DXR=  8.40D-02 DFR=  7.11D-03 which will be used.
 Gradient too large for Newton-Raphson -- use scaled steepest descent instead.
 Gradient too large for Newton-Raphson -- use scaled steepest descent instead.
 Gradient too large for Newton-Raphson -- use scaled steepest descent instead.
 Gradient too large for Newton-Raphson -- use scaled steepest descent instead.
     Minimum is close to point  2 DX=  1.65D-01 DF= -1.75D-05 DXR=  8.84D-02 DFR=  7.88D-03 which will be used.
 Gradient too large for Newton-Raphson -- use scaled steepest descent instead.
     Minimum is close to point  2 DX=  1.21D-01 DF= -7.83D-06 DXR=  6.66D-02 DFR=  4.45D-03 which will be used.
 Gradient too large for Newton-Raphson -- use scaled steepest descent instead.
     Minimum is close to point  2 DX= -3.46D-02 DF= -5.33D-07 DXR=  1.96D-02 DFR=  3.84D-04 which will be used.
 Gradient too large for Newton-Raphson -- use scaled steepest descent instead.
     Accept linear search using points  1 and  2.
     Minimum is close to point  2 DX= -7.25D-02 DF= -4.70D-06 DXR=  4.20D-02 DFR=  4.30D-03 which will be used.
 Gradient too large for Newton-Raphson -- use scaled steepest descent instead.
     Accept linear search using points  1 and  2.
     Minimum is close to point  2 DX= -1.21D-01 DF= -1.08D-05 DXR=  7.65D-02 DFR=  1.16D-02 which will be used.
 Gradient too large for Newton-Raphson -- use scaled steepest descent instead.
     Accept linear search using points  1 and  2.
     Minimum is close to point  2 DX= -1.19D-01 DF= -9.36D-06 DXR=  7.54D-02 DFR=  1.13D-02 which will be used.
 Gradient too large for Newton-Raphson -- use scaled steepest descent instead.
     Accept linear search using points  1 and  2.
     Minimum is close to point  2 DX= -6.76D-02 DF= -3.04D-06 DXR=  4.41D-02 DFR=  3.83D-03 which will be used.
 Gradient too large for Newton-Raphson -- use scaled steepest descent instead.
     Minimum is close to point  2 DX=  2.74D-02 DF= -2.12D-07 DXR=  1.68D-02 DFR=  2.83D-04 which will be used.
 Gradient too large for Newton-Raphson -- use scaled steepest descent instead.
 Gradient too large for Newton-Raphson -- use scaled steepest descent instead.
 Gradient too large for Newton-Raphson -- use scaled steepest descent instead.
 Gradient too large for Newton-Raphson -- use scaled steepest descent instead.
     Minimum is close to point  2 DX= -1.39D-01 DF= -5.52D-06 DXR=  8.89D-02 DFR=  7.96D-03 which will be used.
 Gradient too large for Newton-Raphson -- use scaled steepest descent instead.
     Minimum is close to point  2 DX= -1.20D-01 DF= -3.69D-06 DXR=  7.59D-02 DFR=  5.80D-03 which will be used.
 Gradient too large for Newton-Raphson -- use scaled steepest descent instead.
     Minimum is close to point  2 DX= -2.31D-02 DF= -1.21D-07 DXR=  1.46D-02 DFR=  2.14D-04 which will be used.
 Gradient too large for Newton-Raphson -- use scaled steepest descent instead.
     Minimum is close to point  2 DX=  1.51D-01 DF= -3.51D-06 DXR=  8.62D-02 DFR=  7.49D-03 which will be used.
 LinEq1:  Iter=  0 NonCon=     1 RMS=2.82D-04 Max=1.63D-02 NDo=     1
 AX will form     1 AO Fock derivatives at one time.
 LinEq1:  Iter=  1 NonCon=     1 RMS=1.33D-04 Max=3.80D-03 NDo=     1
 LinEq1:  Iter=  2 NonCon=     1 RMS=9.21D-06 Max=2.24D-04 NDo=     1
 LinEq1:  Iter=  3 NonCon=     1 RMS=2.06D-06 Max=4.51D-05 NDo=     1
 LinEq1:  Iter=  4 NonCon=     1 RMS=5.14D-07 Max=8.66D-06 NDo=     1
 LinEq1:  Iter=  5 NonCon=     1 RMS=1.41D-07 Max=1.95D-06 NDo=     1
 LinEq1:  Iter=  6 NonCon=     1 RMS=3.09D-08 Max=5.00D-07 NDo=     1
 LinEq1:  Iter=  7 NonCon=     1 RMS=6.33D-09 Max=9.78D-08 NDo=     1
 LinEq1:  Iter=  8 NonCon=     0 RMS=1.49D-09 Max=2.88D-08 NDo=     1
 Linear equations converged to 9.475D-09 9.475D-08 after     8 iterations.
     Accept linear search using points  1 and  2.
 LinEq1:  Iter=  0 NonCon=     1 RMS=6.45D-05 Max=1.86D-03 NDo=     1
 LinEq1:  Iter=  1 NonCon=     1 RMS=1.85D-05 Max=4.18D-04 NDo=     1
 LinEq1:  Iter=  2 NonCon=     1 RMS=3.01D-06 Max=5.59D-05 NDo=     1
 LinEq1:  Iter=  3 NonCon=     1 RMS=6.30D-07 Max=1.23D-05 NDo=     1
 LinEq1:  Iter=  4 NonCon=     1 RMS=1.84D-07 Max=4.83D-06 NDo=     1
 LinEq1:  Iter=  5 NonCon=     1 RMS=4.37D-08 Max=1.06D-06 NDo=     1
 LinEq1:  Iter=  6 NonCon=     1 RMS=1.04D-08 Max=2.85D-07 NDo=     1
 LinEq1:  Iter=  7 NonCon=     0 RMS=1.99D-09 Max=4.11D-08 NDo=     1
 Linear equations converged to 9.475D-09 9.475D-08 after     7 iterations.
     Accept linear search using points  1 and  2.
     Minimum is close to point  2 DX= -1.83D-03 DF= -6.72D-11 DXR=  1.84D-03 DFR=  3.38D-06 which will be used.
 LinEq1:  Iter=  0 NonCon=     1 RMS=2.52D-07 Max=4.70D-06 NDo=     1
 LinEq1:  Iter=  1 NonCon=     1 RMS=7.02D-08 Max=2.05D-06 NDo=     1
 LinEq1:  Iter=  2 NonCon=     1 RMS=1.64D-08 Max=2.93D-07 NDo=     1
 LinEq1:  Iter=  3 NonCon=     1 RMS=4.12D-09 Max=6.82D-08 NDo=     1
 LinEq1:  Iter=  4 NonCon=     1 RMS=1.05D-09 Max=1.34D-08 NDo=     1
 LinEq1:  Iter=  5 NonCon=     1 RMS=2.55D-10 Max=4.74D-09 NDo=     1
 LinEq1:  Iter=  6 NonCon=     0 RMS=5.88D-11 Max=9.45D-10 NDo=     1
 Linear equations converged to 1.173D-10 1.173D-09 after     6 iterations.
 SCF Done:  E(UPM6) =   1.04425771840     a.u. after   41 cycles
            Convg  =    0.1298D-06                   104 Fock formations.
              S**2 =  6.2249                  -V/T =  1.0115
 <Sx>= 0.0000 <Sy>= 0.0000 <Sz>= 0.5000 <S**2>= 6.2249 S= 2.0446
 <L.S>= 0.000000000000E+00
 Annihilation of the first spin contaminant:
 S**2 before annihilation     6.2249,   after    21.9966

 **********************************************************************

            Population analysis using the SCF density.

 **********************************************************************

 Orbital symmetries:
 Alpha Orbitals:
       Occupied  (A) (A) (A) (A) (A) (A) (A) (A) (A) (A) (A) (A)
                 (A) (A) (A) (A) (A) (A) (A) (A) (A) (A) (A) (A)
                 (A) (A) (A) (A) (A) (A) (A) (A) (A) (A) (A) (A)
                 (A) (A) (A) (A) (A) (A) (A) (A) (A) (A) (A) (A)
                 (A) (A) (A) (A) (A) (A) (A) (A) (A) (A) (A) (A)
                 (A) (A) (A) (A) (A) (A) (A)
       Virtual   (A) (A) (A) (A) (A) (A) (A) (A) (A) (A) (A) (A)
                 (A) (A) (A) (A) (A) (A) (A) (A) (A) (A) (A) (A)
                 (A) (A) (A) (A) (A) (A) (A) (A) (A) (A) (A) (A)
                 (A) (A) (A) (A) (A) (A) (A) (A) (A) (A) (A) (A)
                 (A) (A) (A) (A) (A) (A) (A) (A) (A) (A) (A) (A)
                 (A) (A) (A) (A) (A) (A) (A)
 Beta  Orbitals:
       Occupied  (A) (A) (A) (A) (A) (A) (A) (A) (A) (A) (A) (A)
                 (A) (A) (A) (A) (A) (A) (A) (A) (A) (A) (A) (A)
                 (A) (A) (A) (A) (A) (A) (A) (A) (A) (A) (A) (A)
                 (A) (A) (A) (A) (A) (A) (A) (A) (A) (A) (A) (A)
                 (A) (A) (A) (A) (A) (A) (A) (A) (A) (A) (A) (A)
                 (A) (A) (A) (A) (A) (A)
       Virtual   (A) (A) (A) (A) (A) (A) (A) (A) (A) (A) (A) (A)
                 (A) (A) (A) (A) (A) (A) (A) (A) (A) (A) (A) (A)
                 (A) (A) (A) (A) (A) (A) (A) (A) (A) (A) (A) (A)
                 (A) (A) (A) (A) (A) (A) (A) (A) (A) (A) (A) (A)
                 (A) (A) (A) (A) (A) (A) (A) (A) (A) (A) (A) (A)
                 (A) (A) (A) (A) (A) (A) (A) (A)
 The electronic state is 2-A.
 Alpha  occ. eigenvalues --   -1.06303  -1.05014  -1.04559  -1.03381  -1.00733
 Alpha  occ. eigenvalues --   -0.99455  -0.97127  -0.96591  -0.94079  -0.91126
 Alpha  occ. eigenvalues --   -0.90526  -0.90291  -0.86636  -0.85211  -0.84739
 Alpha  occ. eigenvalues --   -0.79854  -0.77588  -0.77227  -0.77099  -0.74329
 Alpha  occ. eigenvalues --   -0.73046  -0.70672  -0.67678  -0.65632  -0.65138
 Alpha  occ. eigenvalues --   -0.62594  -0.60646  -0.59879  -0.58136  -0.56720
 Alpha  occ. eigenvalues --   -0.55571  -0.55157  -0.53643  -0.53340  -0.52745
 Alpha  occ. eigenvalues --   -0.52230  -0.51253  -0.50544  -0.49429  -0.49116
 Alpha  occ. eigenvalues --   -0.48880  -0.47721  -0.47429  -0.47254  -0.47020
 Alpha  occ. eigenvalues --   -0.45918  -0.45664  -0.45342  -0.45079  -0.44848
 Alpha  occ. eigenvalues --   -0.44189  -0.43418  -0.43145  -0.41667  -0.41370
 Alpha  occ. eigenvalues --   -0.41165  -0.40715  -0.40042  -0.37992  -0.37809
 Alpha  occ. eigenvalues --   -0.37533  -0.37489  -0.36866  -0.36653  -0.35494
 Alpha  occ. eigenvalues --   -0.35100  -0.32572
 Alpha virt. eigenvalues --   -0.08273  -0.03565  -0.01055  -0.00591  -0.00393
 Alpha virt. eigenvalues --    0.00148   0.00398   0.01654   0.02348   0.02848
 Alpha virt. eigenvalues --    0.03523   0.04914   0.05658   0.06582   0.07676
 Alpha virt. eigenvalues --    0.10902   0.11143   0.11460   0.12374   0.12439
 Alpha virt. eigenvalues --    0.12580   0.13403   0.13433   0.13922   0.13955
 Alpha virt. eigenvalues --    0.14252   0.14401   0.14541   0.14930   0.15006
 Alpha virt. eigenvalues --    0.15066   0.15124   0.15272   0.15348   0.15516
 Alpha virt. eigenvalues --    0.15522   0.15791   0.15928   0.16067   0.16162
 Alpha virt. eigenvalues --    0.16280   0.16646   0.16988   0.17056   0.17362
 Alpha virt. eigenvalues --    0.17456   0.17558   0.17930   0.18218   0.18416
 Alpha virt. eigenvalues --    0.18588   0.18832   0.19348   0.21079   0.21191
 Alpha virt. eigenvalues --    0.21408   0.21558   0.21603   0.21684   0.21691
 Alpha virt. eigenvalues --    0.21744   0.21779   0.21873   0.21919   0.22116
 Alpha virt. eigenvalues --    0.22258   0.22490
  Beta  occ. eigenvalues --   -1.06270  -1.05016  -1.04510  -1.03373  -1.00647
  Beta  occ. eigenvalues --   -0.99397  -0.97056  -0.96610  -0.94065  -0.90938
  Beta  occ. eigenvalues --   -0.90434  -0.90205  -0.86409  -0.85252  -0.84353
  Beta  occ. eigenvalues --   -0.79633  -0.77637  -0.77349  -0.76931  -0.74284
  Beta  occ. eigenvalues --   -0.73093  -0.70596  -0.67733  -0.65558  -0.65052
  Beta  occ. eigenvalues --   -0.62205  -0.60683  -0.59772  -0.57972  -0.56673
  Beta  occ. eigenvalues --   -0.55284  -0.55177  -0.53605  -0.53310  -0.52634
  Beta  occ. eigenvalues --   -0.52233  -0.51271  -0.50287  -0.49274  -0.49012
  Beta  occ. eigenvalues --   -0.48616  -0.47505  -0.47272  -0.47142  -0.46834
  Beta  occ. eigenvalues --   -0.45873  -0.45507  -0.45249  -0.44945  -0.44875
  Beta  occ. eigenvalues --   -0.43768  -0.43264  -0.42729  -0.41808  -0.41183
  Beta  occ. eigenvalues --   -0.40675  -0.40536  -0.39842  -0.37976  -0.37802
  Beta  occ. eigenvalues --   -0.37278  -0.37044  -0.36491  -0.35646  -0.35358
  Beta  occ. eigenvalues --   -0.32953
  Beta virt. eigenvalues --   -0.06797  -0.03174  -0.01683  -0.01087  -0.00317
  Beta virt. eigenvalues --   -0.00120   0.00156   0.01054   0.01857   0.02548
  Beta virt. eigenvalues --    0.02646   0.04102   0.04991   0.05799   0.06719
  Beta virt. eigenvalues --    0.07732   0.10560   0.11185   0.11300   0.12124
  Beta virt. eigenvalues --    0.12485   0.12735   0.13272   0.13573   0.13953
  Beta virt. eigenvalues --    0.14117   0.14250   0.14368   0.14598   0.14839
  Beta virt. eigenvalues --    0.15014   0.15063   0.15231   0.15327   0.15391
  Beta virt. eigenvalues --    0.15502   0.15587   0.15829   0.15863   0.15901
  Beta virt. eigenvalues --    0.16284   0.16372   0.16703   0.17126   0.17222
  Beta virt. eigenvalues --    0.17320   0.17416   0.17543   0.17939   0.18368
  Beta virt. eigenvalues --    0.18479   0.18684   0.18858   0.19309   0.21052
  Beta virt. eigenvalues --    0.21367   0.21474   0.21552   0.21569   0.21792
  Beta virt. eigenvalues --    0.21958   0.22058   0.22077   0.22091   0.22111
  Beta virt. eigenvalues --    0.22196   0.22218   0.22657
          Condensed to atoms (all electrons):
               1          2          3          4          5          6
     1  C    4.128860   0.000000   0.000000   0.000000   0.000000   0.000000
     2  C    0.000000   4.131611   0.000000   0.000000   0.000000   0.000000
     3  C    0.000000   0.000000   4.000114   0.000000   0.000000   0.000000
     4  C    0.000000   0.000000   0.000000   4.003907   0.000000   0.000000
     5  C    0.000000   0.000000   0.000000   0.000000   4.169486   0.000000
     6  C    0.000000   0.000000   0.000000   0.000000   0.000000   4.135723
     7  C    0.000000   0.000000   0.000000   0.000000   0.000000   0.000000
     8  C    0.000000   0.000000   0.000000   0.000000   0.000000   0.000000
     9  C    0.000000   0.000000   0.000000   0.000000   0.000000   0.000000
    10  C    0.000000   0.000000   0.000000   0.000000   0.000000   0.000000
    11  C    0.000000   0.000000   0.000000   0.000000   0.000000   0.000000
    12  C    0.000000   0.000000   0.000000   0.000000   0.000000   0.000000
    13  C    0.000000   0.000000   0.000000   0.000000   0.000000   0.000000
    14  C    0.000000   0.000000   0.000000   0.000000   0.000000   0.000000
    15  C    0.000000   0.000000   0.000000   0.000000   0.000000   0.000000
    16  C    0.000000   0.000000   0.000000   0.000000   0.000000   0.000000
    17  C    0.000000   0.000000   0.000000   0.000000   0.000000   0.000000
    18  C    0.000000   0.000000   0.000000   0.000000   0.000000   0.000000
    19  C    0.000000   0.000000   0.000000   0.000000   0.000000   0.000000
    20  C    0.000000   0.000000   0.000000   0.000000   0.000000   0.000000
    21  C    0.000000   0.000000   0.000000   0.000000   0.000000   0.000000
    22  C    0.000000   0.000000   0.000000   0.000000   0.000000   0.000000
    23  C    0.000000   0.000000   0.000000   0.000000   0.000000   0.000000
    24  C    0.000000   0.000000   0.000000   0.000000   0.000000   0.000000
    25  C    0.000000   0.000000   0.000000   0.000000   0.000000   0.000000
    26  C    0.000000   0.000000   0.000000   0.000000   0.000000   0.000000
    27  C    0.000000   0.000000   0.000000   0.000000   0.000000   0.000000
    28  C    0.000000   0.000000   0.000000   0.000000   0.000000   0.000000
    29  C    0.000000   0.000000   0.000000   0.000000   0.000000   0.000000
    30  H    0.000000   0.000000   0.000000   0.000000   0.000000   0.000000
    31  H    0.000000   0.000000   0.000000   0.000000   0.000000   0.000000
    32  H    0.000000   0.000000   0.000000   0.000000   0.000000   0.000000
    33  H    0.000000   0.000000   0.000000   0.000000   0.000000   0.000000
    34  H    0.000000   0.000000   0.000000   0.000000   0.000000   0.000000
    35  H    0.000000   0.000000   0.000000   0.000000   0.000000   0.000000
    36  H    0.000000   0.000000   0.000000   0.000000   0.000000   0.000000
    37  H    0.000000   0.000000   0.000000   0.000000   0.000000   0.000000
    38  H    0.000000   0.000000   0.000000   0.000000   0.000000   0.000000
    39  H    0.000000   0.000000   0.000000   0.000000   0.000000   0.000000
    40  H    0.000000   0.000000   0.000000   0.000000   0.000000   0.000000
    41  H    0.000000   0.000000   0.000000   0.000000   0.000000   0.000000
    42  H    0.000000   0.000000   0.000000   0.000000   0.000000   0.000000
    43  H    0.000000   0.000000   0.000000   0.000000   0.000000   0.000000
    44  B    0.000000   0.000000   0.000000   0.000000   0.000000   0.000000
               7          8          9         10         11         12
     1  C    0.000000   0.000000   0.000000   0.000000   0.000000   0.000000
     2  C    0.000000   0.000000   0.000000   0.000000   0.000000   0.000000
     3  C    0.000000   0.000000   0.000000   0.000000   0.000000   0.000000
     4  C    0.000000   0.000000   0.000000   0.000000   0.000000   0.000000
     5  C    0.000000   0.000000   0.000000   0.000000   0.000000   0.000000
     6  C    0.000000   0.000000   0.000000   0.000000   0.000000   0.000000
     7  C    4.133757   0.000000   0.000000   0.000000   0.000000   0.000000
     8  C    0.000000   4.127982   0.000000   0.000000   0.000000   0.000000
     9  C    0.000000   0.000000   4.125750   0.000000   0.000000   0.000000
    10  C    0.000000   0.000000   0.000000   4.001749   0.000000   0.000000
    11  C    0.000000   0.000000   0.000000   0.000000   4.023535   0.000000
    12  C    0.000000   0.000000   0.000000   0.000000   0.000000   4.134646
    13  C    0.000000   0.000000   0.000000   0.000000   0.000000   0.000000
    14  C    0.000000   0.000000   0.000000   0.000000   0.000000   0.000000
    15  C    0.000000   0.000000   0.000000   0.000000   0.000000   0.000000
    16  C    0.000000   0.000000   0.000000   0.000000   0.000000   0.000000
    17  C    0.000000   0.000000   0.000000   0.000000   0.000000   0.000000
    18  C    0.000000   0.000000   0.000000   0.000000   0.000000   0.000000
    19  C    0.000000   0.000000   0.000000   0.000000   0.000000   0.000000
    20  C    0.000000   0.000000   0.000000   0.000000   0.000000   0.000000
    21  C    0.000000   0.000000   0.000000   0.000000   0.000000   0.000000
    22  C    0.000000   0.000000   0.000000   0.000000   0.000000   0.000000
    23  C    0.000000   0.000000   0.000000   0.000000   0.000000   0.000000
    24  C    0.000000   0.000000   0.000000   0.000000   0.000000   0.000000
    25  C    0.000000   0.000000   0.000000   0.000000   0.000000   0.000000
    26  C    0.000000   0.000000   0.000000   0.000000   0.000000   0.000000
    27  C    0.000000   0.000000   0.000000   0.000000   0.000000   0.000000
    28  C    0.000000   0.000000   0.000000   0.000000   0.000000   0.000000
    29  C    0.000000   0.000000   0.000000   0.000000   0.000000   0.000000
    30  H    0.000000   0.000000   0.000000   0.000000   0.000000   0.000000
    31  H    0.000000   0.000000   0.000000   0.000000   0.000000   0.000000
    32  H    0.000000   0.000000   0.000000   0.000000   0.000000   0.000000
    33  H    0.000000   0.000000   0.000000   0.000000   0.000000   0.000000
    34  H    0.000000   0.000000   0.000000   0.000000   0.000000   0.000000
    35  H    0.000000   0.000000   0.000000   0.000000   0.000000   0.000000
    36  H    0.000000   0.000000   0.000000   0.000000   0.000000   0.000000
    37  H    0.000000   0.000000   0.000000   0.000000   0.000000   0.000000
    38  H    0.000000   0.000000   0.000000   0.000000   0.000000   0.000000
    39  H    0.000000   0.000000   0.000000   0.000000   0.000000   0.000000
    40  H    0.000000   0.000000   0.000000   0.000000   0.000000   0.000000
    41  H    0.000000   0.000000   0.000000   0.000000   0.000000   0.000000
    42  H    0.000000   0.000000   0.000000   0.000000   0.000000   0.000000
    43  H    0.000000   0.000000   0.000000   0.000000   0.000000   0.000000
    44  B    0.000000   0.000000   0.000000   0.000000   0.000000   0.000000
              13         14         15         16         17         18
     1  C    0.000000   0.000000   0.000000   0.000000   0.000000   0.000000
     2  C    0.000000   0.000000   0.000000   0.000000   0.000000   0.000000
     3  C    0.000000   0.000000   0.000000   0.000000   0.000000   0.000000
     4  C    0.000000   0.000000   0.000000   0.000000   0.000000   0.000000
     5  C    0.000000   0.000000   0.000000   0.000000   0.000000   0.000000
     6  C    0.000000   0.000000   0.000000   0.000000   0.000000   0.000000
     7  C    0.000000   0.000000   0.000000   0.000000   0.000000   0.000000
     8  C    0.000000   0.000000   0.000000   0.000000   0.000000   0.000000
     9  C    0.000000   0.000000   0.000000   0.000000   0.000000   0.000000
    10  C    0.000000   0.000000   0.000000   0.000000   0.000000   0.000000
    11  C    0.000000   0.000000   0.000000   0.000000   0.000000   0.000000
    12  C    0.000000   0.000000   0.000000   0.000000   0.000000   0.000000
    13  C    3.983432   0.000000   0.000000   0.000000   0.000000   0.000000
    14  C    0.000000   3.939090   0.000000   0.000000   0.000000   0.000000
    15  C    0.000000   0.000000   4.115068   0.000000   0.000000   0.000000
    16  C    0.000000   0.000000   0.000000   4.005819   0.000000   0.000000
    17  C    0.000000   0.000000   0.000000   0.000000   3.958976   0.000000
    18  C    0.000000   0.000000   0.000000   0.000000   0.000000   4.135135
    19  C    0.000000   0.000000   0.000000   0.000000   0.000000   0.000000
    20  C    0.000000   0.000000   0.000000   0.000000   0.000000   0.000000
    21  C    0.000000   0.000000   0.000000   0.000000   0.000000   0.000000
    22  C    0.000000   0.000000   0.000000   0.000000   0.000000   0.000000
    23  C    0.000000   0.000000   0.000000   0.000000   0.000000   0.000000
    24  C    0.000000   0.000000   0.000000   0.000000   0.000000   0.000000
    25  C    0.000000   0.000000   0.000000   0.000000   0.000000   0.000000
    26  C    0.000000   0.000000   0.000000   0.000000   0.000000   0.000000
    27  C    0.000000   0.000000   0.000000   0.000000   0.000000   0.000000
    28  C    0.000000   0.000000   0.000000   0.000000   0.000000   0.000000
    29  C    0.000000   0.000000   0.000000   0.000000   0.000000   0.000000
    30  H    0.000000   0.000000   0.000000   0.000000   0.000000   0.000000
    31  H    0.000000   0.000000   0.000000   0.000000   0.000000   0.000000
    32  H    0.000000   0.000000   0.000000   0.000000   0.000000   0.000000
    33  H    0.000000   0.000000   0.000000   0.000000   0.000000   0.000000
    34  H    0.000000   0.000000   0.000000   0.000000   0.000000   0.000000
    35  H    0.000000   0.000000   0.000000   0.000000   0.000000   0.000000
    36  H    0.000000   0.000000   0.000000   0.000000   0.000000   0.000000
    37  H    0.000000   0.000000   0.000000   0.000000   0.000000   0.000000
    38  H    0.000000   0.000000   0.000000   0.000000   0.000000   0.000000
    39  H    0.000000   0.000000   0.000000   0.000000   0.000000   0.000000
    40  H    0.000000   0.000000   0.000000   0.000000   0.000000   0.000000
    41  H    0.000000   0.000000   0.000000   0.000000   0.000000   0.000000
    42  H    0.000000   0.000000   0.000000   0.000000   0.000000   0.000000
    43  H    0.000000   0.000000   0.000000   0.000000   0.000000   0.000000
    44  B    0.000000   0.000000   0.000000   0.000000   0.000000   0.000000
              19         20         21         22         23         24
     1  C    0.000000   0.000000   0.000000   0.000000   0.000000   0.000000
     2  C    0.000000   0.000000   0.000000   0.000000   0.000000   0.000000
     3  C    0.000000   0.000000   0.000000   0.000000   0.000000   0.000000
     4  C    0.000000   0.000000   0.000000   0.000000   0.000000   0.000000
     5  C    0.000000   0.000000   0.000000   0.000000   0.000000   0.000000
     6  C    0.000000   0.000000   0.000000   0.000000   0.000000   0.000000
     7  C    0.000000   0.000000   0.000000   0.000000   0.000000   0.000000
     8  C    0.000000   0.000000   0.000000   0.000000   0.000000   0.000000
     9  C    0.000000   0.000000   0.000000   0.000000   0.000000   0.000000
    10  C    0.000000   0.000000   0.000000   0.000000   0.000000   0.000000
[...]
 ,0.00001130,-0.00000032,0.,0.00000824,-0.00000037,0.00000071,0.0000627
 0,0.00001349,-0.00001214,-0.00203101,0.00039857,-0.00210508,0.02276009
 ,0.00007525,-0.00006108,0.00000263,-0.00103013,0.00093847,-0.00000771,
 -0.00721759,0.02859003,-0.00039326,-0.00669155,-0.02870395,0.00009629,
 0.00003039,0.00002344,0.00000026,-0.03323184,0.00063277,0.00004513,-0.
 00132469,-0.00106310,0.00000902,-0.00000481,-0.00002042,-0.00000021,-0
 .00000314,-0.00001598,0.00000015,0.00005807,0.00006173,0.00000040,-0.0
 0000094,-0.00001493,0.00000011,0.00000555,0.00001052,0.,-0.00007232,0.
 00029803,-0.00000032,0.00004138,0.00001714,0.00000152,-0.00001286,0.00
 000889,-0.00000033,0.00005895,0.00000704,-0.00000013,-0.00001635,0.000
 03460,-0.00000024,-0.00000081,-0.00000437,0.00000016,0.00006652,-0.000
 42241,0.00000662,-0.00003744,-0.00000766,-0.00000063,0.00001114,-0.000
 00531,0.00000021,-0.00242182,0.00074309,-0.00006907,0.00001033,-0.0000
 1152,0.00000003,-0.00235414,-0.00086235,-0.00006803,0.00005625,0.00003
 503,0.00000697,-0.00000304,-0.00000976,-0.00000058,0.00004744,-0.00000
 095,0.00000095,-0.00011650,-0.00009021,0.00000024,-0.00001526,0.000008
 56,-0.00000049,-0.00001054,0.00000137,-0.00000053,0.00000943,-0.000024
 15,0.00000025,0.00000375,0.00000123,0.,0.00000034,0.00000197,0.,0.0000
 0088,0.00000308,-0.00000003,-0.00000045,0.00000271,-0.00000003,-0.0000
 0239,0.00000184,-0.00000006,0.00000032,0.00000177,-0.00000007,0.000003
 43,0.00001046,-0.00000017,-0.00001000,-0.00000497,-0.00000132,-0.00085
 054,-0.00009096,-0.00001262,0.05599993,-0.00017705,-0.00023865,-0.0000
 0096,0.00049348,0.00003012,-0.00000351,0.01506643,-0.02514393,0.000433
 14,-0.01508552,-0.02610494,0.00010140,0.00022667,-0.00013087,0.0000034
 8,0.00059452,-0.22042262,0.00152594,-0.00077089,-0.00010056,-0.0000188
 5,0.00022183,-0.00030586,0.00000537,0.00002570,-0.00005601,0.00000072,
 -0.00036277,0.00008449,-0.00000503,-0.00004102,0.00017106,-0.00000190,
 0.00000721,0.00005036,-0.00000036,0.00005383,-0.00006430,-0.00000117,-
 0.00009834,-0.00001152,-0.00000190,-0.00006421,0.00001034,-0.00000073,
 -0.00019684,0.00022202,-0.00000350,-0.00010757,-0.00027844,0.00000096,
 0.00008957,-0.00002559,0.00000113,0.00009821,-0.00025023,0.00000142,0.
 00012543,0.00002177,0.00000143,0.00000541,0.00007080,-0.00000059,0.001
 44646,-0.00010318,0.00004383,0.00006110,0.00004923,0.00000042,-0.00118
 594,-0.00055066,0.00002825,-0.00026047,-0.00020226,-0.00000619,-0.0001
 6441,0.00013210,-0.00000252,0.00006443,-0.00001331,0.00000052,-0.00003
 576,0.00009126,-0.00000176,0.00003083,0.00001075,0.00000044,-0.0000705
 9,-0.00003772,-0.00000019,-0.00004119,-0.00003174,-0.00000014,-0.00002
 688,-0.00001648,-0.00000013,-0.00000293,-0.00003755,0.00000028,-0.0000
 0236,-0.00003934,0.00000032,0.00000559,-0.00003366,0.00000035,0.000031
 41,-0.00001738,0.00000051,0.00003507,0.00001793,0.00000029,0.00003355,
 0.00002669,0.00000024,0.00003058,0.00008998,0.00000052,0.00009369,0.00
 040026,0.00000057,-0.00032253,0.27214400,0.00000344,0.00000064,-0.0001
 1539,-0.00000348,0.00000163,-0.00104198,-0.00028270,0.00058399,0.00675
 167,-0.00001734,-0.00005032,0.00617415,-0.00000130,0.00000131,-0.00001
 309,0.00004687,0.00152618,-0.03774188,0.00000651,-0.00002214,-0.001342
 08,-0.00000218,0.00000250,0.00002992,-0.00000020,0.00000024,-0.0000045
 6,0.00000372,-0.00000047,-0.00002448,0.00000032,-0.00000156,0.00000062
 ,0.00000003,-0.00000031,-0.00000151,0.00000226,0.00000111,-0.00028402,
 0.00000251,-0.00000065,-0.00010619,0.00000028,0.00000010,0.00000974,0.
 00000227,-0.00000065,0.00006696,0.00000085,0.00000261,-0.00002122,-0.0
 0000063,0.00000006,-0.00001158,0.00000215,-0.00000432,-0.00021230,-0.0
 0000169,-0.00000010,0.00002496,0.00000015,-0.00000068,-0.00000375,-0.0
 0007537,0.00003524,0.00321996,-0.00000058,-0.00000039,0.00001676,-0.00
 006549,0.00003239,0.00442990,0.00000958,-0.00000331,-0.00059898,0.0000
 0067,-0.00000076,0.00005691,0.00000050,-0.00000026,-0.00003671,-0.0000
 0027,-0.00000238,-0.00006911,-0.00000070,0.00000023,0.00002276,0.00000
 006,0.00000063,0.00003666,0.00000038,0.00000005,0.00000599,0.00000023,
 0.00000018,0.00000366,0.00000004,0.00000032,-0.00000145,0.00000002,0.0
 0000038,0.00000119,-0.00000006,0.00000032,0.00000047,-0.00000031,0.000
 00018,0.00000158,-0.00000035,-0.00000009,0.00000523,-0.00000036,-0.000
 00001,0.00001073,-0.00000168,0.00000018,0.00011448,-0.00001417,-0.0000
 0144,0.00034702,0.00040557,-0.00210406,0.01971840,0.00000881,0.0000168
 4,0.00000006,0.00004033,-0.00003923,0.00000083,0.00001484,-0.00000052,
 0.00000007,-0.00761734,0.02850816,-0.00039045,-0.00678712,-0.02889671,
 0.00009572,-0.00137982,0.00109441,-0.00001545,-0.03337949,0.00162743,0
 .00004025,-0.00003577,0.00002715,-0.00000054,-0.00000965,-0.00000340,-
 0.00000005,0.00004677,-0.00001639,0.00000055,-0.00000265,-0.00003324,0
 .00000023,0.00000105,0.00000559,-0.00000002,-0.00003887,-0.00009008,0.
 00000039,0.00001372,0.00001071,0.00000012,-0.00000757,0.00000419,-0.00
 000010,0.00012267,0.00048071,-0.00000095,0.00001492,0.00004392,-0.0000
 0007,-0.00000080,0.00000315,0.00000002,-0.00004179,0.00002537,-0.00000
 121,-0.00001788,0.00000603,-0.00000048,-0.00000180,-0.00000085,0.00000
 005,0.00002302,-0.00004224,0.00000055,0.00000534,-0.00002059,0.0000002
 2,-0.00244023,0.00093432,-0.00006900,-0.00008930,0.00004567,-0.0000011
 5,0.00000415,-0.00000862,0.00000021,-0.00243854,-0.00116649,-0.0000714
 6,0.00002217,0.00000081,0.00000584,0.00000136,-0.00000557,-0.00000028,
 0.00006902,-0.00042696,0.00000864,0.00000120,0.00000889,-0.00000042,0.
 00000268,0.00000295,-0.00000006,0.00000033,0.00000186,-0.00000001,0.00
 000012,0.00000432,-0.00000010,-0.00000019,0.00000399,-0.00000006,-0.00
 000349,0.00000206,-0.00000008,-0.00000217,-0.00000055,-0.00000005,-0.0
 0000027,0.00000095,-0.00000007,-0.00000461,-0.00000245,-0.00000011,-0.
 00002569,0.00002286,-0.00000078,-0.00090344,-0.00011910,-0.00001246,0.
 05518305,0.00001602,-0.00007005,0.00000069,-0.00005964,-0.00000281,-0.
 00000067,-0.00015302,-0.00004097,-0.00000134,0.01477955,-0.02460062,0.
 00042006,-0.01487787,-0.02733444,0.00011581,0.00080718,-0.00013363,0.0
 0000329,0.00131862,-0.22032864,0.00152445,0.00011870,-0.00016458,0.000
 00267,0.00000350,-0.00005266,0.00000046,-0.00018053,0.00007780,-0.0000
 0262,-0.00003402,0.00008738,-0.00000110,0.00000787,0.00004907,-0.00000
 034,-0.00002516,-0.00007895,0.00000033,-0.00000979,-0.00001859,0.,-0.0
 0006531,0.00002312,-0.00000095,-0.00003577,-0.00025088,0.00000041,-0.0
 0005618,-0.00015274,0.00000055,0.00007569,-0.00002472,0.00000103,0.000
 06600,0.00029399,-0.00000129,0.00001237,-0.00002408,0.00000053,0.00001
 871,0.00005195,-0.00000029,0.00004148,-0.00008907,0.00000132,0.0000641
 2,0.00001506,0.00000061,0.00112032,-0.00022195,0.00004001,0.00000863,0
 .00007333,-0.00000071,-0.00013211,0.00012456,-0.00000263,-0.00120843,-
 0.00030516,0.00003010,-0.00000057,-0.00003081,-0.00000399,-0.00002010,
 0.00001348,-0.00000008,-0.00011962,-0.00025187,-0.00000263,-0.00006143
 ,-0.00004578,-0.00000003,-0.00002254,-0.00002210,-0.00000001,-0.000006
 49,-0.00003735,0.00000025,0.00000189,-0.00003457,0.00000037,0.00000501
 ,-0.00002734,0.00000031,0.00002252,-0.00001238,0.00000037,0.00002809,0
 .00001316,0.00000023,0.00002930,0.00001757,0.00000023,0.00002670,0.000
 03311,0.00000008,-0.00001884,0.00010643,-0.00000088,0.00010266,0.00046
 121,-0.00000010,-0.00116010,0.27233214,0.00000008,0.00000069,-0.000009
 16,0.00000095,-0.00000044,-0.00000450,0.00000137,0.00000040,0.00000770
 ,-0.00027705,0.00057241,0.00625324,-0.00002177,-0.00003929,0.00632945,
 -0.00001298,0.00000657,-0.00081279,0.00004381,0.00152660,-0.03822292,-
 0.00000127,0.00000159,-0.00000929,-0.00000010,0.00000037,-0.00000273,0
 .00000189,-0.00000072,0.00001140,0.00000023,-0.00000108,0.00000234,-0.
 00000003,-0.00000036,-0.00000180,-0.00000016,-0.00000038,-0.00000621,0
 .00000030,0.00000023,-0.00000560,0.00000048,-0.00000017,-0.00000199,0.
 00000338,0.00000602,-0.00015620,0.00000080,0.00000164,-0.00001224,-0.0
 0000058,0.00000020,-0.00000465,-0.00000090,-0.00000235,0.00005118,-0.0
 0000041,0.00000042,0.00002083,-0.00000011,-0.00000049,-0.00000548,-0.0
 0000012,0.00000032,0.00000595,-0.00000049,-0.00000035,0.00000129,-0.00
 007067,0.00003783,0.00309211,-0.00000088,-0.00000028,-0.00002218,0.000
 00124,-0.00000120,-0.00000856,-0.00007135,0.00003161,0.00491104,0.0000
 0583,-0.00000371,-0.00050919,-0.00000016,0.00000011,0.00003098,0.00000
 624,-0.00000574,-0.00040077,0.00000019,0.00000076,0.00003190,0.0000001
 5,0.00000027,0.00000606,0.00000006,0.00000034,0.00000011,-0.00000008,0
 .00000039,0.00000600,-0.00000007,0.00000029,0.00000208,-0.00000025,0.0
 0000014,0.00000172,-0.00000029,-0.00000009,0.00000258,-0.00000031,-0.0
 0000009,0.00000523,-0.00000036,-0.00000024,0.00000767,-0.00000043,-0.0
 0000041,0.00002701,-0.00001429,-0.00000259,0.00031123,0.00039547,-0.00
 210526,0.02024866,0.00002237,-0.00001783,0.00000028,-0.00002151,0.0000
 0155,-0.00000013,-0.00000417,-0.00012072,0.00000413,-0.00170436,-0.001
 42067,-0.00006419,-0.17330918,0.07982510,-0.00214058,-0.00047806,0.000
 19584,-0.00000519,-0.04142311,0.00415751,-0.00055393,-0.00003204,0.000
 07948,-0.00000094,-0.00000411,0.00004047,-0.00000037,0.00007151,0.0000
 2759,0.00000053,0.00003343,-0.00006516,0.00000091,-0.00000234,-0.00003
 833,0.00000031,0.00000312,0.00004823,-0.00000074,0.00003053,-0.0000151
 3,0.00000051,0.00004475,-0.00002688,0.00000075,-0.00005841,0.00004160,
 0.00000399,0.00001023,0.00009362,-0.00000094,-0.00006876,-0.00000088,-
 0.00000070,0.00007003,-0.00022027,-0.00004793,-0.00002848,0.00000280,0
 .00000187,-0.00000947,-0.00005159,0.00000028,0.00001408,0.00004402,-0.
 00000029,-0.00002347,0.00000301,-0.00000031,0.00021734,-0.00022631,0.0
 0000387,0.00005931,-0.00002898,0.00000076,0.00009071,-0.00008089,0.000
 00173,-0.00274842,0.01231511,-0.00019563,0.00007096,-0.00005247,0.0000
 0379,0.00000537,-0.00002280,0.00000025,0.00085730,-0.00021787,0.000021
 99,0.00008601,0.00005183,-0.00000042,0.00003131,0.00002204,0.00000007,
 0.00000701,0.00003340,-0.00000024,0.00000042,0.00003101,-0.00000030,-0
 .00000358,0.00002853,-0.00000030,-0.00002124,0.00001223,-0.00000036,-0
 .00002395,-0.00000970,-0.00000021,-0.00002357,-0.00001210,-0.00000020,
 -0.00002836,-0.00002265,-0.00000017,-0.00000479,-0.00003404,0.00000017
 ,-0.00000109,-0.00005332,-0.00000074,-0.00032331,-0.00051947,0.0000138
 6,0.21870492,-0.00002612,0.00000768,-0.00000027,-0.00001546,0.00001424
 ,-0.00000039,-0.00007016,-0.00001128,-0.00000308,-0.00130816,-0.000989
 35,0.00003695,0.07983190,-0.07916636,0.00120930,-0.00025565,0.00014872
 ,-0.00000537,-0.00992978,0.00690860,-0.00012075,0.00003700,-0.00007407
 ,0.00000098,0.00000661,-0.00001689,0.00000020,-0.00006811,-0.00001252,
 -0.00000063,-0.00002034,0.00005192,-0.00000066,-0.00000122,0.00001661,
 -0.00000017,0.00001495,-0.00000908,0.00000052,-0.00002194,0.00000620,-
 0.00000034,-0.00001130,0.00001028,-0.00000023,0.00001477,-0.00000721,-
 0.00000350,-0.00001103,-0.00003301,0.00000036,0.00002416,0.00000530,0.
 00000017,-0.00051396,-0.00276919,0.00005496,-0.00002884,-0.00010228,-0
 .00000107,0.00000158,0.00001459,-0.00000007,-0.00000205,-0.00001650,0.
 00000017,-0.00000152,0.00001257,-0.00000011,-0.00014838,0.00005097,-0.
 00000177,-0.00003173,-0.00000940,-0.00000017,-0.00003816,0.00003138,-0
 .00000071,0.02637322,-0.03137969,0.00059902,0.00047454,-0.00030301,0.0
 0000601,0.00002978,-0.00000291,0.00000035,0.00020665,-0.00072776,0.000
 00022,0.00000802,0.00001085,0.00000069,-0.00000921,-0.00000617,0.00000
 001,-0.00000063,-0.00001496,0.00000015,-0.00000039,-0.00001534,0.00000
 016,0.00000186,-0.00001625,0.00000017,0.00001268,-0.00000711,0.0000002
 1,0.00001432,0.00000573,0.00000013,0.00001442,0.00000753,0.00000012,0.
 00001771,0.00001735,0.00000009,0.00000343,0.00003092,-0.00000017,0.000
 00698,0.00010392,0.00000010,-0.00088962,0.00046500,-0.00002351,-0.0937
 8211,0.10773962,0.00000034,-0.00000016,0.00001206,0.00000002,-0.000000
 20,-0.00001239,0.00000371,-0.00000356,-0.00028482,-0.00006579,0.000036
 12,0.00518874,-0.00214323,0.00120680,-0.04017392,-0.00000118,-0.000000
 31,-0.00015618,-0.00043459,0.00003581,0.00558704,-0.00000053,0.0000013
 8,-0.00000904,-0.00000008,0.00000057,-0.00000158,0.00000126,0.00000045
 ,0.00000462,0.00000052,-0.00000111,0.00000131,0.,-0.00000057,-0.000001
 34,-0.00000045,0.00000089,0.00003313,0.00000056,-0.00000025,-0.0000043
 5,0.00000060,-0.00000040,-0.00000163,0.00000433,-0.00000342,-0.0004489
 3,0.,0.00000146,0.00002448,-0.00000086,-0.00000012,-0.00000649,-0.0000
 4513,0.00005734,0.00456841,0.00000226,-0.00000089,-0.00019976,-0.00000
 018,-0.00000064,0.00000557,0.00000014,0.00000062,0.00000365,-0.0000002
 7,-0.00000006,0.00000174,0.00000266,-0.00000278,0.00003707,0.00000065,
 -0.00000005,0.00001339,0.00000130,-0.00000113,-0.00000128,-0.00031213,
 0.00044584,0.00571040,-0.00000045,0.00000027,-0.00022841,-0.00000017,-
 0.00000022,-0.00000016,0.00001872,-0.00000444,-0.00096356,-0.00000006,
 0.00000121,0.00008424,0.00000033,0.00000036,0.00000759,0.00000005,0.00
 000052,0.00000288,-0.00000003,0.00000050,0.00000364,-0.00000007,0.0000
 0046,0.00000167,-0.00000035,0.00000020,0.00000128,-0.00000040,-0.00000
 014,0.00000170,-0.00000041,-0.00000017,0.00000284,-0.00000051,-0.00000
 035,0.00000447,-0.00000015,-0.00000058,0.00000600,-0.00000124,-0.00000
 056,0.00010587,0.00001694,-0.00001941,-0.00118636,0.00295563,-0.001748
 90,0.02226114,-0.00678145,0.00612405,-0.00019220,0.00749888,-0.0011129
 1,0.00009450,-0.00611317,-0.00272015,-0.00007544,0.00185472,-0.0004210
 3,0.00002406,0.00084581,0.00088116,0.00000211,0.00001141,-0.00139570,0
 .00001549,-0.00159366,-0.00017391,-0.00001630,-0.01011456,0.00413217,-
 0.00012733,-0.00025447,-0.00633470,0.00001003,0.00631511,-0.02673814,0
 .00026178,-0.03814798,-0.00277485,-0.00045573,0.00481569,0.00397783,0.
 00002114,-0.03469368,-0.00945305,0.00020829,-0.21895796,0.10846266,-0.
 00287458,-0.00679821,0.00083409,-0.00013586,-0.00198190,0.00425886,-0.
 00004466,-0.22363598,-0.10698200,-0.00111512,-0.00423303,-0.00019046,-
 0.00003052,-0.00116012,-0.00007428,-0.00001323,-0.00338103,0.00020729,
 -0.00008524,0.00229709,0.00100032,-0.00001334,-0.00741313,0.02115659,-
 0.00031458,0.00757669,0.01758821,-0.00010595,0.00159538,0.00026521,0.0
 0001799,-0.03252502,0.00230422,-0.00043888,-0.00174529,-0.02107464,0.0
 0010489,0.00071003,-0.00062078,0.00001308,0.00040385,-0.00022982,0.000
 01002,-0.00013624,0.00137932,-0.00001288,-0.00013239,-0.00007102,-0.00
 000104,-0.00008962,-0.00005106,0.00000053,-0.00028297,-0.00009460,0.00
 000212,0.00016384,-0.00014545,0.00000420,0.00009678,-0.00013522,0.0000
 0320,0.00006621,0.00041457,0.00000168,-0.00083188,0.00056920,-0.000007
 06,-0.00046113,0.00005542,-0.00000516,-0.00016054,-0.00026724,0.000001
 39,0.00023566,-0.00027420,0.00000750,0.00004547,0.00024831,0.00000645,
 -0.00011049,0.00036020,-0.00000606,-0.00001284,0.00011228,-0.00000127,
 -0.00009800,0.00004954,-0.00000154,0.56734108,-0.00314931,-0.00058812,
 0.00001606,-0.00023445,0.00221032,-0.00002294,0.00407716,0.00113317,0.
 00005928,0.00031552,0.00009871,0.00000266,-0.00018919,-0.00034776,0.00
 000073,-0.00101851,-0.00061586,-0.00000898,0.00009162,-0.00032050,0.00
 000374,-0.00150624,-0.00215597,-0.00001616,-0.00214362,0.00031104,0.00
 000280,-0.02809614,-0.02528091,-0.00007692,0.00135682,0.00983890,-0.00
 003463,-0.00086888,0.00034724,-0.00001299,0.01083978,-0.27607694,0.002
 07665,0.10268524,-0.08996446,0.00153398,-0.00211067,-0.00351081,0.0000
 4454,0.00085245,0.00000261,-0.00000071,-0.10757281,-0.09824445,-0.0007
 8182,-0.00023273,-0.00259960,0.00000759,0.00064006,-0.00027455,0.00001
 003,0.00161964,-0.00019332,0.00005356,-0.00113575,-0.00203864,0.000027
 33,0.01881769,-0.02202748,0.00043771,0.01769111,-0.03001131,0.00048768
 ,-0.00026352,-0.00103983,0.00000415,-0.00131263,0.00883979,-0.00005006
 ,-0.01655368,-0.02480429,0.00006421,-0.00043549,0.00011019,-0.00000566
 ,0.00015713,0.00085188,-0.00000825,0.00154730,-0.00081654,0.00002400,-
 0.00005331,0.00003774,-0.00000083,-0.00004133,-0.00012538,-0.00000023,
 -0.00026820,-0.00012645,-0.00000513,-0.00035127,-0.00032979,-0.0000019
 7,-0.00012164,-0.00051607,0.00000229,0.00042432,-0.00013612,0.00000272
 ,0.00044201,-0.00033578,0.00000254,-0.00020192,0.00027338,-0.00000485,
 -0.00046714,0.00001608,-0.00000601,-0.00030823,-0.00040657,-0.00000169
 ,-0.00013668,-0.00155741,0.00000583,0.00018899,0.00001919,0.00000349,0
 .00006454,0.00014187,-0.00000035,-0.00005385,0.00000541,-0.00000060,0.
 00693053,0.56015867,-0.00011255,0.00012042,0.00552204,0.00008557,-0.00
 003126,0.00000930,-0.00013310,-0.00001766,0.00259875,0.00001819,-0.000
 00549,0.00001103,0.00001126,0.00001290,-0.00000827,0.00001236,-0.00001
 314,-0.00031811,-0.00001884,0.00000077,0.00000228,-0.00007880,0.000046
 54,-0.00201082,-0.00002369,-0.00004646,0.00344929,0.00027315,-0.000061
 36,0.00322008,-0.00049114,-0.00007927,0.00396034,0.00006279,0.00004247
 ,0.00000249,0.00003520,0.00184446,-0.04595008,-0.00282814,0.00160106,-
 0.04564835,-0.00011060,0.00007769,0.00448898,-0.00001560,0.00003808,-0
 .00126121,-0.00110942,-0.00077481,-0.04602975,-0.00002873,0.00000708,-
 0.00143996,-0.00001952,0.00000214,0.00007579,-0.00009691,0.00003778,0.
 00399835,0.00000608,0.00005169,0.00267848,-0.00029374,0.00046486,0.004
 42287,-0.00010714,0.00048616,0.00379866,0.00002293,0.00000998,-0.00020
 485,-0.00040860,-0.00001068,0.00463466,0.00006457,0.00001404,0.0047887
 8,0.00001174,-0.00000802,0.00000259,0.00000663,-0.00001262,-0.00031483
 ,-0.00001420,0.00002262,-0.00003876,-0.00000118,-0.00000102,0.00001167
 ,0.00000037,-0.00000031,-0.00009586,0.00000332,-0.00000336,-0.00038532
 ,0.00000595,0.00000026,-0.00010353,0.00000299,0.00000218,-0.00007425,0
 .00000129,0.00000271,-0.00037833,-0.00000643,0.00000426,-0.00060899,-0
 .00000321,-0.00000190,-0.00003784,0.00000294,-0.00000373,-0.00006781,0
 .00000770,-0.00000162,-0.00021246,0.00000985,0.00001004,-0.00071981,-0
 .00000469,0.00000528,0.00016326,-0.00000086,0.00000019,0.00001488,-0.0
 0000071,0.00000056,0.00000565,0.00526397,-0.00383333,0.09804942||0.000
 00267,0.00001588,-0.00001338,0.00000249,0.00000590,0.00002825,-0.00002
 118,-0.00000489,0.00000853,0.00000893,0.00000048,-0.00000601,-0.000003
 95,-0.00000342,-0.00002195,0.00000289,-0.00001348,-0.00000709,0.000022
 36,0.00002198,0.00001544,-0.00000288,0.00001268,-0.00000364,-0.0000023
 3,0.00003433,0.00000337,0.00001634,-0.00001158,-0.00001082,0.00001253,
 -0.00000983,-0.00002819,0.00000626,-0.00002592,-0.00000789,-0.00000201
 ,-0.00000377,0.00000029,0.00000194,0.00001123,0.00003842,0.00000542,-0
 .00001312,0.00000909,-0.00000409,0.00000433,-0.00000302,0.00000100,-0.
 00000904,-0.00000582,-0.00000050,-0.00000588,0.00000569,-0.00000172,-0
 .00000853,-0.00000389,-0.00000238,0.00000815,0.00001040,0.00001315,-0.
 00000826,-0.00002339,-0.00001133,0.00001155,0.00000544,-0.00000542,-0.
 00000643,-0.00002798,0.00000385,0.00000762,0.00000765,-0.00001226,-0.0
 0000462,0.00000797,-0.00000568,-0.00000243,0.00002023,-0.00000886,-0.0
 0001315,0.00000738,0.00000889,0.00000035,-0.00000884,-0.00001345,0.000
 01431,0.00000386,0.00000630,-0.00000144,0.00000402,0.00000461,-0.00000
 034,0.00000002,0.00000064,0.00000211,-0.00000403,0.00000179,0.00000200
 ,0.00000701,-0.00000251,0.00000021,-0.00000230,-0.00000378,0.00000164,
 0.00000048,-0.00000039,0.00000179,0.00000443,-0.00000113,0.00000028,0.
 00000458,0.00000075,-0.00000227,0.00000510,0.00000056,-0.00000441,0.00
 000733,-0.00000380,-0.00000229,-0.00001422,-0.00000184,-0.00000233,-0.
 00000161,0.00000347,-0.00000475,-0.00000234,-0.00000900,-0.00000008,0.
 00000311,-0.00000638,0.00000547,-0.00001167|||@


 A MAN BEGINS CUTTING HIS WISDOM TEETH THE 1ST
 TIME HE BITES OFF MORE THAN HE CAN CHEW.
 Job cpu time:       0 days  0 hours  0 minutes 17.0 seconds.
 File lengths (MBytes):  RWF=    701 Int=      0 D2E=      0 Chk=      5 Scr=      1
 Normal termination of Gaussian 09 at Thu Jun 19 11:36:53 2025.
