 Entering Link 1 = C:\Gaussian\G09W\l1.exe PID=     22332.
  
 Copyright (c) 1988,1990,1992,1993,1995,1998,2003,2009,2013,
            Gaussian, Inc.  All Rights Reserved.
  
 This is part of the Gaussian(R) 09 program.  It is based on
 the Gaussian(R) 03 system (copyright 2003, Gaussian, Inc.),
 the Gaussian(R) 98 system (copyright 1998, Gaussian, Inc.),
 the Gaussian(R) 94 system (copyright 1995, Gaussian, Inc.),
 the Gaussian 92(TM) system (copyright 1992, Gaussian, Inc.),
 the Gaussian 90(TM) system (copyright 1990, Gaussian, Inc.),
 the Gaussian 88(TM) system (copyright 1988, Gaussian, Inc.),
 the Gaussian 86(TM) system (copyright 1986, Carnegie Mellon
 University), and the Gaussian 82(TM) system (copyright 1983,
 Carnegie Mellon University). Gaussian is a federally registered
 trademark of Gaussian, Inc.
  
 This software contains proprietary and confidential information,
 including trade secrets, belonging to Gaussian, Inc.
  
 This software is provided under written license and may be
 used, copied, transmitted, or stored only in accord with that
 written license.
  
 The following legend is applicable only to US Government
 contracts under FAR:
  
                    RESTRICTED RIGHTS LEGEND
  
 Use, reproduction and disclosure by the US Government is
 subject to restrictions as set forth in subparagraphs (a)
 and (c) of the Commercial Computer Software - Restricted
 Rights clause in FAR 52.227-19.
  
 Gaussian, Inc.
 340 Quinnipiac St., Bldg. 40, Wallingford CT 06492
  
  
 ---------------------------------------------------------------
 Warning -- This program may not be used in any manner that
 competes with the business of Gaussian, Inc. or will provide
 assistance to any competitor of Gaussian, Inc.  The licensee
 of this program is prohibited from giving any competitor of
 Gaussian, Inc. access to this program.  By using this program,
 the user acknowledges that Gaussian, Inc. is engaged in the
 business of creating and licensing software in the field of
 computational chemistry and represents and warrants to the
 licensee that it is not a competitor of Gaussian, Inc. and that
 it will not use this program in any manner prohibited above.
 ---------------------------------------------------------------
  

 Cite this work as:
 Gaussian 09, Revision D.01,
 M. J. Frisch, G. W. Trucks, H. B. Schlegel, G. E. Scuseria, 
 M. A. Robb, J. R. Cheeseman, G. Scalmani, V. Barone, B. Mennucci, 
 G. A. Petersson, H. Nakatsuji, M. Caricato, X. Li, H. P. Hratchian, 
 A. F. Izmaylov, J. Bloino, G. Zheng, J. L. Sonnenberg, M. Hada, 
 M. Ehara, K. Toyota, R. Fukuda, J. Hasegawa, M. Ishida, T. Nakajima, 
 Y. Honda, O. Kitao, H. Nakai, T. Vreven, J. A. Montgomery, Jr., 
 J. E. Peralta, F. Ogliaro, M. Bearpark, J. J. Heyd, E. Brothers, 
 K. N. Kudin, V. N. Staroverov, T. Keith, R. Kobayashi, J. Normand, 
 K. Raghavachari, A. Rendell, J. C. Burant, S. S. Iyengar, J. Tomasi, 
 M. Cossi, N. Rega, J. M. Millam, M. Klene, J. E. Knox, J. B. Cross, 
 V. Bakken, C. Adamo, J. Jaramillo, R. Gomperts, R. E. Stratmann, 
 O. Yazyev, A. J. Austin, R. Cammi, C. Pomelli, J. W. Ochterski, 
 R. L. Martin, K. Morokuma, V. G. Zakrzewski, G. A. Voth, 
 P. Salvador, J. J. Dannenberg, S. Dapprich, A. D. Daniels, 
 O. Farkas, J. B. Foresman, J. V. Ortiz, J. Cioslowski, 
 and D. J. Fox, Gaussian, Inc., Wallingford CT, 2013.
 
 ******************************************
 Gaussian 09:  IA32W-G09RevD.01 24-Apr-2013
                15-Mar-2026 
 ******************************************
 %chk=C:\Users\User\Desktop\IMRG\ECE+ML\B_Gr_NS_NO2.chk
 ---------------------------------------
 # opt freq pm6 scf=qc geom=connectivity
 ---------------------------------------
 1/14=-1,18=20,19=15,26=1,38=1,57=2/1,3;
 2/9=110,12=2,17=6,18=5,40=1/2;
 3/5=2,16=1,25=1,41=3900000,71=1/1,2,3;
 4/35=1/1;
 5/5=2,8=3,35=1,38=5/8;
 6/7=2,8=2,9=2,10=2,28=1/1;
 7//1,2,3,16;
 1/14=-1,18=20,19=15,26=1/3(2);
 2/9=110/2;
 99//99;
 2/9=110/2;
 3/5=2,16=1,25=1,41=3900000,71=1,135=20/1,2,3;
 4/5=5,16=3,35=1/1;
 5/5=2,8=3,35=1,38=5/8;
 7//1,2,3,16;
 1/14=-1,18=20,19=15,26=1/3(-5);
 2/9=110/2;
 6/7=2,8=2,9=2,10=2,19=2,28=1/1;
 99/9=1/99;
 -----------
 B_Gr_NS_NO2
 -----------
 Symbolic Z-matrix:
 Charge =  0 Multiplicity = 1
 C                     0.17695   1.02371   2.99497 
 C                     1.43495   0.29741   2.57781 
 C                     2.69295   1.02371   2.99497 
 C                     5.20895   1.02371   2.99497 
 C                     7.72495   1.02371   2.99497 
 C                     3.95095   0.29741   2.57781 
 C                     6.46695   0.29741   2.57781 
 C                    -1.08105   3.20263   2.99497 
 C                    -2.33905   5.38155   2.99497 
 C                     0.17695   2.47633   2.57781 
 C                    -1.08105   4.65525   2.57781 
 C                    -2.33905   6.83417   2.57781 
 C                     1.43495   3.20263   2.99497 
 C                     0.17695   5.38155   2.99497 
 C                    -1.08105   7.56047   2.99497 
 C                     3.95095   3.20263   2.99497 
 C                     2.69295   5.38155   2.99497 
 C                     1.43495   7.56047   2.99497 
 C                     6.46695   3.20263   2.99497 
 C                     5.20895   5.38155   2.99497 
 C                     3.95095   7.56047   2.99497 
 C                     2.69295   2.47633   2.57781 
 C                     0.17695   6.83417   2.57781 
 C                     5.20895   2.47633   2.57781 
 C                     3.95095   4.65525   2.57781 
 C                     2.69295   6.83417   2.57781 
 C                     7.72495   2.47633   2.57781 
 C                     6.46695   4.65525   2.57781 
 C                     5.20895   6.83417   2.57781 
 H                     8.6156    2.99054   2.87315 
 H                     7.3576    5.16946   2.87315 
 H                     6.0996    7.34838   2.87315 
 H                     3.95095   8.58891   2.69962 
 H                     1.43495   8.58891   2.69962 
 H                    -1.08105   8.58891   2.69962 
 H                    -3.2297    7.34838   2.87315 
 H                    -3.2297    4.86734   2.69962 
 H                    -1.9717    2.68842   2.69962 
 H                    -0.7137    0.5095    2.69962 
 H                     1.43495  -0.73103   2.87315 
 H                     3.95095  -0.73103   2.87315 
 H                     6.49522  -0.60455   3.15277 
 H                     8.37341   0.35071   3.51599 
 B                     1.43495   4.65525   2.57781 
 N                     2.8057    3.81835   5.38342 
 O                     3.53593   2.61869   5.42516 
 O                     1.45849   3.93905   5.39859 
 
 Add virtual bond connecting atoms O46        and C16        Dist= 4.79D+00.
 Add virtual bond connecting atoms O47        and C13        Dist= 4.75D+00.

 GradGradGradGradGradGradGradGradGradGradGradGradGradGradGradGradGradGrad
 Berny optimization.
 Initialization pass.
                           ----------------------------
                           !    Initial Parameters    !
                           ! (Angstroms and Degrees)  !
 --------------------------                            --------------------------
 ! Name  Definition              Value          Derivative Info.                !
 --------------------------------------------------------------------------------
 ! R1    R(1,2)                  1.5113         estimate D2E/DX2                !
 ! R2    R(1,10)                 1.5113         estimate D2E/DX2                !
 ! R3    R(1,39)                 1.07           estimate D2E/DX2                !
 ! R4    R(2,3)                  1.5113         estimate D2E/DX2                !
 ! R5    R(2,40)                 1.07           estimate D2E/DX2                !
 ! R6    R(3,6)                  1.5113         estimate D2E/DX2                !
 ! R7    R(3,22)                 1.5113         estimate D2E/DX2                !
 ! R8    R(4,6)                  1.5113         estimate D2E/DX2                !
 ! R9    R(4,7)                  1.5113         estimate D2E/DX2                !
 ! R10   R(4,24)                 1.5113         estimate D2E/DX2                !
 ! R11   R(5,7)                  1.5113         estimate D2E/DX2                !
 ! R12   R(5,27)                 1.5113         estimate D2E/DX2                !
 ! R13   R(5,43)                 1.07           estimate D2E/DX2                !
 ! R14   R(6,41)                 1.07           estimate D2E/DX2                !
 ! R15   R(7,42)                 1.07           estimate D2E/DX2                !
 ! R16   R(8,10)                 1.5113         estimate D2E/DX2                !
 ! R17   R(8,11)                 1.5113         estimate D2E/DX2                !
 ! R18   R(8,38)                 1.07           estimate D2E/DX2                !
 ! R19   R(9,11)                 1.5113         estimate D2E/DX2                !
 ! R20   R(9,12)                 1.5113         estimate D2E/DX2                !
 ! R21   R(9,37)                 1.07           estimate D2E/DX2                !
 ! R22   R(10,13)                1.5113         estimate D2E/DX2                !
 ! R23   R(11,14)                1.5113         estimate D2E/DX2                !
 ! R24   R(12,15)                1.5113         estimate D2E/DX2                !
 ! R25   R(12,36)                1.07           estimate D2E/DX2                !
 ! R26   R(13,22)                1.5113         estimate D2E/DX2                !
 ! R27   R(13,44)                1.5113         estimate D2E/DX2                !
 ! R28   R(13,47)                2.514          estimate D2E/DX2                !
 ! R29   R(14,23)                1.5113         estimate D2E/DX2                !
 ! R30   R(14,44)                1.5113         estimate D2E/DX2                !
 ! R31   R(15,23)                1.5113         estimate D2E/DX2                !
 ! R32   R(15,35)                1.07           estimate D2E/DX2                !
 ! R33   R(16,22)                1.5113         estimate D2E/DX2                !
 ! R34   R(16,24)                1.5113         estimate D2E/DX2                !
 ! R35   R(16,25)                1.5113         estimate D2E/DX2                !
 ! R36   R(16,46)                2.5336         estimate D2E/DX2                !
 ! R37   R(17,25)                1.5113         estimate D2E/DX2                !
 ! R38   R(17,26)                1.5113         estimate D2E/DX2                !
 ! R39   R(17,44)                1.5113         estimate D2E/DX2                !
 ! R40   R(18,23)                1.5113         estimate D2E/DX2                !
 ! R41   R(18,26)                1.5113         estimate D2E/DX2                !
 ! R42   R(18,34)                1.07           estimate D2E/DX2                !
 ! R43   R(19,24)                1.5113         estimate D2E/DX2                !
 ! R44   R(19,27)                1.5113         estimate D2E/DX2                !
 ! R45   R(19,28)                1.5113         estimate D2E/DX2                !
 ! R46   R(20,25)                1.5113         estimate D2E/DX2                !
 ! R47   R(20,28)                1.5113         estimate D2E/DX2                !
 ! R48   R(20,29)                1.5113         estimate D2E/DX2                !
 ! R49   R(21,26)                1.5113         estimate D2E/DX2                !
 ! R50   R(21,29)                1.5113         estimate D2E/DX2                !
 ! R51   R(21,33)                1.07           estimate D2E/DX2                !
 ! R52   R(27,30)                1.07           estimate D2E/DX2                !
 ! R53   R(28,31)                1.07           estimate D2E/DX2                !
 ! R54   R(29,32)                1.07           estimate D2E/DX2                !
 ! R55   R(45,46)                1.405          estimate D2E/DX2                !
 ! R56   R(45,47)                1.3527         estimate D2E/DX2                !
 ! A1    A(2,1,10)             112.6884         estimate D2E/DX2                !
 ! A2    A(2,1,39)             112.6884         estimate D2E/DX2                !
 ! A3    A(10,1,39)            112.6884         estimate D2E/DX2                !
 ! A4    A(1,2,3)              112.6884         estimate D2E/DX2                !
 ! A5    A(1,2,40)             112.6884         estimate D2E/DX2                !
 ! A6    A(3,2,40)             112.6884         estimate D2E/DX2                !
 ! A7    A(2,3,6)              112.6884         estimate D2E/DX2                !
 ! A8    A(2,3,22)             112.6884         estimate D2E/DX2                !
 ! A9    A(6,3,22)             112.6884         estimate D2E/DX2                !
 ! A10   A(6,4,7)              112.6884         estimate D2E/DX2                !
 ! A11   A(6,4,24)             112.6884         estimate D2E/DX2                !
 ! A12   A(7,4,24)             112.6884         estimate D2E/DX2                !
 ! A13   A(7,5,27)             112.6884         estimate D2E/DX2                !
 ! A14   A(7,5,43)             109.6693         estimate D2E/DX2                !
 ! A15   A(27,5,43)            137.6415         estimate D2E/DX2                !
 ! A16   A(3,6,4)              112.6884         estimate D2E/DX2                !
 ! A17   A(3,6,41)             112.6884         estimate D2E/DX2                !
 ! A18   A(4,6,41)             112.6884         estimate D2E/DX2                !
 ! A19   A(4,7,5)              112.6884         estimate D2E/DX2                !
 ! A20   A(4,7,42)             106.187          estimate D2E/DX2                !
 ! A21   A(5,7,42)             103.5792         estimate D2E/DX2                !
 ! A22   A(10,8,11)            112.6884         estimate D2E/DX2                !
 ! A23   A(10,8,38)            112.6884         estimate D2E/DX2                !
 ! A24   A(11,8,38)            112.6884         estimate D2E/DX2                !
 ! A25   A(11,9,12)            112.6884         estimate D2E/DX2                !
 ! A26   A(11,9,37)            112.6884         estimate D2E/DX2                !
 ! A27   A(12,9,37)            112.6884         estimate D2E/DX2                !
 ! A28   A(1,10,8)             112.6884         estimate D2E/DX2                !
 ! A29   A(1,10,13)            112.6884         estimate D2E/DX2                !
 ! A30   A(8,10,13)            112.6884         estimate D2E/DX2                !
 ! A31   A(8,11,9)             112.6884         estimate D2E/DX2                !
 ! A32   A(8,11,14)            112.6884         estimate D2E/DX2                !
 ! A33   A(9,11,14)            112.6884         estimate D2E/DX2                !
 ! A34   A(9,12,15)            112.6884         estimate D2E/DX2                !
 ! A35   A(9,12,36)            112.6884         estimate D2E/DX2                !
 ! A36   A(15,12,36)           112.6884         estimate D2E/DX2                !
 ! A37   A(10,13,22)           112.6884         estimate D2E/DX2                !
 ! A38   A(10,13,44)           112.6884         estimate D2E/DX2                !
 ! A39   A(10,13,47)           114.3599         estimate D2E/DX2                !
 ! A40   A(22,13,44)           112.6884         estimate D2E/DX2                !
 ! A41   A(22,13,47)           113.3831         estimate D2E/DX2                !
 ! A42   A(44,13,47)            88.989          estimate D2E/DX2                !
 ! A43   A(11,14,23)           112.6884         estimate D2E/DX2                !
 ! A44   A(11,14,44)           112.6884         estimate D2E/DX2                !
 ! A45   A(23,14,44)           112.6884         estimate D2E/DX2                !
 ! A46   A(12,15,23)           112.6884         estimate D2E/DX2                !
 ! A47   A(12,15,35)           112.6884         estimate D2E/DX2                !
 ! A48   A(23,15,35)           112.6884         estimate D2E/DX2                !
 ! A49   A(22,16,24)           112.6884         estimate D2E/DX2                !
 ! A50   A(22,16,25)           112.6884         estimate D2E/DX2                !
 ! A51   A(22,16,46)            91.0108         estimate D2E/DX2                !
 ! A52   A(24,16,25)           112.6884         estimate D2E/DX2                !
 ! A53   A(24,16,46)           106.8785         estimate D2E/DX2                !
 ! A54   A(25,16,46)           119.0965         estimate D2E/DX2                !
 ! A55   A(25,17,26)           112.6884         estimate D2E/DX2                !
 ! A56   A(25,17,44)           112.6884         estimate D2E/DX2                !
 ! A57   A(26,17,44)           112.6884         estimate D2E/DX2                !
 ! A58   A(23,18,26)           112.6884         estimate D2E/DX2                !
 ! A59   A(23,18,34)           112.6884         estimate D2E/DX2                !
 ! A60   A(26,18,34)           112.6884         estimate D2E/DX2                !
 ! A61   A(24,19,27)           112.6884         estimate D2E/DX2                !
 ! A62   A(24,19,28)           112.6884         estimate D2E/DX2                !
 ! A63   A(27,19,28)           112.6884         estimate D2E/DX2                !
 ! A64   A(25,20,28)           112.6884         estimate D2E/DX2                !
 ! A65   A(25,20,29)           112.6884         estimate D2E/DX2                !
 ! A66   A(28,20,29)           112.6884         estimate D2E/DX2                !
 ! A67   A(26,21,29)           112.6884         estimate D2E/DX2                !
 ! A68   A(26,21,33)           112.6884         estimate D2E/DX2                !
 ! A69   A(29,21,33)           112.6884         estimate D2E/DX2                !
 ! A70   A(3,22,13)            112.6884         estimate D2E/DX2                !
 ! A71   A(3,22,16)            112.6884         estimate D2E/DX2                !
 ! A72   A(13,22,16)           112.6884         estimate D2E/DX2                !
 ! A73   A(14,23,15)           112.6884         estimate D2E/DX2                !
 ! A74   A(14,23,18)           112.6884         estimate D2E/DX2                !
 ! A75   A(15,23,18)           112.6884         estimate D2E/DX2                !
 ! A76   A(4,24,16)            112.6884         estimate D2E/DX2                !
 ! A77   A(4,24,19)            112.6884         estimate D2E/DX2                !
 ! A78   A(16,24,19)           112.6884         estimate D2E/DX2                !
 ! A79   A(16,25,17)           112.6884         estimate D2E/DX2                !
 ! A80   A(16,25,20)           112.6884         estimate D2E/DX2                !
 ! A81   A(17,25,20)           112.6884         estimate D2E/DX2                !
 ! A82   A(17,26,18)           112.6884         estimate D2E/DX2                !
 ! A83   A(17,26,21)           112.6884         estimate D2E/DX2                !
 ! A84   A(18,26,21)           112.6884         estimate D2E/DX2                !
 ! A85   A(5,27,19)            112.6884         estimate D2E/DX2                !
 ! A86   A(5,27,30)            112.6884         estimate D2E/DX2                !
 ! A87   A(19,27,30)           112.6884         estimate D2E/DX2                !
 ! A88   A(19,28,20)           112.6884         estimate D2E/DX2                !
 ! A89   A(19,28,31)           112.6884         estimate D2E/DX2                !
 ! A90   A(20,28,31)           112.6884         estimate D2E/DX2                !
 ! A91   A(20,29,21)           112.6884         estimate D2E/DX2                !
 ! A92   A(20,29,32)           112.6884         estimate D2E/DX2                !
 ! A93   A(21,29,32)           112.6884         estimate D2E/DX2                !
 ! A94   A(13,44,14)           112.6884         estimate D2E/DX2                !
 ! A95   A(13,44,17)           112.6884         estimate D2E/DX2                !
 ! A96   A(14,44,17)           112.6884         estimate D2E/DX2                !
 ! A97   A(46,45,47)           126.403          estimate D2E/DX2                !
 ! A98   A(16,46,45)            81.9434         estimate D2E/DX2                !
 ! A99   A(13,47,45)            88.4221         estimate D2E/DX2                !
 ! D1    D(10,1,2,3)            51.1032         estimate D2E/DX2                !
 ! D2    D(10,1,2,40)          180.0            estimate D2E/DX2                !
 ! D3    D(39,1,2,3)           180.0            estimate D2E/DX2                !
 ! D4    D(39,1,2,40)          -51.1032         estimate D2E/DX2                !
 ! D5    D(2,1,10,8)           180.0            estimate D2E/DX2                !
 ! D6    D(2,1,10,13)          -51.1032         estimate D2E/DX2                !
 ! D7    D(39,1,10,8)           51.1032         estimate D2E/DX2                !
 ! D8    D(39,1,10,13)         180.0            estimate D2E/DX2                !
 ! D9    D(1,2,3,6)            180.0            estimate D2E/DX2                !
 ! D10   D(1,2,3,22)           -51.1032         estimate D2E/DX2                !
 ! D11   D(40,2,3,6)            51.1032         estimate D2E/DX2                !
 ! D12   D(40,2,3,22)         -180.0            estimate D2E/DX2                !
 ! D13   D(2,3,6,4)            180.0            estimate D2E/DX2                !
 ! D14   D(2,3,6,41)           -51.1032         estimate D2E/DX2                !
 ! D15   D(22,3,6,4)            51.1032         estimate D2E/DX2                !
 ! D16   D(22,3,6,41)          180.0            estimate D2E/DX2                !
 ! D17   D(2,3,22,13)           51.1032         estimate D2E/DX2                !
 ! D18   D(2,3,22,16)          180.0            estimate D2E/DX2                !
 ! D19   D(6,3,22,13)          180.0            estimate D2E/DX2                !
 ! D20   D(6,3,22,16)          -51.1032         estimate D2E/DX2                !
 ! D21   D(7,4,6,3)            180.0            estimate D2E/DX2                !
 ! D22   D(7,4,6,41)            51.1032         estimate D2E/DX2                !
 ! D23   D(24,4,6,3)           -51.1032         estimate D2E/DX2                !
 ! D24   D(24,4,6,41)          180.0            estimate D2E/DX2                !
 ! D25   D(6,4,7,5)            180.0            estimate D2E/DX2                !
 ! D26   D(6,4,7,42)           -67.2727         estimate D2E/DX2                !
 ! D27   D(24,4,7,5)            51.1032         estimate D2E/DX2                !
 ! D28   D(24,4,7,42)          163.8304         estimate D2E/DX2                !
 ! D29   D(6,4,24,16)           51.1032         estimate D2E/DX2                !
 ! D30   D(6,4,24,19)          180.0            estimate D2E/DX2                !
 ! D31   D(7,4,24,16)          180.0            estimate D2E/DX2                !
 ! D32   D(7,4,24,19)          -51.1032         estimate D2E/DX2                !
 ! D33   D(27,5,7,4)           -51.1032         estimate D2E/DX2                !
 ! D34   D(27,5,7,42)         -165.4227         estimate D2E/DX2                !
 ! D35   D(43,5,7,4)           128.6399         estimate D2E/DX2                !
 ! D36   D(43,5,7,42)           14.3203         estimate D2E/DX2                !
 ! D37   D(7,5,27,19)           51.1032         estimate D2E/DX2                !
 ! D38   D(7,5,27,30)          180.0            estimate D2E/DX2                !
 ! D39   D(43,5,27,19)        -128.5377         estimate D2E/DX2                !
 ! D40   D(43,5,27,30)           0.3591         estimate D2E/DX2                !
 ! D41   D(11,8,10,1)          180.0            estimate D2E/DX2                !
 ! D42   D(11,8,10,13)          51.1032         estimate D2E/DX2                !
 ! D43   D(38,8,10,1)          -51.1032         estimate D2E/DX2                !
 ! D44   D(38,8,10,13)        -180.0            estimate D2E/DX2                !
 ! D45   D(10,8,11,9)          180.0            estimate D2E/DX2                !
 ! D46   D(10,8,11,14)         -51.1032         estimate D2E/DX2                !
 ! D47   D(38,8,11,9)           51.1032         estimate D2E/DX2                !
 ! D48   D(38,8,11,14)         180.0            estimate D2E/DX2                !
 ! D49   D(12,9,11,8)         -180.0            estimate D2E/DX2                !
 ! D50   D(12,9,11,14)          51.1032         estimate D2E/DX2                !
 ! D51   D(37,9,11,8)          -51.1032         estimate D2E/DX2                !
 ! D52   D(37,9,11,14)         180.0            estimate D2E/DX2                !
 ! D53   D(11,9,12,15)         -51.1032         estimate D2E/DX2                !
 ! D54   D(11,9,12,36)        -180.0            estimate D2E/DX2                !
 ! D55   D(37,9,12,15)         180.0            estimate D2E/DX2                !
 ! D56   D(37,9,12,36)          51.1032         estimate D2E/DX2                !
 ! D57   D(1,10,13,22)          51.1032         estimate D2E/DX2                !
 ! D58   D(1,10,13,44)         180.0            estimate D2E/DX2                !
 ! D59   D(1,10,13,47)         -80.3111         estimate D2E/DX2                !
 ! D60   D(8,10,13,22)         180.0            estimate D2E/DX2                !
 ! D61   D(8,10,13,44)         -51.1032         estimate D2E/DX2                !
 ! D62   D(8,10,13,47)          48.5858         estimate D2E/DX2                !
 ! D63   D(8,11,14,23)         180.0            estimate D2E/DX2                !
 ! D64   D(8,11,14,44)          51.1032         estimate D2E/DX2                !
 ! D65   D(9,11,14,23)         -51.1032         estimate D2E/DX2                !
 ! D66   D(9,11,14,44)         180.0            estimate D2E/DX2                !
 ! D67   D(9,12,15,23)          51.1032         estimate D2E/DX2                !
 ! D68   D(9,12,15,35)         180.0            estimate D2E/DX2                !
 ! D69   D(36,12,15,23)        180.0            estimate D2E/DX2                !
 ! D70   D(36,12,15,35)        -51.1032         estimate D2E/DX2                !
 ! D71   D(10,13,22,3)         -51.1032         estimate D2E/DX2                !
 ! D72   D(10,13,22,16)        180.0            estimate D2E/DX2                !
 ! D73   D(44,13,22,3)         180.0            estimate D2E/DX2                !
 ! D74   D(44,13,22,16)         51.1032         estimate D2E/DX2                !
 ! D75   D(47,13,22,3)          80.797          estimate D2E/DX2                !
 ! D76   D(47,13,22,16)        -48.0999         estimate D2E/DX2                !
 ! D77   D(10,13,44,14)         51.1032         estimate D2E/DX2                !
 ! D78   D(10,13,44,17)        180.0            estimate D2E/DX2                !
 ! D79   D(22,13,44,14)       -180.0            estimate D2E/DX2                !
 ! D80   D(22,13,44,17)        -51.1032         estimate D2E/DX2                !
 ! D81   D(47,13,44,14)        -64.9851         estimate D2E/DX2                !
 ! D82   D(47,13,44,17)         63.9118         estimate D2E/DX2                !
 ! D83   D(10,13,47,45)        150.7334         estimate D2E/DX2                !
 ! D84   D(22,13,47,45)         19.6561         estimate D2E/DX2                !
 ! D85   D(44,13,47,45)        -94.7164         estimate D2E/DX2                !
 ! D86   D(11,14,23,15)         51.1032         estimate D2E/DX2                !
 ! D87   D(11,14,23,18)        180.0            estimate D2E/DX2                !
 ! D88   D(44,14,23,15)        180.0            estimate D2E/DX2                !
 ! D89   D(44,14,23,18)        -51.1032         estimate D2E/DX2                !
 ! D90   D(11,14,44,13)        -51.1032         estimate D2E/DX2                !
 ! D91   D(11,14,44,17)        180.0            estimate D2E/DX2                !
 ! D92   D(23,14,44,13)       -180.0            estimate D2E/DX2                !
 ! D93   D(23,14,44,17)         51.1032         estimate D2E/DX2                !
 ! D94   D(12,15,23,14)        -51.1032         estimate D2E/DX2                !
 ! D95   D(12,15,23,18)        180.0            estimate D2E/DX2                !
 ! D96   D(35,15,23,14)        180.0            estimate D2E/DX2                !
 ! D97   D(35,15,23,18)         51.1032         estimate D2E/DX2                !
 ! D98   D(24,16,22,3)          51.1032         estimate D2E/DX2                !
 ! D99   D(24,16,22,13)        180.0            estimate D2E/DX2                !
 ! D100  D(25,16,22,3)         180.0            estimate D2E/DX2                !
 ! D101  D(25,16,22,13)        -51.1032         estimate D2E/DX2                !
 ! D102  D(46,16,22,3)         -57.6881         estimate D2E/DX2                !
 ! D103  D(46,16,22,13)         71.2087         estimate D2E/DX2                !
 ! D104  D(22,16,24,4)         -51.1032         estimate D2E/DX2                !
 ! D105  D(22,16,24,19)        180.0            estimate D2E/DX2                !
 ! D106  D(25,16,24,4)         180.0            estimate D2E/DX2                !
 ! D107  D(25,16,24,19)         51.1032         estimate D2E/DX2                !
 ! D108  D(46,16,24,4)          47.3401         estimate D2E/DX2                !
 ! D109  D(46,16,24,19)        -81.5567         estimate D2E/DX2                !
 ! D110  D(22,16,25,17)         51.1032         estimate D2E/DX2                !
 ! D111  D(22,16,25,20)        180.0            estimate D2E/DX2                !
 ! D112  D(24,16,25,17)        180.0            estimate D2E/DX2                !
 ! D113  D(24,16,25,20)        -51.1032         estimate D2E/DX2                !
 ! D114  D(46,16,25,17)        -53.6435         estimate D2E/DX2                !
 ! D115  D(46,16,25,20)         75.2534         estimate D2E/DX2                !
 ! D116  D(22,16,46,45)        -88.3791         estimate D2E/DX2                !
 ! D117  D(24,16,46,45)        157.5103         estimate D2E/DX2                !
 ! D118  D(25,16,46,45)         28.4489         estimate D2E/DX2                !
 ! D119  D(26,17,25,16)       -180.0            estimate D2E/DX2                !
 ! D120  D(26,17,25,20)         51.1032         estimate D2E/DX2                !
 ! D121  D(44,17,25,16)        -51.1032         estimate D2E/DX2                !
 ! D122  D(44,17,25,20)        180.0            estimate D2E/DX2                !
 ! D123  D(25,17,26,18)        180.0            estimate D2E/DX2                !
 ! D124  D(25,17,26,21)        -51.1032         estimate D2E/DX2                !
 ! D125  D(44,17,26,18)         51.1032         estimate D2E/DX2                !
 ! D126  D(44,17,26,21)        180.0            estimate D2E/DX2                !
 ! D127  D(25,17,44,13)         51.1032         estimate D2E/DX2                !
 ! D128  D(25,17,44,14)        180.0            estimate D2E/DX2                !
 ! D129  D(26,17,44,13)        180.0            estimate D2E/DX2                !
 ! D130  D(26,17,44,14)        -51.1032         estimate D2E/DX2                !
 ! D131  D(26,18,23,14)         51.1032         estimate D2E/DX2                !
 ! D132  D(26,18,23,15)        180.0            estimate D2E/DX2                !
 ! D133  D(34,18,23,14)        180.0            estimate D2E/DX2                !
 ! D134  D(34,18,23,15)        -51.1032         estimate D2E/DX2                !
 ! D135  D(23,18,26,17)        -51.1032         estimate D2E/DX2                !
 ! D136  D(23,18,26,21)        180.0            estimate D2E/DX2                !
 ! D137  D(34,18,26,17)        180.0            estimate D2E/DX2                !
 ! D138  D(34,18,26,21)         51.1032         estimate D2E/DX2                !
 ! D139  D(27,19,24,4)          51.1032         estimate D2E/DX2                !
 ! D140  D(27,19,24,16)        180.0            estimate D2E/DX2                !
 ! D141  D(28,19,24,4)         180.0            estimate D2E/DX2                !
 ! D142  D(28,19,24,16)        -51.1032         estimate D2E/DX2                !
 ! D143  D(24,19,27,5)         -51.1032         estimate D2E/DX2                !
 ! D144  D(24,19,27,30)        180.0            estimate D2E/DX2                !
 ! D145  D(28,19,27,5)         180.0            estimate D2E/DX2                !
 ! D146  D(28,19,27,30)         51.1032         estimate D2E/DX2                !
 ! D147  D(24,19,28,20)         51.1032         estimate D2E/DX2                !
 ! D148  D(24,19,28,31)        180.0            estimate D2E/DX2                !
 ! D149  D(27,19,28,20)        180.0            estimate D2E/DX2                !
 ! D150  D(27,19,28,31)        -51.1032         estimate D2E/DX2                !
 ! D151  D(28,20,25,16)         51.1032         estimate D2E/DX2                !
 ! D152  D(28,20,25,17)        180.0            estimate D2E/DX2                !
 ! D153  D(29,20,25,16)        180.0            estimate D2E/DX2                !
 ! D154  D(29,20,25,17)        -51.1032         estimate D2E/DX2                !
 ! D155  D(25,20,28,19)        -51.1032         estimate D2E/DX2                !
 ! D156  D(25,20,28,31)        180.0            estimate D2E/DX2                !
 ! D157  D(29,20,28,19)       -180.0            estimate D2E/DX2                !
 ! D158  D(29,20,28,31)         51.1032         estimate D2E/DX2                !
 ! D159  D(25,20,29,21)         51.1032         estimate D2E/DX2                !
 ! D160  D(25,20,29,32)        180.0            estimate D2E/DX2                !
 ! D161  D(28,20,29,21)        180.0            estimate D2E/DX2                !
 ! D162  D(28,20,29,32)        -51.1032         estimate D2E/DX2                !
 ! D163  D(29,21,26,17)         51.1032         estimate D2E/DX2                !
 ! D164  D(29,21,26,18)       -180.0            estimate D2E/DX2                !
 ! D165  D(33,21,26,17)        180.0            estimate D2E/DX2                !
 ! D166  D(33,21,26,18)        -51.1032         estimate D2E/DX2                !
 ! D167  D(26,21,29,20)        -51.1032         estimate D2E/DX2                !
 ! D168  D(26,21,29,32)        180.0            estimate D2E/DX2                !
 ! D169  D(33,21,29,20)        180.0            estimate D2E/DX2                !
 ! D170  D(33,21,29,32)         51.1032         estimate D2E/DX2                !
 ! D171  D(47,45,46,16)        107.2646         estimate D2E/DX2                !
 ! D172  D(46,45,47,13)        -75.5699         estimate D2E/DX2                !
 --------------------------------------------------------------------------------
 Trust Radius=3.00D-01 FncErr=1.00D-07 GrdErr=1.00D-07
 Number of steps in this run=    282 maximum allowed number of steps=    282.
 GradGradGradGradGradGradGradGradGradGradGradGradGradGradGradGradGradGrad

                          Input orientation:                          
 ---------------------------------------------------------------------
 Center     Atomic      Atomic             Coordinates (Angstroms)
 Number     Number       Type             X           Y           Z
 ---------------------------------------------------------------------
      1          6           0        0.176948    1.023714    2.994967
      2          6           0        1.434948    0.297407    2.577810
      3          6           0        2.692948    1.023714    2.994967
      4          6           0        5.208948    1.023714    2.994967
      5          6           0        7.724948    1.023714    2.994967
      6          6           0        3.950948    0.297407    2.577810
      7          6           0        6.466948    0.297407    2.577810
      8          6           0       -1.081052    3.202634    2.994967
      9          6           0       -2.339052    5.381554    2.994967
     10          6           0        0.176948    2.476327    2.577810
     11          6           0       -1.081052    4.655247    2.577810
     12          6           0       -2.339052    6.834167    2.577810
     13          6           0        1.434948    3.202634    2.994967
     14          6           0        0.176948    5.381554    2.994967
     15          6           0       -1.081052    7.560474    2.994967
     16          6           0        3.950948    3.202634    2.994967
     17          6           0        2.692948    5.381554    2.994967
     18          6           0        1.434948    7.560474    2.994967
     19          6           0        6.466948    3.202634    2.994967
     20          6           0        5.208948    5.381554    2.994967
     21          6           0        3.950948    7.560474    2.994967
     22          6           0        2.692948    2.476327    2.577810
     23          6           0        0.176948    6.834167    2.577810
     24          6           0        5.208948    2.476327    2.577810
     25          6           0        3.950948    4.655247    2.577810
     26          6           0        2.692948    6.834167    2.577810
     27          6           0        7.724948    2.476327    2.577810
     28          6           0        6.466948    4.655247    2.577810
     29          6           0        5.208948    6.834167    2.577810
     30          1           0        8.615597    2.990544    2.873152
     31          1           0        7.357597    5.169464    2.873152
     32          1           0        6.099597    7.348383    2.873152
     33          1           0        3.950948    8.588906    2.699625
     34          1           0        1.434948    8.588906    2.699625
     35          1           0       -1.081052    8.588906    2.699625
     36          1           0       -3.229701    7.348383    2.873152
     37          1           0       -3.229701    4.867338    2.699625
     38          1           0       -1.971701    2.688418    2.699625
     39          1           0       -0.713701    0.509498    2.699625
     40          1           0        1.434948   -0.731025    2.873152
     41          1           0        3.950948   -0.731025    2.873152
     42          1           0        6.495217   -0.604546    3.152772
     43          1           0        8.373408    0.350713    3.515994
     44          5           0        1.434948    4.655247    2.577810
     45          7           0        2.805703    3.818352    5.383416
     46          8           0        3.535925    2.618692    5.425157
     47          8           0        1.458491    3.939051    5.398590
 ---------------------------------------------------------------------
                    Distance matrix (angstroms):
                    1          2          3          4          5
     1  C    0.000000
     2  C    1.511326   0.000000
     3  C    2.516000   1.511326   0.000000
     4  C    5.032000   3.865827   2.516000   0.000000
     5  C    7.548000   6.345521   5.032000   2.516000   0.000000
     6  C    3.865827   2.516000   1.511326   1.511326   3.865827
     7  C    6.345521   5.032000   3.865827   1.511326   1.511326
     8  C    2.516000   3.865827   4.357840   6.656710   9.071567
     9  C    5.032000   6.345521   6.656710   8.715680  10.966990
    10  C    1.511326   2.516000   2.935023   5.254058   7.697818
    11  C    3.865827   5.032000   5.254058   7.275036   9.534552
    12  C    6.345521   7.548000   7.697818   9.534552  11.628391
    13  C    2.516000   2.935023   2.516000   4.357840   6.656710
    14  C    4.357840   5.254058   5.032000   6.656710   8.715680
    15  C    6.656710   7.697818   7.548000   9.071567  10.966990
    16  C    4.357840   3.865827   2.516000   2.516000   4.357840
    17  C    5.032000   5.254058   4.357840   5.032000   6.656710
    18  C    6.656710   7.275036   6.656710   7.548000   9.071567
    19  C    6.656710   5.825409   4.357840   2.516000   2.516000
    20  C    6.656710   6.345521   5.032000   4.357840   5.032000
    21  C    7.548000   7.697818   6.656710   6.656710   7.548000
    22  C    2.935023   2.516000   1.511326   2.935023   5.254058
    23  C    5.825409   6.656710   6.345521   7.697818   9.534552
    24  C    5.254058   4.357840   2.935023   1.511326   2.935023
    25  C    5.254058   5.032000   3.865827   3.865827   5.254058
    26  C    6.345521   6.656710   5.825409   6.345521   7.697818
    27  C    7.697818   6.656710   5.254058   2.935023   1.511326
    28  C    7.275036   6.656710   5.254058   3.865827   3.865827
    29  C    7.697818   7.548000   6.345521   5.825409   6.345521
    30  H    8.665682   7.674759   6.241877   3.935545   2.162524
    31  H    8.292394   7.674759   6.241877   4.671056   4.163775
    32  H    8.665682   8.459458   7.184813   6.388234   6.531313
    33  H    8.459458   8.665682   7.674759   7.674759   8.459458
    34  H    7.674759   8.292394   7.674759   8.459458   9.842940
    35  H    7.674759   8.665682   8.459458   9.842940  11.613139
    36  H    7.184813   8.459458   8.665682  10.546425  12.649925
    37  H    5.144504   6.531313   7.066713   9.277471  11.613139
    38  H    2.734073   4.163775   4.961594   7.377003   9.842940
    39  H    1.070000   2.162524   3.457875   5.952261   8.459458
    40  H    2.162524   1.070000   2.162524   4.163775   6.531313
    41  H    4.163775   2.734073   2.162524   2.162524   4.163775
    42  H    6.526612   5.172082   4.139249   2.081015   2.046551
    43  H    8.240531   7.001804   5.743868   3.276920   1.070000
    44  B    3.865827   4.357840   3.865827   5.254058   7.275036
    45  N    4.519407   4.706107   3.677962   4.392070   6.141145
    46  O    4.442129   4.232003   3.026614   3.353921   5.098793
    47  O    3.989856   4.606400   3.974982   5.323770   7.317450
                    6          7          8          9         10
     6  C    0.000000
     7  C    2.516000   0.000000
     8  C    5.825409   8.098559   0.000000
     9  C    8.098559  10.176846   2.516000   0.000000
    10  C    4.357840   6.656710   1.511326   3.865827   0.000000
    11  C    6.656710   8.715680   1.511326   1.511326   2.516000
    12  C    9.071567  10.966990   3.865827   1.511326   5.032000
    13  C    3.865827   5.825409   2.516000   4.357840   1.511326
    14  C    6.345521   8.098559   2.516000   2.516000   2.935023
    15  C    8.845743  10.483246   4.357840   2.516000   5.254058
    16  C    2.935023   3.865827   5.032000   6.656710   3.865827
    17  C    5.254058   6.345521   4.357840   5.032000   3.865827
    18  C    7.697818   8.845743   5.032000   4.357840   5.254058
    19  C    3.865827   2.935023   7.548000   9.071567   6.345521
    20  C    5.254058   5.254058   6.656710   7.548000   5.825409
    21  C    7.275036   7.697818   6.656710   6.656710   6.345521
    22  C    2.516000   4.357840   3.865827   5.825409   2.516000
    23  C    7.548000   9.071567   3.865827   2.935023   4.357840
    24  C    2.516000   2.516000   6.345521   8.098559   5.032000
    25  C    4.357840   5.032000   5.254058   6.345521   4.357840
    26  C    6.656710   7.548000   5.254058   5.254058   5.032000
    27  C    4.357840   2.516000   8.845743  10.483246   7.548000
    28  C    5.032000   4.357840   7.697818   8.845743   6.656710
    29  C    6.656710   6.656710   7.275036   7.697818   6.656710
    30  H    5.394363   3.457875   9.699733  11.213211   8.459458
    31  H    5.952261   4.961594   8.665682   9.699733   7.674759
    32  H    7.377003   7.066713   8.292394   8.665682   7.674759
    33  H    8.292394   8.665682   7.377003   7.066713   7.184813
    34  H    8.665682   9.699733   5.952261   4.961594   6.241877
    35  H    9.699733  11.213211   5.394363   3.457875   6.241877
    36  H   10.068029  11.992851   4.671056   2.162524   5.952261
    37  H    8.512392  10.720266   2.734073   1.070000   4.163775
    38  H    6.388234   8.771691   1.070000   2.734073   2.162524
    39  H    4.671056   7.184813   2.734073   5.144504   2.162524
    40  H    2.734073   5.144504   4.671056   7.184813   3.457875
    41  H    1.070000   2.734073   6.388234   8.771691   4.961594
    42  H    2.759965   1.070000   8.480529  10.672516   7.052864
    43  H    4.521192   2.125469   9.888970  11.846418   8.519412
    44  B    5.032000   6.656710   2.935023   3.865827   2.516000
    45  N    4.645434   5.802861   4.603331   5.883604   4.072199
    46  O    3.697025   4.699643   5.250076   6.932142   4.405721
    47  O    5.237433   6.804631   3.573373   4.720122   3.426180
                   11         12         13         14         15
    11  C    0.000000
    12  C    2.516000   0.000000
    13  C    2.935023   5.254058   0.000000
    14  C    1.511326   2.935023   2.516000   0.000000
    15  C    2.935023   1.511326   5.032000   2.516000   0.000000
    16  C    5.254058   7.275036   2.516000   4.357840   6.656710
    17  C    3.865827   5.254058   2.516000   2.516000   4.357840
    18  C    3.865827   3.865827   4.357840   2.516000   2.516000
    19  C    7.697818   9.534552   5.032000   6.656710   8.715680
    20  C    6.345521   7.697818   4.357840   5.032000   6.656710
    21  C    5.825409   6.345521   5.032000   4.357840   5.032000
    22  C    4.357840   6.656710   1.511326   3.865827   6.345521
    23  C    2.516000   2.516000   3.865827   1.511326   1.511326
    24  C    6.656710   8.715680   3.865827   5.825409   8.098559
    25  C    5.032000   6.656710   2.935023   3.865827   5.825409
    26  C    4.357840   5.032000   3.865827   2.935023   3.865827
    27  C    9.071567  10.966990   6.345521   8.098559  10.176846
    28  C    7.548000   9.071567   5.254058   6.345521   8.098559
    29  C    6.656710   7.548000   5.254058   5.254058   6.345521
    30  H    9.842940  11.613139   7.184813   8.771691  10.720266
    31  H    8.459458   9.842940   6.241877   7.184813   8.771691
    32  H    7.674759   8.459458   6.241877   6.241877   7.184813
    33  H    6.388234   6.531313   5.952261   4.961594   5.144504
    34  H    4.671056   4.163775   5.394363   3.457875   2.734073
    35  H    3.935545   2.162524   5.952261   3.457875   1.070000
    36  H    3.457875   1.070000   6.241877   3.935545   2.162524
    37  H    2.162524   2.162524   4.961594   3.457875   3.457875
    38  H    2.162524   4.163775   3.457875   3.457875   4.961594
    39  H    4.163775   6.531313   3.457875   4.961594   7.066713
    40  H    5.952261   8.459458   3.935545   6.241877   8.665682
    41  H    7.377003   9.842940   4.671056   7.184813   9.699733
    42  H    9.240988  11.563276   6.334497   8.705103  11.139673
    43  H   10.430533  12.556757   7.519784   9.631344  11.901215
    44  B    2.516000   4.357840   1.511326   1.511326   3.865827
    45  N    4.866074   6.590528   2.821837   3.880547   5.900426
    46  O    5.794085   7.771292   3.265106   4.982164   7.186342
    47  O    3.862514   5.546154   2.514015   3.082300   5.034023
                   16         17         18         19         20
    16  C    0.000000
    17  C    2.516000   0.000000
    18  C    5.032000   2.516000   0.000000
    19  C    2.516000   4.357840   6.656710   0.000000
    20  C    2.516000   2.516000   4.357840   2.516000   0.000000
    21  C    4.357840   2.516000   2.516000   5.032000   2.516000
    22  C    1.511326   2.935023   5.254058   3.865827   3.865827
    23  C    5.254058   2.935023   1.511326   7.275036   5.254058
    24  C    1.511326   3.865827   6.345521   1.511326   2.935023
    25  C    1.511326   1.511326   3.865827   2.935023   1.511326
    26  C    3.865827   1.511326   1.511326   5.254058   2.935023
    27  C    3.865827   5.825409   8.098559   1.511326   3.865827
    28  C    2.935023   3.865827   5.825409   1.511326   1.511326
    29  C    3.865827   2.935023   3.865827   3.865827   1.511326
    30  H    4.671056   6.388234   8.512392   2.162524   4.163775
    31  H    3.935545   4.671056   6.388234   2.162524   2.162524
    32  H    4.671056   3.935545   4.671056   4.163775   2.162524
    33  H    5.394363   3.457875   2.734073   5.952261   3.457875
    34  H    5.952261   3.457875   1.070000   7.377003   4.961594
    35  H    7.377003   4.961594   2.734073   9.277471   7.066713
    36  H    8.292394   6.241877   4.671056  10.546425   8.665682
    37  H    7.377003   5.952261   5.394363   9.842940   8.459458
    38  H    5.952261   5.394363   5.952261   8.459458   7.674759
    39  H    5.394363   5.952261   7.377003   7.674759   7.674759
    40  H    4.671056   6.241877   8.292394   6.388234   7.184813
    41  H    3.935545   6.241877   8.665682   4.671056   6.241877
    42  H    4.581793   7.093345   9.607225   3.810554   6.124768
    43  H    5.288012   7.605817  10.019698   3.469800   5.966124
    44  B    2.935023   1.511326   2.935023   5.254058   3.865827
    45  N    2.719446   2.856747   4.646196   4.414580   3.731471
    46  O    2.533586   3.774896   5.894161   3.851974   4.042058
    47  O    3.540065   3.063022   4.346569   5.603959   4.682323
                   21         22         23         24         25
    21  C    0.000000
    22  C    5.254058   0.000000
    23  C    3.865827   5.032000   0.000000
    24  C    5.254058   2.516000   6.656710   0.000000
    25  C    2.935023   2.516000   4.357840   2.516000   0.000000
    26  C    1.511326   4.357840   2.516000   5.032000   2.516000
    27  C    6.345521   5.032000   8.715680   2.516000   4.357840
    28  C    3.865827   4.357840   6.656710   2.516000   2.516000
    29  C    1.511326   5.032000   5.032000   4.357840   2.516000
    30  H    6.531313   5.952261   9.277471   3.457875   4.961594
    31  H    4.163775   5.394363   7.377003   3.457875   3.457875
    32  H    2.162524   5.952261   5.952261   4.961594   3.457875
    33  H    1.070000   6.241877   4.163775   6.241877   3.935545
    34  H    2.734073   6.241877   2.162524   7.184813   4.671056
    35  H    5.144504   7.184813   2.162524   8.771691   6.388234
    36  H    7.184813   7.674759   3.457875   9.748587   7.674759
    37  H    7.674759   6.388234   3.935545   8.771691   7.184813
    38  H    7.674759   4.671056   4.671056   7.184813   6.241877
    39  H    8.459458   3.935545   6.388234   6.241877   6.241877
    40  H    8.665682   3.457875   7.674759   4.961594   5.952261
    41  H    8.292394   3.457875   8.459458   3.457875   5.394363
    42  H    8.553698   4.927435   9.776787   3.387750   5.871057
    43  H    8.474094   6.137267  10.492727   3.925841   6.242384
    44  B    3.865827   2.516000   2.516000   4.357840   2.516000
    45  N    4.584730   3.112100   4.886401   3.930400   3.143788
    46  O    5.522615   2.972922   6.095928   3.305549   3.525221
    47  O    5.010434   3.408848   4.240383   4.915515   3.831720
                   26         27         28         29         30
    26  C    0.000000
    27  C    6.656710   0.000000
    28  C    4.357840   2.516000   0.000000
    29  C    2.516000   5.032000   2.516000   0.000000
    30  H    7.066713   1.070000   2.734073   5.144504   0.000000
    31  H    4.961594   2.734073   1.070000   2.734073   2.516000
    32  H    3.457875   5.144504   2.734073   1.070000   5.032000
    33  H    2.162524   7.184813   4.671056   2.162524   7.289082
    34  H    2.162524   8.771691   6.388234   4.163775   9.106783
    35  H    4.163775  10.720266   8.512392   6.531313  11.198070
    36  H    5.952261  11.992851  10.068029   8.459458  12.621483
    37  H    6.241877  11.213211   9.699733   8.665682  11.994313
    38  H    6.241877   9.699733   8.665682   8.292394  10.593029
    39  H    7.184813   8.665682   8.292394   8.665682   9.655127
    40  H    7.674759   7.066713   7.377003   8.459458   8.087755
    41  H    7.674759   4.961594   5.952261   7.674759   5.967329
    42  H    8.373905   3.366689   5.291201   7.570966   4.183164
    43  H    8.670812   2.412245   4.800395   7.275244   2.727747
    44  B    2.516000   6.656710   5.032000   4.357840   7.377003
    45  N    4.120592   5.819917   4.687914   4.768873   6.382912
    46  O    5.156377   5.067106   4.565724   5.355055   5.696847
    47  O    4.226391   7.026012   5.792614   5.514021   7.648638
                   31         32         33         34         35
    31  H    0.000000
    32  H    2.516000   0.000000
    33  H    4.829902   2.487107   0.000000
    34  H    6.841087   4.829902   2.516000   0.000000
    35  H    9.106783   7.289082   5.032000   2.516000   0.000000
    36  H   10.809188   9.329297   7.289082   4.829902   2.487107
    37  H   10.593029   9.655127   8.087755   5.967329   4.297297
    38  H    9.655127   9.321547   8.360235   6.813297   5.967329
    39  H    9.321547   9.655127   9.329297   8.360235   8.087755
    40  H    8.360235   9.329297   9.655127   9.321547   9.655127
    41  H    6.813297   8.360235   9.321547   9.655127  10.593029
    42  H    5.844747   7.967671   9.549775  10.503867  11.921609
    43  H    4.966435   7.385855   9.385757  10.801690  12.566666
    44  B    5.952261   5.394363   4.671056   3.935545   4.671056
    45  N    5.370909   5.441717   5.592183   5.642685   6.713254
    46  O    5.255886   5.954420   6.576034   6.891015   8.024242
    47  O    6.533850   6.288183   5.926036   5.376441   5.945994
                   36         37         38         39         40
    36  H    0.000000
    37  H    2.487107   0.000000
    38  H    4.829902   2.516000   0.000000
    39  H    7.289082   5.032000   2.516000   0.000000
    40  H    9.329297   7.289082   4.829902   2.487107   0.000000
    41  H   10.809188   9.106783   6.841087   4.829902   2.516000
    42  H   12.565878  11.167850   9.096024   7.308552   5.069567
    43  H   13.565130  12.477920  10.637321   9.125087   7.051640
    44  B    5.394363   4.671056   3.935545   4.671056   5.394363
    45  N    7.428906   6.687989   5.594914   5.526070   5.373753
    46  O    8.640394   7.632734   6.145513   5.471430   4.706107
    47  O    6.323015   5.488649   4.540342   4.874901   5.309238
                   41         42         43         44         45
    41  H    0.000000
    42  H    2.562712   0.000000
    43  H    4.597995   2.138235   0.000000
    44  B    5.952261   7.321361   8.218967   0.000000
    45  N    5.320700   6.176594   6.819906   3.232767   0.000000
    46  O    4.231499   4.930558   5.673611   4.082774   1.405045
    47  O    5.865134   7.145389   8.014762   2.910376   1.352693
                   46         47
    46  O    0.000000
    47  O    2.461664   0.000000
 Stoichiometry    C29H14BNO2
 Framework group  C1[X(C29H14BNO2)]
 Deg. of freedom   135
 Full point group                 C1      NOp   1
 Largest Abelian subgroup         C1      NOp   1
 Largest concise Abelian subgroup C1      NOp   1
                         Standard orientation:                         
 ---------------------------------------------------------------------
 Center     Atomic      Atomic             Coordinates (Angstroms)
 Number     Number       Type             X           Y           Z
 ---------------------------------------------------------------------
      1          6           0       -0.737281   -3.720853   -0.199681
      2          6           0        0.713887   -3.701999   -0.621416
      3          6           0        1.437663   -2.456487   -0.164303
      4          6           0        3.612607   -1.192120   -0.128926
      5          6           0        5.787551    0.072246   -0.093548
      6          6           0        2.888831   -2.437632   -0.586039
      7          6           0        5.063775   -1.173266   -0.550662
      8          6           0       -2.920130   -2.470676   -0.149840
      9          6           0       -5.102978   -1.220498   -0.099999
     10          6           0       -1.468962   -2.451821   -0.571576
     11          6           0       -3.651810   -1.201644   -0.521735
     12          6           0       -5.834659    0.048534   -0.471894
     13          6           0       -0.745185   -1.206309   -0.114462
     14          6           0       -2.928034    0.043868   -0.064622
     15          6           0       -5.110883    1.294046   -0.014781
     16          6           0        1.429759    0.058057   -0.079085
     17          6           0       -0.753090    1.308235   -0.029244
     18          6           0       -2.935939    2.558412    0.020597
     19          6           0        3.604703    1.322424   -0.043708
     20          6           0        1.421854    2.572601    0.006133
     21          6           0       -0.760994    3.822779    0.055974
     22          6           0        0.705982   -1.187455   -0.536198
     23          6           0       -3.659715    1.312900   -0.436517
     24          6           0        2.880927    0.076911   -0.500821
     25          6           0        0.698078    1.327089   -0.450980
     26          6           0       -1.484771    2.577267   -0.401139
     27          6           0        5.055871    1.341278   -0.465444
     28          6           0        2.873022    2.591455   -0.415603
     29          6           0        0.690173    3.841633   -0.365762
     30          1           0        5.568295    2.223085   -0.141813
     31          1           0        3.385447    3.473263   -0.091972
     32          1           0        1.202598    4.723440   -0.042131
     33          1           0       -1.279015    4.721238   -0.207323
     34          1           0       -3.453960    3.456871   -0.242701
     35          1           0       -5.628904    2.192505   -0.278078
     36          1           0       -6.862068    0.035185   -0.173310
     37          1           0       -5.615403   -2.102306   -0.423629
     38          1           0       -3.432554   -3.352483   -0.473470
     39          1           0       -1.249706   -4.602661   -0.523311
     40          1           0        1.231908   -4.600458   -0.358119
     41          1           0        3.406852   -3.336092   -0.322742
     42          1           0        5.543609   -1.957722   -0.003589
     43          1           0        6.688223   -0.200928    0.415438
     44          5           0       -1.476866    0.062723   -0.486357
     45          7           0        0.138412   -0.066419    2.310960
     46          8           0        1.372880   -0.737255    2.325764
     47          8           0       -1.086804   -0.639676    2.310923
 ---------------------------------------------------------------------
 Rotational constants (GHZ):      0.2551303      0.1230410      0.0918867
 Standard basis: VSTO-6G (5D, 7F)
 There are   146 symmetry adapted cartesian basis functions of A   symmetry.
 There are   146 symmetry adapted basis functions of A   symmetry.
   146 basis functions,   876 primitive gaussians,   146 cartesian basis functions
    75 alpha electrons       75 beta electrons
       nuclear repulsion energy      1529.8224882711 Hartrees.
 Integral buffers will be    262144 words long.
 Regular integral format.
 Two-electron integral symmetry is turned off.
 Do NDO integrals.
 One-electron integrals computed using PRISM.
 NBasis=   146 RedAO= F EigKep=  0.00D+00  NBF=   146
 NBsUse=   146 1.00D-04 EigRej=  0.00D+00 NBFU=   146
 Simple Huckel Guess.
 Keep J ints in memory in canonical form, NReq=1117905.
 Gradient too large for Newton-Raphson -- use scaled steepest descent instead.
     Minimum is close to point  6 DX=  7.61D-02 DF= -2.07D-03 DXR=  5.53D-02 DFR=  3.21D-03 which will be used.
 Gradient too large for Newton-Raphson -- use scaled steepest descent instead.
     Accept linear search using points  2 and  3.
 Gradient too large for Newton-Raphson -- use scaled steepest descent instead.
 Gradient too large for Newton-Raphson -- use scaled steepest descent instead.
     Accept linear search using points  1 and  2.
 Gradient too large for Newton-Raphson -- use scaled steepest descent instead.
 Gradient too large for Newton-Raphson -- use scaled steepest descent instead.
     Accept linear search using points  1 and  2.
     Minimum is close to point  2 DX= -6.60D-02 DF= -2.03D-06 DXR=  6.39D-02 DFR=  4.79D-03 which will be used.
 LinEq1:  Iter=  0 NonCon=     1 RMS=3.20D-04 Max=1.43D-02 NDo=     1
 AX will form     1 AO Fock derivatives at one time.
 LinEq1:  Iter=  1 NonCon=     1 RMS=1.88D-04 Max=5.34D-03 NDo=     1
 LinEq1:  Iter=  2 NonCon=     1 RMS=5.12D-05 Max=1.38D-03 NDo=     1
 LinEq1:  Iter=  3 NonCon=     1 RMS=1.44D-05 Max=3.64D-04 NDo=     1
 LinEq1:  Iter=  4 NonCon=     1 RMS=7.27D-06 Max=1.77D-04 NDo=     1
 LinEq1:  Iter=  5 NonCon=     1 RMS=2.58D-06 Max=6.77D-05 NDo=     1
 LinEq1:  Iter=  6 NonCon=     1 RMS=1.04D-06 Max=3.32D-05 NDo=     1
 LinEq1:  Iter=  7 NonCon=     1 RMS=4.46D-07 Max=7.00D-06 NDo=     1
 LinEq1:  Iter=  8 NonCon=     1 RMS=1.59D-07 Max=2.45D-06 NDo=     1
 LinEq1:  Iter=  9 NonCon=     1 RMS=5.23D-08 Max=9.75D-07 NDo=     1
 LinEq1:  Iter= 10 NonCon=     1 RMS=1.82D-08 Max=5.30D-07 NDo=     1
 LinEq1:  Iter= 11 NonCon=     1 RMS=6.37D-09 Max=1.21D-07 NDo=     1
 LinEq1:  Iter= 12 NonCon=     1 RMS=3.03D-09 Max=1.17D-07 NDo=     1
 LinEq1:  Iter= 13 NonCon=     0 RMS=1.05D-09 Max=2.13D-08 NDo=     1
 Linear equations converged to 1.032D-08 1.032D-07 after    13 iterations.
 LinEq1:  Iter=  0 NonCon=     1 RMS=1.63D-04 Max=6.93D-03 NDo=     1
 LinEq1:  Iter=  1 NonCon=     1 RMS=7.69D-05 Max=2.50D-03 NDo=     1
 LinEq1:  Iter=  2 NonCon=     1 RMS=3.48D-05 Max=1.11D-03 NDo=     1
 LinEq1:  Iter=  3 NonCon=     1 RMS=1.07D-05 Max=1.70D-04 NDo=     1
 LinEq1:  Iter=  4 NonCon=     1 RMS=4.29D-06 Max=1.10D-04 NDo=     1
 LinEq1:  Iter=  5 NonCon=     1 RMS=1.81D-06 Max=3.41D-05 NDo=     1
 LinEq1:  Iter=  6 NonCon=     1 RMS=7.64D-07 Max=2.45D-05 NDo=     1
 LinEq1:  Iter=  7 NonCon=     1 RMS=2.99D-07 Max=6.59D-06 NDo=     1
 LinEq1:  Iter=  8 NonCon=     1 RMS=1.17D-07 Max=2.59D-06 NDo=     1
 LinEq1:  Iter=  9 NonCon=     1 RMS=4.25D-08 Max=9.32D-07 NDo=     1
 LinEq1:  Iter= 10 NonCon=     1 RMS=1.38D-08 Max=2.70D-07 NDo=     1
 LinEq1:  Iter= 11 NonCon=     0 RMS=4.25D-09 Max=7.20D-08 NDo=     1
 Linear equations converged to 1.032D-08 1.032D-07 after    11 iterations.
     Accept linear search using points  1 and  2.
     Minimum is close to point  2 DX= -8.07D-02 DF= -2.47D-06 DXR=  8.78D-02 DFR=  1.69D-02 which will be used.
 LinEq1:  Iter=  0 NonCon=     1 RMS=1.75D-04 Max=4.49D-03 NDo=     1
 LinEq1:  Iter=  1 NonCon=     1 RMS=9.62D-05 Max=4.02D-03 NDo=     1
 LinEq1:  Iter=  2 NonCon=     1 RMS=4.54D-05 Max=1.97D-03 NDo=     1
 LinEq1:  Iter=  3 NonCon=     1 RMS=1.69D-05 Max=4.16D-04 NDo=     1
 LinEq1:  Iter=  4 NonCon=     1 RMS=5.59D-06 Max=8.26D-05 NDo=     1
 LinEq1:  Iter=  5 NonCon=     1 RMS=2.40D-06 Max=5.51D-05 NDo=     1
 LinEq1:  Iter=  6 NonCon=     1 RMS=6.62D-07 Max=1.53D-05 NDo=     1
 LinEq1:  Iter=  7 NonCon=     1 RMS=2.46D-07 Max=6.72D-06 NDo=     1
 LinEq1:  Iter=  8 NonCon=     1 RMS=1.03D-07 Max=1.96D-06 NDo=     1
 LinEq1:  Iter=  9 NonCon=     1 RMS=4.32D-08 Max=1.19D-06 NDo=     1
 LinEq1:  Iter= 10 NonCon=     1 RMS=1.17D-08 Max=2.35D-07 NDo=     1
 LinEq1:  Iter= 11 NonCon=     0 RMS=3.69D-09 Max=7.00D-08 NDo=     1
 Linear equations converged to 1.032D-08 1.032D-07 after    11 iterations.
     Accept linear search using points  3 and  4.
     Minimum is close to point  4 DX= -1.32D-01 DF= -2.74D-06 DXR=  5.33D-02 DFR=  1.64D-02 which will be used.
 LinEq1:  Iter=  0 NonCon=     1 RMS=1.46D-04 Max=2.45D-03 NDo=     1
 LinEq1:  Iter=  1 NonCon=     1 RMS=7.58D-05 Max=2.86D-03 NDo=     1
 LinEq1:  Iter=  2 NonCon=     1 RMS=3.46D-05 Max=1.50D-03 NDo=     1
 LinEq1:  Iter=  3 NonCon=     1 RMS=1.32D-05 Max=4.65D-04 NDo=     1
 LinEq1:  Iter=  4 NonCon=     1 RMS=3.85D-06 Max=6.77D-05 NDo=     1
 LinEq1:  Iter=  5 NonCon=     1 RMS=1.80D-06 Max=5.31D-05 NDo=     1
 LinEq1:  Iter=  6 NonCon=     1 RMS=4.79D-07 Max=9.20D-06 NDo=     1
 LinEq1:  Iter=  7 NonCon=     1 RMS=1.81D-07 Max=5.47D-06 NDo=     1
 LinEq1:  Iter=  8 NonCon=     1 RMS=6.77D-08 Max=1.00D-06 NDo=     1
 LinEq1:  Iter=  9 NonCon=     1 RMS=2.94D-08 Max=5.23D-07 NDo=     1
 LinEq1:  Iter= 10 NonCon=     1 RMS=1.13D-08 Max=2.59D-07 NDo=     1
 LinEq1:  Iter= 11 NonCon=     0 RMS=3.52D-09 Max=6.36D-08 NDo=     1
 Linear equations converged to 1.032D-08 1.032D-07 after    11 iterations.
     Accept linear search using points  1 and  2.
 LinEq1:  Iter=  0 NonCon=     1 RMS=7.01D-05 Max=3.83D-03 NDo=     1
 LinEq1:  Iter=  1 NonCon=     1 RMS=1.96D-05 Max=3.40D-04 NDo=     1
 LinEq1:  Iter=  2 NonCon=     1 RMS=9.21D-06 Max=1.97D-04 NDo=     1
 LinEq1:  Iter=  3 NonCon=     1 RMS=3.67D-06 Max=8.46D-05 NDo=     1
 LinEq1:  Iter=  4 NonCon=     1 RMS=8.91D-07 Max=2.16D-05 NDo=     1
 LinEq1:  Iter=  5 NonCon=     1 RMS=3.55D-07 Max=7.63D-06 NDo=     1
 LinEq1:  Iter=  6 NonCon=     1 RMS=1.48D-07 Max=3.84D-06 NDo=     1
 LinEq1:  Iter=  7 NonCon=     1 RMS=4.90D-08 Max=1.24D-06 NDo=     1
 LinEq1:  Iter=  8 NonCon=     1 RMS=2.30D-08 Max=7.70D-07 NDo=     1
 LinEq1:  Iter=  9 NonCon=     1 RMS=8.52D-09 Max=2.09D-07 NDo=     1
 LinEq1:  Iter= 10 NonCon=     0 RMS=3.24D-09 Max=7.55D-08 NDo=     1
 Linear equations converged to 1.032D-08 1.032D-07 after    10 iterations.
     Minimum is close to point  2 DX=  3.22D-02 DF= -1.85D-08 DXR=  3.12D-02 DFR=  9.72D-04 which will be used.
 LinEq1:  Iter=  0 NonCon=     1 RMS=2.41D-06 Max=1.58D-04 NDo=     1
 LinEq1:  Iter=  1 NonCon=     1 RMS=8.31D-07 Max=2.04D-05 NDo=     1
 LinEq1:  Iter=  2 NonCon=     1 RMS=3.51D-07 Max=6.55D-06 NDo=     1
 LinEq1:  Iter=  3 NonCon=     1 RMS=1.22D-07 Max=2.68D-06 NDo=     1
 LinEq1:  Iter=  4 NonCon=     1 RMS=4.24D-08 Max=1.03D-06 NDo=     1
 LinEq1:  Iter=  5 NonCon=     1 RMS=2.09D-08 Max=4.00D-07 NDo=     1
 LinEq1:  Iter=  6 NonCon=     1 RMS=4.76D-09 Max=1.75D-07 NDo=     1
 LinEq1:  Iter=  7 NonCon=     1 RMS=1.98D-09 Max=6.93D-08 NDo=     1
 LinEq1:  Iter=  8 NonCon=     1 RMS=8.00D-10 Max=1.27D-08 NDo=     1
 LinEq1:  Iter=  9 NonCon=     1 RMS=3.49D-10 Max=8.27D-09 NDo=     1
 LinEq1:  Iter= 10 NonCon=     0 RMS=1.18D-10 Max=2.40D-09 NDo=     1
 Linear equations converged to 5.145D-10 5.145D-09 after    10 iterations.
 LinEq1:  Iter=  0 NonCon=     1 RMS=1.32D-07 Max=2.71D-06 NDo=     1
 LinEq1:  Iter=  1 NonCon=     1 RMS=6.75D-08 Max=1.82D-06 NDo=     1
 LinEq1:  Iter=  2 NonCon=     1 RMS=2.49D-08 Max=7.60D-07 NDo=     1
 LinEq1:  Iter=  3 NonCon=     1 RMS=1.17D-08 Max=4.19D-07 NDo=     1
 LinEq1:  Iter=  4 NonCon=     1 RMS=4.48D-09 Max=1.06D-07 NDo=     1
 LinEq1:  Iter=  5 NonCon=     1 RMS=1.37D-09 Max=3.38D-08 NDo=     1
 LinEq1:  Iter=  6 NonCon=     1 RMS=6.01D-10 Max=1.30D-08 NDo=     1
 LinEq1:  Iter=  7 NonCon=     1 RMS=2.36D-10 Max=4.88D-09 NDo=     1
 LinEq1:  Iter=  8 NonCon=     1 RMS=8.47D-11 Max=1.51D-09 NDo=     1
 LinEq1:  Iter=  9 NonCon=     1 RMS=3.18D-11 Max=9.60D-10 NDo=     1
 LinEq1:  Iter= 10 NonCon=     1 RMS=1.70D-11 Max=7.61D-10 NDo=     1
 LinEq1:  Iter= 11 NonCon=     0 RMS=4.56D-12 Max=1.29D-10 NDo=     1
 Linear equations converged to 6.037D-11 6.037D-10 after    11 iterations.
 SCF Done:  E(RPM6) =   1.29896550337     a.u. after   14 cycles
            Convg  =    0.5821D-06                   109 Fock formations.
              S**2 =  0.0000                  -V/T =  1.0125

 **********************************************************************

            Population analysis using the SCF density.

 **********************************************************************

 Orbital symmetries:
       Occupied  (A) (A) (A) (A) (A) (A) (A) (A) (A) (A) (A) (A)
                 (A) (A) (A) (A) (A) (A) (A) (A) (A) (A) (A) (A)
                 (A) (A) (A) (A) (A) (A) (A) (A) (A) (A) (A) (A)
                 (A) (A) (A) (A) (A) (A) (A) (A) (A) (A) (A) (A)
                 (A) (A) (A) (A) (A) (A) (A) (A) (A) (A) (A) (A)
                 (A) (A) (A) (A) (A) (A) (A) (A) (A) (A) (A) (A)
                 (A) (A) (A)
       Virtual   (A) (A) (A) (A) (A) (A) (A) (A) (A) (A) (A) (A)
                 (A) (A) (A) (A) (A) (A) (A) (A) (A) (A) (A) (A)
                 (A) (A) (A) (A) (A) (A) (A) (A) (A) (A) (A) (A)
                 (A) (A) (A) (A) (A) (A) (A) (A) (A) (A) (A) (A)
                 (A) (A) (A) (A) (A) (A) (A) (A) (A) (A) (A) (A)
                 (A) (A) (A) (A) (A) (A) (A) (A) (A) (A) (A)
 The electronic state is 1-A.
 Alpha  occ. eigenvalues --   -1.08459  -1.06184  -1.05706  -1.05298  -1.02484
 Alpha  occ. eigenvalues --   -1.01061  -1.00877  -0.98522  -0.98058  -0.95797
 Alpha  occ. eigenvalues --   -0.93671  -0.93109  -0.91697  -0.91205  -0.87724
 Alpha  occ. eigenvalues --   -0.87087  -0.86291  -0.81390  -0.79092  -0.78722
 Alpha  occ. eigenvalues --   -0.78249  -0.75023  -0.74892  -0.74491  -0.72441
 Alpha  occ. eigenvalues --   -0.69023  -0.66938  -0.66200  -0.63554  -0.62781
 Alpha  occ. eigenvalues --   -0.61009  -0.59794  -0.58161  -0.56844  -0.56355
 Alpha  occ. eigenvalues --   -0.56081  -0.54970  -0.54781  -0.54055  -0.53688
 Alpha  occ. eigenvalues --   -0.52402  -0.51888  -0.51230  -0.50436  -0.49636
 Alpha  occ. eigenvalues --   -0.48624  -0.48579  -0.48301  -0.48223  -0.47476
 Alpha  occ. eigenvalues --   -0.47195  -0.46639  -0.45887  -0.45664  -0.45498
 Alpha  occ. eigenvalues --   -0.45138  -0.44510  -0.44316  -0.43365  -0.42575
 Alpha  occ. eigenvalues --   -0.42156  -0.41126  -0.39655  -0.39370  -0.37673
 Alpha  occ. eigenvalues --   -0.37607  -0.36287  -0.35648  -0.34751  -0.34202
 Alpha  occ. eigenvalues --   -0.33340  -0.32381  -0.30738  -0.28666  -0.26589
 Alpha virt. eigenvalues --   -0.14863  -0.10178  -0.06371  -0.05565  -0.04589
 Alpha virt. eigenvalues --   -0.02727  -0.02155  -0.01948  -0.01407   0.00168
 Alpha virt. eigenvalues --    0.01312   0.01746   0.03222   0.03840   0.05097
 Alpha virt. eigenvalues --    0.05535   0.07419   0.09476   0.09773   0.10796
 Alpha virt. eigenvalues --    0.10881   0.11200   0.11309   0.11532   0.11907
 Alpha virt. eigenvalues --    0.12039   0.12355   0.12676   0.12747   0.13034
 Alpha virt. eigenvalues --    0.13099   0.13348   0.13598   0.13720   0.13932
 Alpha virt. eigenvalues --    0.14118   0.14147   0.14285   0.14538   0.14721
 Alpha virt. eigenvalues --    0.14897   0.15024   0.15160   0.15219   0.15657
 Alpha virt. eigenvalues --    0.15879   0.16044   0.16281   0.16396   0.16621
 Alpha virt. eigenvalues --    0.17074   0.17332   0.17641   0.17827   0.18086
 Alpha virt. eigenvalues --    0.18512   0.18546   0.18890   0.19129   0.19207
 Alpha virt. eigenvalues --    0.19605   0.19620   0.19820   0.20156   0.20770
 Alpha virt. eigenvalues --    0.20978   0.21416   0.21534   0.21566   0.21650
 Alpha virt. eigenvalues --    0.21765
          Condensed to atoms (all electrons):
               1          2          3          4          5          6
     1  C    4.053048   0.000000   0.000000   0.000000   0.000000   0.000000
     2  C    0.000000   4.205040   0.000000   0.000000   0.000000   0.000000
     3  C    0.000000   0.000000   3.889552   0.000000   0.000000   0.000000
     4  C    0.000000   0.000000   0.000000   3.950334   0.000000   0.000000
     5  C    0.000000   0.000000   0.000000   0.000000   4.189296   0.000000
     6  C    0.000000   0.000000   0.000000   0.000000   0.000000   4.088396
     7  C    0.000000   0.000000   0.000000   0.000000   0.000000   0.000000
     8  C    0.000000   0.000000   0.000000   0.000000   0.000000   0.000000
     9  C    0.000000   0.000000   0.000000   0.000000   0.000000   0.000000
    10  C    0.000000   0.000000   0.000000   0.000000   0.000000   0.000000
    11  C    0.000000   0.000000   0.000000   0.000000   0.000000   0.000000
    12  C    0.000000   0.000000   0.000000   0.000000   0.000000   0.000000
    13  C    0.000000   0.000000   0.000000   0.000000   0.000000   0.000000
    14  C    0.000000   0.000000   0.000000   0.000000   0.000000   0.000000
    15  C    0.000000   0.000000   0.000000   0.000000   0.000000   0.000000
    16  C    0.000000   0.000000   0.000000   0.000000   0.000000   0.000000
    17  C    0.000000   0.000000   0.000000   0.000000   0.000000   0.000000
    18  C    0.000000   0.000000   0.000000   0.000000   0.000000   0.000000
    19  C    0.000000   0.000000   0.000000   0.000000   0.000000   0.000000
    20  C    0.000000   0.000000   0.000000   0.000000   0.000000   0.000000
    21  C    0.000000   0.000000   0.000000   0.000000   0.000000   0.000000
    22  C    0.000000   0.000000   0.000000   0.000000   0.000000   0.000000
    23  C    0.000000   0.000000   0.000000   0.000000   0.000000   0.000000
    24  C    0.000000   0.000000   0.000000   0.000000   0.000000   0.000000
    25  C    0.000000   0.000000   0.000000   0.000000   0.000000   0.000000
    26  C    0.000000   0.000000   0.000000   0.000000   0.000000   0.000000
    27  C    0.000000   0.000000   0.000000   0.000000   0.000000   0.000000
    28  C    0.000000   0.000000   0.000000   0.000000   0.000000   0.000000
    29  C    0.000000   0.000000   0.000000   0.000000   0.000000   0.000000
    30  H    0.000000   0.000000   0.000000   0.000000   0.000000   0.000000
    31  H    0.000000   0.000000   0.000000   0.000000   0.000000   0.000000
    32  H    0.000000   0.000000   0.000000   0.000000   0.000000   0.000000
    33  H    0.000000   0.000000   0.000000   0.000000   0.000000   0.000000
    34  H    0.000000   0.000000   0.000000   0.000000   0.000000   0.000000
    35  H    0.000000   0.000000   0.000000   0.000000   0.000000   0.000000
    36  H    0.000000   0.000000   0.000000   0.000000   0.000000   0.000000
    37  H    0.000000   0.000000   0.000000   0.000000   0.000000   0.000000
    38  H    0.000000   0.000000   0.000000   0.000000   0.000000   0.000000
    39  H    0.000000   0.000000   0.000000   0.000000   0.000000   0.000000
    40  H    0.000000   0.000000   0.000000   0.000000   0.000000   0.000000
    41  H    0.000000   0.000000   0.000000   0.000000   0.000000   0.000000
    42  H    0.000000   0.000000   0.000000   0.000000   0.000000   0.000000
    43  H    0.000000   0.000000   0.000000   0.000000   0.000000   0.000000
    44  B    0.000000   0.000000   0.000000   0.000000   0.000000   0.000000
    45  N    0.000000   0.000000   0.000000   0.000000   0.000000   0.000000
    46  O    0.000000   0.000000   0.000000   0.000000   0.000000   0.000000
    47  O    0.000000   0.000000   0.000000   0.000000   0.000000   0.000000
               7          8          9         10         11         12
     1  C    0.000000   0.000000   0.000000   0.000000   0.000000   0.000000
     2  C    0.000000   0.000000   0.000000   0.000000   0.000000   0.000000
     3  C    0.000000   0.000000   0.000000   0.000000   0.000000   0.000000
     4  C    0.000000   0.000000   0.000000   0.000000   0.000000   0.000000
     5  C    0.000000   0.000000   0.000000   0.000000   0.000000   0.000000
     6  C    0.000000   0.000000   0.000000   0.000000   0.000000   0.000000
     7  C    4.088438   0.000000   0.000000   0.000000   0.000000   0.000000
     8  C    0.000000   3.925845   0.000000   0.000000   0.000000   0.000000
     9  C    0.000000   0.000000   4.005003   0.000000   0.000000   0.000000
    10  C    0.000000   0.000000   0.000000   4.124988   0.000000   0.000000
    11  C    0.000000   0.000000   0.000000   0.000000   4.113458   0.000000
    12  C    0.000000   0.000000   0.000000   0.000000   0.000000   4.216537
    13  C    0.000000   0.000000   0.000000   0.000000   0.000000   0.000000
    14  C    0.000000   0.000000   0.000000   0.000000   0.000000   0.000000
    15  C    0.000000   0.000000   0.000000   0.000000   0.000000   0.000000
    16  C    0.000000   0.000000   0.000000   0.000000   0.000000   0.000000
    17  C    0.000000   0.000000   0.000000   0.000000   0.000000   0.000000
    18  C    0.000000   0.000000   0.000000   0.000000   0.000000   0.000000
    19  C    0.000000   0.000000   0.000000   0.000000   0.000000   0.000000
    20  C    0.000000   0.000000   0.000000   0.000000   0.000000   0.000000
    21  C    0.000000   0.000000   0.000000   0.000000   0.000000   0.000000
    22  C    0.000000   0.000000   0.000000   0.000000   0.000000   0.000000
    23  C    0.000000   0.000000   0.000000   0.000000   0.000000   0.000000
    24  C    0.000000   0.000000   0.000000   0.000000   0.000000   0.000000
    25  C    0.000000   0.000000   0.000000   0.000000   0.000000   0.000000
    26  C    0.000000   0.000000   0.000000   0.000000   0.000000   0.000000
    27  C    0.000000   0.000000   0.000000   0.000000   0.000000   0.000000
    28  C    0.000000   0.000000   0.000000   0.000000   0.000000   0.000000
    29  C    0.000000   0.000000   0.000000   0.000000   0.000000   0.000000
    30  H    0.000000   0.000000   0.000000   0.000000   0.000000   0.000000
    31  H    0.000000   0.000000   0.000000   0.000000   0.000000   0.000000
    32  H    0.000000   0.000000   0.000000   0.000000   0.000000   0.000000
    33  H    0.000000   0.000000   0.000000   0.000000   0.000000   0.000000
    34  H    0.000000   0.000000   0.000000   0.000000   0.000000   0.000000
    35  H    0.000000   0.000000   0.000000   0.000000   0.000000   0.000000
    36  H    0.000000   0.000000   0.000000   0.000000   0.000000   0.000000
    37  H    0.000000   0.000000   0.000000   0.000000   0.000000   0.000000
    38  H    0.000000   0.000000   0.000000   0.000000   0.000000   0.000000
    39  H    0.000000   0.000000   0.000000   0.000000   0.000000   0.000000
    40  H    0.000000   0.000000   0.000000   0.000000   0.000000   0.000000
    41  H    0.000000   0.000000   0.000000   0.000000   0.000000   0.000000
    42  H    0.000000   0.000000   0.000000   0.000000   0.000000   0.000000
    43  H    0.000000   0.000000   0.000000   0.000000   0.000000   0.000000
    44  B    0.000000   0.000000   0.000000   0.000000   0.000000   0.000000
    45  N    0.000000   0.000000   0.000000   0.000000   0.000000   0.000000
    46  O    0.000000   0.000000   0.000000   0.000000   0.000000   0.000000
    47  O    0.000000   0.000000   0.000000   0.000000   0.000000   0.000000
              13         14         15         16         17         18
     1  C    0.000000   0.000000   0.000000   0.000000   0.000000   0.000000
     2  C    0.000000   0.000000   0.000000   0.000000   0.000000   0.000000
     3  C    0.000000   0.000000   0.000000   0.000000   0.000000   0.000000
     4  C    0.000000   0.000000   0.000000   0.000000   0.000000   0.000000
     5  C    0.000000   0.000000   0.000000   0.000000   0.000000   0.000000
     6  C    0.000000   0.000000   0.000000   0.000000   0.000000   0.000000
     7  C    0.000000   0.000000   0.000000   0.000000   0.000000   0.000000
     8  C    0.000000   0.000000   0.000000   0.000000   0.000000   0.000000
     9  C    0.000000   0.000000   0.000000   0.000000   0.000000   0.000000
    10  C    0.000000   0.000000   0.000000   0.000000   0.000000   0.000000
    11  C    0.000000   0.000000   0.000000   0.000000   0.000000   0.000000
    12  C    0.000000   0.000000   0.000000   0.000000   0.000000   0.000000
    13  C    3.698146   0.000000   0.000000   0.000000   0.000000   0.000000
    14  C    0.000000   3.829194   0.000000   0.000000   0.000000   0.000000
    15  C    0.000000   0.000000   4.002275   0.000000   0.000000   0.000000
    16  C    0.000000   0.000000   0.000000   3.879013   0.000000   0.000000
    17  C    0.000000   0.000000   0.000000   0.000000   3.844007   0.000000
    18  C    0.000000   0.000000   0.000000   0.000000   0.000000   4.100432
    19  C    0.000000   0.000000   0.000000   0.000000   0.000000   0.000000
    20  C    0.000000   0.000000   0.000000   0.000000   0.000000   0.000000
    21  C    0.000000   0.000000   0.000000   0.000000   0.000000   0.000000
    22  C    0.000000   0.000000   0.000000   0.000000   0.000000   0.000000
    23  C    0.000000   0.000000   0.000000   0.000000   0.000000   0.000000
    24  C    0.000000   0.000000   0.000000   0.000000   0.000000   0.000000
    25  C    0.000000   0.000000   0.000000   0.000000   0.000000   0.000000
    26  C    0.000000   0.000000   0.000000   0.000000   0.000000   0.000000
    27  C    0.000000   0.000000   0.000000   0.000000   0.000000   0.000000
    28  C    0.000000   0.000000   0.000000   0.000000   0.000000   0.000000
    29  C    0.000000   0.000000   0.000000   0.000000   0.000000   0.000000
[...]
 524,0.00007203,-0.00036563,0.00005532,0.00000646,0.00001092,0.00003227
 ,-0.00005770,0.00003467,-0.00010535,0.00000905,0.00005994,-0.00001459,
 -0.00002566,0.00000982,-0.00000472,0.47982370,0.00021004,0.00102104,-0
 .00001576,0.00058596,0.00046602,0.00007812,0.00120550,-0.00438238,-0.0
 0255870,0.00534359,-0.00112082,-0.00048274,0.00264825,0.00447956,0.000
 06718,-0.00417737,0.00021709,0.00061489,-0.00545807,-0.00003995,0.0004
 2741,-0.00282602,0.00198156,-0.00078433,-0.00110989,-0.00057805,0.0005
 2184,-0.00964433,-0.01516883,-0.00641158,-0.00452322,0.00313623,-0.000
 92717,-0.00017895,0.00056238,-0.00014420,0.00817999,-0.22430609,-0.041
 90107,0.08062524,-0.07923191,0.02934003,-0.00097350,-0.00195734,0.0008
 9080,0.00911765,0.01106410,0.00051284,-0.08852342,-0.07106795,0.021167
 21,-0.00299797,-0.00349171,0.00023027,-0.00327190,0.00441608,0.0004871
 4,-0.00330582,-0.00100127,0.00087295,-0.00011983,-0.00145715,0.0003534
 1,-0.00047475,-0.01290888,-0.00659787,0.01669569,-0.01826598,0.0091778
 6,-0.00015880,0.00108905,0.00012493,0.01288174,-0.00379941,-0.00202751
 ,-0.01244514,-0.02138497,0.00654008,0.00252321,-0.00466659,-0.00052304
 ,0.00252554,-0.00376465,-0.00053345,0.00034282,-0.00017232,-0.00008945
 ,0.00001884,0.00003611,0.00001903,0.00000045,-0.00008273,0.00002765,-0
 .00001193,0.00002366,-0.00004161,-0.00024555,-0.00012148,-0.00002441,0
 .00001944,0.00032667,-0.00022596,0.00032256,-0.00011351,-0.00008586,0.
 00015641,-0.00007589,-0.00007732,-0.00024856,0.00013911,-0.00004467,0.
 00013423,-0.00002350,0.00022083,-0.00009034,0.00009008,-0.00006314,0.0
 0004130,-0.00001377,0.00003101,-0.00004089,-0.00013232,0.00013738,0.00
 002770,-0.00002662,-0.00001185,0.00000858,-0.00001384,0.00000252,-0.01
 043529,0.46795613,0.00002777,0.00023560,0.00080564,0.00027711,0.000431
 19,-0.00022577,0.00024560,-0.00178141,0.00440277,0.00062030,-0.0001458
 1,0.00028702,0.00017826,-0.00002028,0.00000867,-0.00063547,0.00045361,
 -0.00054864,-0.00050437,0.00025220,-0.00003324,-0.00101086,0.00063991,
 -0.00145481,-0.00097407,0.00028017,0.00326546,-0.00118360,-0.00484501,
 0.00596617,-0.00834569,-0.00077711,0.00278401,0.00049698,-0.00028326,0
 .00015249,-0.00156765,-0.04048919,-0.05127014,-0.04788426,0.02815075,-
 0.05884935,-0.00078125,0.00059182,0.00327415,0.00148404,-0.00058878,-0
 .00311146,0.03094365,0.02006383,-0.04957467,-0.00103422,0.00051981,-0.
 00143973,0.00033536,-0.00035374,0.00029648,0.00150757,0.00054722,0.004
 48673,-0.00019085,-0.00016828,0.00080425,0.00213894,-0.00448376,0.0066
 8494,-0.00319923,0.00727251,0.00304355,-0.00069126,0.00041659,-0.00015
 605,0.00489776,0.00008396,0.00680940,0.00324727,0.00278369,0.00625227,
 -0.00039698,0.00018263,-0.00004645,-0.00063515,0.00023678,-0.00056669,
 -0.00022728,-0.00044144,-0.00024044,0.00015972,0.00006509,0.00002959,0
 .00013572,0.00014510,-0.00029699,0.00008925,0.00006158,-0.00006835,0.0
 0001637,0.00008439,0.00010316,0.00001715,0.00007696,-0.00014901,0.0000
 6005,0.00010733,-0.00024529,-0.00010823,0.00007110,-0.00057657,-0.0000
 6778,-0.00009495,-0.00024715,-0.00005100,-0.00004809,-0.00014464,-0.00
 006750,-0.00006070,0.00010049,-0.00000735,-0.00010690,-0.00006990,-0.0
 0005647,-0.00018607,-0.00029963,0.00002321,-0.00017133,0.00002585,0.00
 008871,-0.00005170,0.00000974,0.00605822,-0.00164277,0.32669606,0.0001
 8242,-0.00045352,0.00002311,-0.00027469,0.00026592,-0.00025806,0.00031
 619,-0.00122796,0.00018190,0.00037764,-0.00032003,0.00030872,-0.000102
 71,-0.00037850,0.00006225,-0.00063831,0.00034439,-0.00034152,-0.000194
 92,0.00024346,-0.00019543,0.00065091,-0.00206091,0.00010914,-0.0001288
 4,-0.00002093,-0.00031638,-0.00154744,0.00041082,-0.00017670,0.0017280
 4,0.00219963,0.00012351,0.00036533,-0.00028086,0.00014393,0.00353189,-
 0.00474319,-0.00053730,-0.00378947,0.00250302,0.00186238,0.00003687,0.
 00013996,-0.00028375,0.00212161,-0.00232987,0.00163317,0.00637621,-0.0
 0050754,0.00228806,0.00211950,0.00050854,0.00023680,0.00095926,-0.0007
 8125,0.00018981,0.00181242,0.00046926,-0.00018892,0.00046565,0.0000381
 4,0.00003448,-0.00341582,0.00169804,-0.00133642,-0.00116130,-0.0026278
 4,-0.00008274,-0.00137969,0.00074569,-0.00027968,-0.00459467,0.0032541
 6,-0.00010267,-0.00107696,0.00079412,-0.00053452,-0.00067962,0.0007401
 9,-0.00010806,-0.00093453,0.00090794,-0.00017679,-0.00034416,0.0000310
 2,-0.00018378,0.00015978,0.00006533,0.00006191,0.00019399,0.00011997,0
 .00012418,0.00013782,0.00008237,0.00008397,-0.00000211,0.00008615,0.00
 006912,0.00001471,0.00008919,0.00006218,-0.00000539,0.00007594,0.00002
 014,-0.00019950,0.00011664,-0.00001178,-0.00005790,-0.00002883,0.00001
 004,-0.00006877,-0.00006288,0.00000297,-0.00005507,-0.00003305,0.00007
 016,-0.00000466,-0.00017081,0.00010121,-0.00000392,-0.00022132,0.00013
 359,0.00001809,-0.00017569,0.00006670,0.00013430,-0.00007732,0.0000220
 4,0.00614566,-0.00857549,-0.01943431,0.29918823,-0.00013360,0.00023636
 ,-0.00001752,0.00007111,-0.00019036,0.00006329,-0.00039907,0.00142418,
 0.00036540,-0.00114230,0.00034557,-0.00005110,-0.00038444,-0.00053852,
 -0.00004825,0.00110856,-0.00023653,0.00002028,0.00104193,-0.00012777,0
 .00002322,-0.00033537,0.00126757,-0.00016656,0.00004036,0.00009841,0.0
 0015311,0.00052987,-0.00042840,0.00051757,-0.00101117,-0.00144142,0.00
 007152,-0.00029337,0.00004987,-0.00008960,-0.00215049,0.00353162,-0.00
 282131,0.00256910,-0.00090412,-0.00101121,0.00007906,-0.00006721,0.000
 20425,-0.00239245,-0.00047906,-0.00098393,-0.00321497,0.00049596,0.001
 91902,-0.00124286,-0.00024183,-0.00002859,0.00000120,-0.00023703,-0.00
 025451,-0.00040445,-0.00013016,-0.00034291,-0.00030178,-0.00005023,-0.
 00001368,0.00403666,-0.00182722,-0.00061935,0.00054871,0.00153350,-0.0
 0012765,0.00078007,-0.00055741,0.00016473,0.00108378,-0.00064817,0.001
 49091,0.00070364,-0.00085893,-0.00011529,-0.00002318,0.00035811,0.0001
 7012,0.00019225,0.00006075,0.00029763,0.00023313,-0.00010781,0.0001997
 2,-0.00009957,-0.00004601,-0.00004696,-0.00011267,-0.00006299,-0.00009
 119,-0.00009253,-0.00005571,-0.00007539,-0.00000090,-0.00002600,-0.000
 04532,-0.00001564,-0.00005733,0.00003056,0.00000067,-0.00003497,-0.000
 00123,0.00012331,-0.00007026,0.00000829,0.00004945,0.00002460,-0.00001
 513,0.00004566,0.00003390,-0.00006672,0.00006008,0.00003065,-0.0000389
 8,0.00000222,0.00009514,-0.00003688,0.00000893,0.00014694,-0.00006334,
 -0.00001573,0.00010425,-0.00003057,-0.00008143,0.00004893,-0.00001318,
 -0.00870322,-0.00429701,0.01192847,-0.16796320,0.10295654,0.00071031,-
 0.00060147,-0.00011193,-0.00022693,0.00084576,-0.00031004,0.00052850,-
 0.00347516,-0.00026493,0.00176508,-0.00077141,0.00036655,0.00025414,-0
 .00015803,0.00011190,-0.00206485,0.00108415,-0.00037181,-0.00140420,0.
 00066343,-0.00023337,0.00054054,-0.00234160,-0.00014551,-0.00011962,0.
 00030650,-0.00035286,-0.00104104,0.00191478,0.00013046,0.00304596,0.00
 242525,0.00109828,0.00091992,-0.00053735,0.00033673,0.00335280,-0.0075
 2155,-0.00384903,-0.00340336,0.00203339,-0.00357446,-0.00032346,-0.000
 04147,-0.00035708,0.00573983,-0.00336406,0.00110470,0.00824499,0.00091
 730,-0.00366465,0.00230058,0.00069594,-0.00009953,0.00155159,-0.001167
 64,0.00035843,0.00329208,0.00127672,-0.00020619,0.00087463,-0.00031683
 ,-0.00010777,-0.00715986,0.00439372,-0.00108763,-0.00060296,-0.0038723
 1,0.00100543,-0.00292164,0.00169932,-0.00038223,-0.00738028,0.00407292
 ,-0.00106974,-0.00217785,-0.00005733,0.00009118,-0.00127853,0.00090803
 ,-0.00022829,-0.00196794,0.00126979,-0.00036664,-0.00084163,-0.0002188
 8,-0.00032371,0.00044466,0.00018431,0.00011481,0.00050119,0.00033201,0
 .00021360,0.00036422,0.00022920,0.00017880,-0.00006801,0.00023355,0.00
 015359,0.00004541,0.00029428,-0.00005396,0.00004888,0.00030893,-0.0000
 1975,-0.00051968,0.00030277,-0.00009853,-0.00024321,-0.00019506,-0.000
 02702,-0.00023242,-0.00018475,-0.00006266,-0.00023780,-0.00005995,0.00
 014899,-0.00002020,-0.00043416,0.00016974,-0.00004149,-0.00060402,0.00
 020043,0.00005952,-0.00047959,0.00010557,0.00033466,-0.00019452,0.0000
 3321,-0.01045605,0.00674082,-0.05888627,-0.09410304,0.04270194,0.84954
 134,0.00009725,0.00011236,-0.00004244,0.00012833,0.00010685,0.00002726
 ,-0.00007267,-0.00045205,-0.00020618,0.00031685,-0.00020251,-0.0000785
 3,0.00014894,0.00020986,-0.00000179,-0.00021745,0.00014653,0.00006758,
 -0.00036576,0.00006269,0.00004774,-0.00025042,0.00047746,-0.00007225,0
 .00000900,0.00008338,0.00005881,0.00069208,0.00025674,0.00011491,-0.00
 000471,-0.00037533,0.00012875,0.00005429,-0.00000850,-0.00000902,-0.00
 045781,-0.00007943,-0.00002905,0.00078837,-0.00049498,-0.00138413,-0.0
 0008986,-0.00005064,0.00005176,0.00077372,0.00038711,-0.00034826,-0.00
 095209,0.00037125,-0.00026387,-0.00050342,-0.00004749,-0.00008837,-0.0
 0001039,0.00024231,-0.00001637,-0.00010311,0.00018851,0.00000645,-0.00
 004433,-0.00009988,-0.00003306,-0.00067269,0.00065078,0.00061116,0.000
 33028,0.00020102,0.00018697,-0.00032113,0.00024136,0.00010022,0.000141
 76,-0.00070627,0.00018413,0.00012674,-0.00055579,0.00015681,0.00002399
 ,-0.00017531,-0.00000135,0.00000385,-0.00025739,0.00000069,-0.00001598
 ,-0.00011639,-0.00000323,0.00003760,0.00001807,-0.00000432,0.00003358,
 0.00002770,-0.00000613,0.00002220,0.00001470,0.00000425,-0.00001453,0.
 00002698,0.00000711,0.00000280,0.00005199,-0.00002114,0.00000551,0.000
 04696,-0.00000618,-0.00003961,0.00002195,-0.00001010,-0.00004529,-0.00
 003261,-0.00000136,-0.00004708,-0.00003224,-0.00000429,-0.00004508,-0.
 00000328,0.00000860,-0.00000169,-0.00003176,0.00000315,-0.00001191,-0.
 00005554,-0.00000487,0.00000449,-0.00004410,-0.00000632,0.00002926,-0.
 00001781,-0.00000455,-0.00240963,0.00465288,-0.00518322,-0.08448528,0.
 04370882,0.14141132,0.06725427,-0.00001266,-0.00004561,0.00000990,-0.0
 0003732,-0.00001366,0.00001357,0.00021401,-0.00028825,-0.00012468,0.00
 044937,0.00000299,-0.00001770,0.00021380,0.00039065,0.00000933,-0.0004
 0640,-0.00004935,0.00002852,-0.00041544,-0.00003419,0.00002323,0.00010
 547,-0.00029287,0.00005393,0.00000671,-0.00006867,-0.00003505,-0.00024
 745,-0.00002226,-0.00012797,0.00004680,0.00026584,-0.00012473,0.000001
 42,0.00003952,0.00000933,0.00069752,-0.00085003,0.00026463,-0.00056185
 ,0.00021402,0.00083552,0.00002492,0.00002882,-0.00004286,0.00043861,0.
 00118444,0.00022832,-0.00029691,-0.00030050,-0.00014882,0.00036202,0.0
 0000234,0.00004227,-0.00037740,0.00033031,0.00008402,-0.00044402,-0.00
 021861,0.00022948,0.00004030,0.00010180,0.00003311,-0.00124325,0.00015
 885,0.00012999,-0.00018913,-0.00014581,-0.00004326,0.00021340,-0.00002
 503,-0.00005929,0.00106206,-0.00065869,-0.00058868,-0.00008731,0.00052
 780,-0.00002678,0.00027595,-0.00042342,-0.00006178,0.00025717,-0.00026
 984,-0.00008092,0.00001638,0.00012250,-0.00003206,-0.00002106,-0.00000
 878,0.00000488,-0.00002483,-0.00002491,0.00000243,-0.00001455,-0.00000
 915,-0.00000029,0.00001395,-0.00002901,-0.00000494,-0.00000340,-0.0000
 3303,-0.00000871,-0.00000308,-0.00003435,-0.00000321,0.00001640,-0.000
 01159,0.00000534,0.00001559,0.00001174,0.00000761,0.00002094,0.0000119
 5,0.00002328,0.00000730,-0.00000164,-0.00000131,0.00000090,0.00000842,
 -0.00000094,0.00000123,0.00001177,0.00000713,-0.00000038,0.00001805,0.
 00000328,-0.00001461,0.00000686,0.00000291,0.00475658,0.00272651,0.002
 84870,0.04315766,-0.02945731,-0.07136312,-0.03435327,0.02509562,-0.000
 44576,0.00055678,0.00006020,0.00025546,-0.00054574,0.00020744,-0.00050
 545,0.00227313,0.00007327,-0.00118487,0.00057674,-0.00022853,-0.000163
 85,0.00010263,-0.00007505,0.00140076,-0.00071026,0.00026394,0.00095666
 ,-0.00044688,0.00015080,-0.00065028,0.00238017,-0.00010079,0.00003134,
 -0.00012148,0.00049733,0.00125522,-0.00122845,0.00003593,-0.00252527,-
 0.00217809,-0.00053992,-0.00068645,0.00039967,-0.00025199,-0.00328657,
 0.00396440,0.00158921,0.00350513,-0.00199502,-0.00278169,0.00011865,0.
 00002322,0.00049943,-0.00371680,0.00218027,-0.00055126,-0.00510381,0.0
 0084618,0.00154347,-0.00238300,-0.00061473,-0.00014314,-0.00109361,0.0
 0075494,-0.00022472,-0.00223405,-0.00069480,0.00003504,-0.00070424,0.0
 0011053,0.00005441,0.00479246,-0.00294733,-0.00034451,0.00063750,0.003
 28433,-0.00046141,0.00205758,-0.00119556,0.00021375,0.00496310,-0.0027
 0729,-0.00035139,0.00168706,-0.00047468,0.00004802,0.00086724,-0.00062
 145,0.00014738,0.00131380,-0.00087523,0.00026095,0.00059766,0.00004663
 ,0.00021548,-0.00029813,-0.00012493,-0.00007688,-0.00033861,-0.0002184
 7,-0.00013249,-0.00024652,-0.00015551,-0.00011568,0.00002579,-0.000164
 87,-0.00011136,-0.00002343,-0.00019314,-0.00000160,-0.00003309,-0.0001
 9436,-0.00001298,0.00038552,-0.00022402,0.00003131,0.00015212,0.000125
 25,-0.00000827,0.00015616,0.00011633,0.00000343,0.00015689,0.00006174,
 -0.00010774,0.00001393,0.00029367,-0.00010921,0.00002280,0.00040479,-0
 .00012352,-0.00003877,0.00032210,-0.00007056,-0.00023043,0.00013391,-0
 .00002135,-0.01259809,0.00712830,0.01636378,0.18110818,-0.09431891,-0.
 75508656,-0.08697849,0.03774656,0.90944381,-0.00029190,0.00079789,-0.0
 0005572,0.00055469,-0.00031496,0.00015159,-0.00118148,0.00236774,0.000
 17677,-0.00220577,0.00036167,-0.00015130,-0.00072849,-0.00104785,-0.00
 007808,0.00229228,-0.00032479,0.00017486,0.00191039,-0.00021163,0.0000
 2924,-0.00134094,0.00319215,-0.00045365,-0.00003640,0.00005611,0.00092
 796,0.00287075,-0.00113315,0.00028303,-0.00340518,-0.00268622,0.000027
 91,-0.00053297,0.00034068,-0.00022819,-0.00412273,0.00640647,0.0035344
 7,0.00305073,-0.00012010,-0.02175381,-0.00009243,-0.00001751,0.0009411
 8,-0.00386378,-0.00132843,-0.00054062,-0.00697709,-0.00172662,0.020691
 92,-0.00321619,-0.00057572,-0.00046753,0.00023191,-0.00039880,-0.00038
 108,-0.00062215,0.00008608,-0.00115225,-0.00061340,-0.00032672,-0.0000
 2876,0.00718180,-0.00252349,-0.00028409,0.00096967,0.00423732,0.000258
 61,0.00092534,-0.00082787,0.00038247,-0.00023347,-0.00088016,-0.001034
 99,0.00069031,-0.00211449,-0.00063685,-0.00013388,0.00076105,0.0002496
 5,0.00028079,0.00010681,0.00050119,0.00038810,-0.00023183,0.00021425,-
 0.00016625,-0.00007646,-0.00006396,-0.00017493,-0.00010212,-0.00003657
 ,-0.00013100,-0.00009138,-0.00007898,-0.00006091,-0.00009236,-0.000127
 10,-0.00002246,-0.00009846,0.00004024,-0.00001057,-0.00008505,-0.00006
 448,0.00028215,-0.00016497,-0.00005545,0.00005483,0.00005172,-0.000047
 57,0.00001957,0.00002617,-0.00002432,0.00006462,0.00004701,-0.00005608
 ,0.00000988,0.00020106,-0.00007115,0.00000453,0.00026252,-0.00010747,-
 0.00003045,0.00017759,-0.00005439,-0.00013406,0.00008044,-0.00001867,-
 0.04069615,0.01156691,0.04118471,-0.22189891,0.13349816,-0.03747192,0.
 02016355,-0.01366607,-0.08101235,0.25098093,-0.00013522,-0.00034601,-0
 .00001801,-0.00013182,0.00008833,-0.00016340,-0.00025315,0.00072250,0.
 00140828,-0.00178304,0.00019017,0.00034859,-0.00104477,-0.00192870,0.0
 0001047,0.00124948,0.00017968,-0.00047280,0.00191929,0.00019217,-0.000
 25602,0.00049002,-0.00174053,0.00022646,0.00002813,-0.00005165,-0.0005
 5900,-0.00087361,-0.00115844,0.00084216,0.00176546,0.00188512,-0.00015
 799,0.00034852,-0.00014703,0.00013421,0.00017963,-0.00368247,-0.021604
 67,-0.00026639,0.00228313,0.01294769,0.00002728,0.00000955,-0.00053458
 ,-0.00127316,-0.00542632,0.00025645,0.00469936,-0.00140015,0.00819669,
 0.00210635,0.00014982,0.00031824,0.00176915,-0.00223299,-0.00006276,0.
 00271191,0.00024743,-0.00083082,0.00061535,-0.00002979,0.00005974,0.00
 329160,-0.00214769,0.00098498,-0.00017220,-0.00254808,0.00000915,-0.00
 085454,0.00000659,-0.00023028,-0.00684282,0.00524310,-0.00024892,-0.00
 238762,0.00099416,-0.00069057,-0.00139164,0.00223061,0.00012853,-0.001
 48783,0.00217299,0.00010600,-0.00041245,0.00023801,-0.00005623,0.00010
 320,0.00002789,0.00003098,0.00016265,0.00009686,0.00011236,0.00012225,
 0.00007246,0.00004418,-0.00002682,0.00003959,-0.00000389,0.00000209,-0
 .00001943,0.00005423,0.00001338,0.00003749,0.00002118,-0.00017001,0.00
 009443,0.00003219,-0.00005085,-0.00003239,0.00004526,-0.00007680,-0.00
 006509,-0.00006086,-0.00002503,-0.00008999,0.00011284,-0.00001187,-0.0
 0007371,0.00004815,-0.00000048,-0.00008943,-0.00002155,0.00000093,-0.0
 0011409,0.00003918,0.00008311,-0.00004417,0.00001116,0.01160510,-0.026
 07256,-0.02178820,0.13395725,-0.06966849,0.02211549,-0.01411962,0.0020
 5727,0.04912864,-0.13345843,0.09985496,-0.00053370,0.00008730,0.000221
 83,-0.00018310,-0.00059971,0.00027798,0.00020969,0.00250068,0.00080998
 ,-0.00110312,0.00083130,-0.00024339,-0.00019864,0.00008073,-0.00007982
 ,0.00111576,-0.00085933,0.00021854,0.00100819,-0.00046530,0.00016926,0
 .00021835,0.00051031,-0.00044017,0.00021279,-0.00014470,0.00039580,-0.
 00056720,-0.00180066,0.00079627,-0.00242804,-0.00129333,-0.00051381,-0
 .00060211,0.00035078,-0.00009641,0.00112894,-0.00734558,-0.02372100,-0
 .01094357,0.00668519,-0.02174101,0.00022728,-0.00012078,0.00039607,-0.
 00459178,0.00260465,-0.00228758,0.00723390,0.00311381,-0.02313984,-0.0
 0032760,-0.00043684,-0.00045169,-0.00122602,0.00049710,-0.00025327,-0.
 00202545,-0.00143431,0.00072278,-0.00033847,0.00041055,0.00022683,0.00
 473671,-0.00437099,0.00164695,-0.00006912,0.00275990,-0.00045251,0.002
 44203,-0.00142564,0.00015660,0.00597449,-0.00187099,0.00166231,0.00122
 996,0.00135929,0.00082045,0.00087203,-0.00059102,0.00017252,0.00126920
 ,-0.00049798,0.00023211,0.00042206,0.00045233,0.00029437,-0.00030215,-
 0.00012945,-0.00007952,-0.00033350,-0.00023708,-0.00021778,-0.00023224
 ,-0.00013286,-0.00016913,0.00008968,-0.00017916,-0.00014355,-0.0000291
 7,-0.00025699,-0.00015396,0.00001129,-0.00020934,-0.00006784,0.0003349
 3,-0.00019414,-0.00000900,0.00018764,0.00009543,-0.00006321,0.00020943
 ,0.00015543,-0.00014939,0.00020214,0.00001276,-0.00013891,0.00000190,0
 .00027234,-0.00016332,0.00004271,0.00041311,-0.00021022,-0.00003720,0.
 00032782,-0.00007289,-0.00023250,0.00013521,-0.00002349,0.03900665,-0.
 02050245,-0.16414919,-0.07048939,0.04121001,-0.02415253,-0.04837366,0.
 03025235,-0.16968619,0.07677925,-0.05001978,0.42385377||0.00001075,-0.
 00001385,-0.00002070,-0.00000485,0.00000317,0.00000533,0.00002365,-0.0
 0001479,0.00000287,-0.00000026,-0.00000496,0.00003971,-0.00006750,-0.0
 0002738,-0.00004721,-0.00003422,0.00000448,-0.00005585,0.00004649,0.00
 001726,0.00001265,0.00000910,0.00001143,0.00001069,0.00000498,0.000017
 04,-0.00004212,-0.00002291,0.00003444,0.00003596,0.00000955,-0.0000010
 7,-0.00001303,-0.00001174,-0.00001045,0.00003651,-0.00004275,-0.000007
 12,-0.00004390,0.00001517,-0.00002590,0.00000441,0.00000581,-0.0000087
 9,0.00000418,0.00002819,-0.00003239,0.00000538,-0.00001281,0.00000157,
 -0.00002735,0.00002434,-0.00000360,-0.00002982,0.00004161,-0.00001453,
 -0.00000571,0.00000169,-0.00003782,0.00002345,-0.00000691,0.00001778,-
 0.00000077,0.00004393,0.00001614,0.00002498,-0.00002843,0.00001728,0.0
 0003624,0.00000109,0.00002825,-0.00002256,-0.00005135,0.00001969,0.000
 01319,-0.00000937,0.00000373,0.00001493,-0.00001898,0.00003576,0.00002
 403,0.00000759,0.00000586,-0.00000168,0.00000811,0.00000944,-0.0000373
 1,-0.00000594,-0.00000304,-0.00000161,0.00000099,-0.00000844,-0.000001
 47,0.00000495,0.00000208,0.00001280,0.00000172,-0.00000112,0.00000708,
 0.00000029,-0.00000295,0.00000244,0.00000092,0.00000427,-0.00001687,0.
 00000984,-0.00000090,-0.00000729,-0.00000411,-0.00000530,0.00001013,0.
 00000399,-0.00000489,-0.00000139,0.00000022,-0.00000505,-0.00000047,-0
 .00000001,-0.00000197,0.00000345,-0.00000304,0.00000169,0.00002092,-0.
 00000491,0.00000571,-0.00000354,0.00000768,-0.00000031,0.00001736,0.00
 000850,-0.00001223,0.00001395,-0.00000916,0.00000340,-0.00001753,0.000
 00971,-0.00000277,0.00004446,0.00000839,-0.00000886,-0.00002889|||@


 TO SEE A WORLD IN A GRAIN OF SAND
 AND A HEAVEN IN A WILD FLOWER
 HOLD INFINITY IN THE PALM OF YOUR HAND
 AND ETERNITY IN AN HOUR

                       -- WILLIAM BLAKE
 Job cpu time:       0 days  0 hours  0 minutes  8.0 seconds.
 File lengths (MBytes):  RWF=    423 Int=      0 D2E=      0 Chk=      5 Scr=      1
 Normal termination of Gaussian 09 at Sun Mar 15 20:10:22 2026.
