 Entering Link 1 = C:\Gaussian\G09W\l1.exe PID=     30888.
  
 Copyright (c) 1988,1990,1992,1993,1995,1998,2003,2009,2013,
            Gaussian, Inc.  All Rights Reserved.
  
 This is part of the Gaussian(R) 09 program.  It is based on
 the Gaussian(R) 03 system (copyright 2003, Gaussian, Inc.),
 the Gaussian(R) 98 system (copyright 1998, Gaussian, Inc.),
 the Gaussian(R) 94 system (copyright 1995, Gaussian, Inc.),
 the Gaussian 92(TM) system (copyright 1992, Gaussian, Inc.),
 the Gaussian 90(TM) system (copyright 1990, Gaussian, Inc.),
 the Gaussian 88(TM) system (copyright 1988, Gaussian, Inc.),
 the Gaussian 86(TM) system (copyright 1986, Carnegie Mellon
 University), and the Gaussian 82(TM) system (copyright 1983,
 Carnegie Mellon University). Gaussian is a federally registered
 trademark of Gaussian, Inc.
  
 This software contains proprietary and confidential information,
 including trade secrets, belonging to Gaussian, Inc.
  
 This software is provided under written license and may be
 used, copied, transmitted, or stored only in accord with that
 written license.
  
 The following legend is applicable only to US Government
 contracts under FAR:
  
                    RESTRICTED RIGHTS LEGEND
  
 Use, reproduction and disclosure by the US Government is
 subject to restrictions as set forth in subparagraphs (a)
 and (c) of the Commercial Computer Software - Restricted
 Rights clause in FAR 52.227-19.
  
 Gaussian, Inc.
 340 Quinnipiac St., Bldg. 40, Wallingford CT 06492
  
  
 ---------------------------------------------------------------
 Warning -- This program may not be used in any manner that
 competes with the business of Gaussian, Inc. or will provide
 assistance to any competitor of Gaussian, Inc.  The licensee
 of this program is prohibited from giving any competitor of
 Gaussian, Inc. access to this program.  By using this program,
 the user acknowledges that Gaussian, Inc. is engaged in the
 business of creating and licensing software in the field of
 computational chemistry and represents and warrants to the
 licensee that it is not a competitor of Gaussian, Inc. and that
 it will not use this program in any manner prohibited above.
 ---------------------------------------------------------------
  

 Cite this work as:
 Gaussian 09, Revision D.01,
 M. J. Frisch, G. W. Trucks, H. B. Schlegel, G. E. Scuseria, 
 M. A. Robb, J. R. Cheeseman, G. Scalmani, V. Barone, B. Mennucci, 
 G. A. Petersson, H. Nakatsuji, M. Caricato, X. Li, H. P. Hratchian, 
 A. F. Izmaylov, J. Bloino, G. Zheng, J. L. Sonnenberg, M. Hada, 
 M. Ehara, K. Toyota, R. Fukuda, J. Hasegawa, M. Ishida, T. Nakajima, 
 Y. Honda, O. Kitao, H. Nakai, T. Vreven, J. A. Montgomery, Jr., 
 J. E. Peralta, F. Ogliaro, M. Bearpark, J. J. Heyd, E. Brothers, 
 K. N. Kudin, V. N. Staroverov, T. Keith, R. Kobayashi, J. Normand, 
 K. Raghavachari, A. Rendell, J. C. Burant, S. S. Iyengar, J. Tomasi, 
 M. Cossi, N. Rega, J. M. Millam, M. Klene, J. E. Knox, J. B. Cross, 
 V. Bakken, C. Adamo, J. Jaramillo, R. Gomperts, R. E. Stratmann, 
 O. Yazyev, A. J. Austin, R. Cammi, C. Pomelli, J. W. Ochterski, 
 R. L. Martin, K. Morokuma, V. G. Zakrzewski, G. A. Voth, 
 P. Salvador, J. J. Dannenberg, S. Dapprich, A. D. Daniels, 
 O. Farkas, J. B. Foresman, J. V. Ortiz, J. Cioslowski, 
 and D. J. Fox, Gaussian, Inc., Wallingford CT, 2013.
 
 ******************************************
 Gaussian 09:  IA32W-G09RevD.01 24-Apr-2013
                10-Mar-2026 
 ******************************************
 %chk=C:\Users\User\Desktop\IMRG\ECE+ML\CH4_semi.chk
 --------------------------------
 # opt freq pm6 geom=connectivity
 --------------------------------
 1/14=-1,18=20,19=15,26=1,38=1,57=2/1,3;
 2/9=110,12=2,17=6,18=5,40=1/2;
 3/5=2,16=1,25=1,41=3900000,71=1/1,2,3;
 4/35=1/1;
 5/5=2,35=1,38=5/2;
 6/7=2,8=2,9=2,10=2,28=1/1;
 7//1,2,3,16;
 1/14=-1,18=20,19=15,26=1/3(2);
 2/9=110/2;
 99//99;
 2/9=110/2;
 3/5=2,16=1,25=1,41=3900000,71=1,135=20/1,2,3;
 4/5=5,16=3,35=1/1;
 5/5=2,35=1,38=5/2;
 7//1,2,3,16;
 1/14=-1,18=20,19=15,26=1/3(-5);
 2/9=110/2;
 6/7=2,8=2,9=2,10=2,19=2,28=1/1;
 99/9=1/99;
 --------
 CH4_semi
 --------
 Symbolic Z-matrix:
 Charge =  0 Multiplicity = 1
 C                    -2.10773  -1.08457  -0.87365 
 H                    -1.75107  -2.09338  -0.87365 
 H                    -1.75105  -0.58017   0. 
 H                    -1.75105  -0.58017  -1.7473 
 H                    -3.17773  -1.08455  -0.87365 
 

 GradGradGradGradGradGradGradGradGradGradGradGradGradGradGradGradGradGrad
 Berny optimization.
 Initialization pass.
                           ----------------------------
                           !    Initial Parameters    !
                           ! (Angstroms and Degrees)  !
 --------------------------                            --------------------------
 ! Name  Definition              Value          Derivative Info.                !
 --------------------------------------------------------------------------------
 ! R1    R(1,2)                  1.07           estimate D2E/DX2                !
 ! R2    R(1,3)                  1.07           estimate D2E/DX2                !
 ! R3    R(1,4)                  1.07           estimate D2E/DX2                !
 ! R4    R(1,5)                  1.07           estimate D2E/DX2                !
 ! A1    A(2,1,3)              109.4712         estimate D2E/DX2                !
 ! A2    A(2,1,4)              109.4712         estimate D2E/DX2                !
 ! A3    A(2,1,5)              109.4712         estimate D2E/DX2                !
 ! A4    A(3,1,4)              109.4713         estimate D2E/DX2                !
 ! A5    A(3,1,5)              109.4712         estimate D2E/DX2                !
 ! A6    A(4,1,5)              109.4712         estimate D2E/DX2                !
 ! D1    D(2,1,4,3)           -120.0            estimate D2E/DX2                !
 ! D2    D(2,1,5,3)            120.0            estimate D2E/DX2                !
 ! D3    D(2,1,5,4)           -120.0            estimate D2E/DX2                !
 ! D4    D(3,1,5,4)            120.0            estimate D2E/DX2                !
 --------------------------------------------------------------------------------
 Trust Radius=3.00D-01 FncErr=1.00D-07 GrdErr=1.00D-07
 Number of steps in this run=     24 maximum allowed number of steps=    100.
 GradGradGradGradGradGradGradGradGradGradGradGradGradGradGradGradGradGrad

                          Input orientation:                          
 ---------------------------------------------------------------------
 Center     Atomic      Atomic             Coordinates (Angstroms)
 Number     Number       Type             X           Y           Z
 ---------------------------------------------------------------------
      1          6           0       -2.107728   -1.084567   -0.873652
      2          1           0       -1.751073   -2.093377   -0.873652
      3          1           0       -1.751055   -0.580169    0.000000
      4          1           0       -1.751055   -0.580169   -1.747303
      5          1           0       -3.177728   -1.084554   -0.873652
 ---------------------------------------------------------------------
                    Distance matrix (angstroms):
                    1          2          3          4          5
     1  C    0.000000
     2  H    1.070000   0.000000
     3  H    1.070000   1.747302   0.000000
     4  H    1.070000   1.747302   1.747303   0.000000
     5  H    1.070000   1.747303   1.747303   1.747303   0.000000
 Stoichiometry    CH4
 Framework group  T[O(C),4C3(H)]
 Deg. of freedom     1
 Full point group                 T       NOp  12
 Largest Abelian subgroup         D2      NOp   4
 Largest concise Abelian subgroup D2      NOp   4
                         Standard orientation:                         
 ---------------------------------------------------------------------
 Center     Atomic      Atomic             Coordinates (Angstroms)
 Number     Number       Type             X           Y           Z
 ---------------------------------------------------------------------
      1          6           0        0.000000    0.000000    0.000000
      2          1           0        0.617765    0.617765    0.617765
      3          1           0       -0.617765   -0.617765    0.617765
      4          1           0       -0.617765    0.617765   -0.617765
      5          1           0        0.617765   -0.617765   -0.617765
 ---------------------------------------------------------------------
 Rotational constants (GHZ):    164.2463791    164.2463791    164.2463791
 Standard basis: VSTO-6G (5D, 7F)
 There are     2 symmetry adapted cartesian basis functions of A   symmetry.
 There are     2 symmetry adapted cartesian basis functions of B1  symmetry.
 There are     2 symmetry adapted cartesian basis functions of B2  symmetry.
 There are     2 symmetry adapted cartesian basis functions of B3  symmetry.
 There are     2 symmetry adapted basis functions of A   symmetry.
 There are     2 symmetry adapted basis functions of B1  symmetry.
 There are     2 symmetry adapted basis functions of B2  symmetry.
 There are     2 symmetry adapted basis functions of B3  symmetry.
     8 basis functions,    48 primitive gaussians,     8 cartesian basis functions
     4 alpha electrons        4 beta electrons
       nuclear repulsion energy        14.5519821747 Hartrees.
 Integral buffers will be    262144 words long.
 Regular integral format.
 Two-electron integral symmetry is turned off.
 Do NDO integrals.
 One-electron integrals computed using PRISM.
 NBasis=     8 RedAO= T EigKep=  5.00D-01  NBF=     2     2     2     2
 NBsUse=     8 1.00D-06 EigRej= -1.00D+00 NBFU=     2     2     2     2
 Simple Huckel Guess.
 Initial guess orbital symmetries:
       Occupied  (A) (T) (T) (T)
       Virtual   (T) (T) (T) (A)
 The electronic state of the initial guess is 1-A.
 Overlap will be assumed to be unity.
 Keep J ints in memory in canonical form, NReq=878835.
 Requested convergence on RMS density matrix=1.00D-08 within 128 cycles.
 Requested convergence on MAX density matrix=1.00D-06.
 Requested convergence on             energy=1.00D-06.
 No special actions if energy rises.
 Fock symm off for IB=3 I1=    1 I=    5 J=    2 Cut=1.00D-07 Err=1.22D-02
 Fock matrix is not symmetric: symmetry in diagonalization turned off.
 SCF Done:  E(RPM6) = -0.191218919822E-01 A.U. after    8 cycles
            NFock=  7  Conv=0.15D-09     -V/T= 0.9960

 **********************************************************************

            Population analysis using the SCF density.

 **********************************************************************

 Orbital symmetries:
       Occupied  (A) (T) (T) (T)
       Virtual   (T) (T) (T) (A)
 The electronic state is 1-A.
 Alpha  occ. eigenvalues --   -0.93936  -0.50614  -0.50614  -0.50614
 Alpha virt. eigenvalues --    0.22338   0.22338   0.22338   0.27120
          Condensed to atoms (all electrons):
               1          2          3          4          5
     1  C    4.656710   0.000000   0.000000   0.000000   0.000000
     2  H    0.000000   0.835823   0.000000   0.000000   0.000000
     3  H    0.000000   0.000000   0.835823   0.000000   0.000000
     4  H    0.000000   0.000000   0.000000   0.835823   0.000000
     5  H    0.000000   0.000000   0.000000   0.000000   0.835823
 Mulliken charges:
               1
     1  C   -0.656710
     2  H    0.164177
     3  H    0.164177
     4  H    0.164177
     5  H    0.164177
 Sum of Mulliken charges =   0.00000
 Mulliken charges with hydrogens summed into heavy atoms:
               1
     1  C    0.000000
 Charge=              0.0000 electrons
 Dipole moment (field-independent basis, Debye):
    X=              0.0000    Y=              0.0000    Z=              0.0000  Tot=              0.0000
 N-N= 1.455198217474D+01 E-N=-1.948482376304D+01  KE=-4.741795928461D+00
 Symmetry A    KE=-1.900888909710D+00
 Symmetry B1   KE=-9.469690062505D-01
 Symmetry B2   KE=-9.469690062505D-01
 Symmetry B3   KE=-9.469690062505D-01
 Calling FoFJK, ICntrl=      2127 FMM=F ISym2X=1 I1Cent= 0 IOpClX= 0 NMat=1 NMatS=1 NMatT=0.
 ***** Axes restored to original set *****
 -------------------------------------------------------------------
 Center     Atomic                   Forces (Hartrees/Bohr)
 Number     Number              X              Y              Z
 -------------------------------------------------------------------
      1        6           0.000000000    0.000000000    0.000000000
      2        1           0.002840676   -0.008034956   -0.000000007
      3        1           0.002840828    0.004017422    0.006958446
      4        1           0.002840817    0.004017430   -0.006958446
      5        1          -0.008522321    0.000000103    0.000000007
 -------------------------------------------------------------------
 Cartesian Forces:  Max     0.008522321 RMS     0.004400908

 GradGradGradGradGradGradGradGradGradGradGradGradGradGradGradGradGradGrad
 Berny optimization.
 FormGI is forming the generalized inverse of G from B-inverse, IUseBI=4.
 Internal  Forces:  Max     0.008522321 RMS     0.004555372
 Search for a local minimum.
 Step number   1 out of a maximum of   24
 All quantities printed in internal units (Hartrees-Bohrs-Radians)
 Mixed Optimization -- RFO/linear search
 Second derivative matrix not updated -- first step.
 The second derivative matrix:
                          R1        R2        R3        R4        A1
           R1           0.37230
           R2           0.00000   0.37230
           R3           0.00000   0.00000   0.37230
           R4           0.00000   0.00000   0.00000   0.37230
           A1           0.00000   0.00000   0.00000   0.00000   0.16000
           A2           0.00000   0.00000   0.00000   0.00000   0.00000
           A3           0.00000   0.00000   0.00000   0.00000   0.00000
           A4           0.00000   0.00000   0.00000   0.00000   0.00000
           A5           0.00000   0.00000   0.00000   0.00000   0.00000
           A6           0.00000   0.00000   0.00000   0.00000   0.00000
           D1           0.00000   0.00000   0.00000   0.00000   0.00000
           D2           0.00000   0.00000   0.00000   0.00000   0.00000
           D3           0.00000   0.00000   0.00000   0.00000   0.00000
           D4           0.00000   0.00000   0.00000   0.00000   0.00000
                          A2        A3        A4        A5        A6
           A2           0.16000
           A3           0.00000   0.16000
           A4           0.00000   0.00000   0.16000
           A5           0.00000   0.00000   0.00000   0.16000
           A6           0.00000   0.00000   0.00000   0.00000   0.16000
           D1           0.00000   0.00000   0.00000   0.00000   0.00000
           D2           0.00000   0.00000   0.00000   0.00000   0.00000
           D3           0.00000   0.00000   0.00000   0.00000   0.00000
           D4           0.00000   0.00000   0.00000   0.00000   0.00000
                          D1        D2        D3        D4
           D1           0.00499
           D2           0.00000   0.00499
           D3           0.00000   0.00000   0.00499
           D4           0.00000   0.00000   0.00000   0.00499
 ITU=  0
     Eigenvalues ---    0.05269   0.05891   0.08766   0.16000   0.16000
     Eigenvalues ---    0.37230   0.37230   0.37230   0.37230
 RFO step:  Lambda=-7.78703497D-04 EMin= 5.26881009D-02
 Linear search not attempted -- first point.
 Iteration  1 RMS(Cart)=  0.01221018 RMS(Int)=  0.00000000
 Iteration  2 RMS(Cart)=  0.00000000 RMS(Int)=  0.00000000
 ClnCor:  largest displacement from symmetrization is 3.30D-15 for atom     5.
 Variable       Old X    -DE/DX   Delta X   Delta X   Delta X     New X
                                 (Linear)    (Quad)   (Total)
    R1        2.02201   0.00852   0.00000   0.02284   0.02284   2.04485
    R2        2.02201   0.00852   0.00000   0.02284   0.02284   2.04485
    R3        2.02201   0.00852   0.00000   0.02284   0.02284   2.04485
    R4        2.02201   0.00852   0.00000   0.02284   0.02284   2.04485
    A1        1.91063   0.00000   0.00000   0.00000   0.00000   1.91063
    A2        1.91063   0.00000   0.00000   0.00000   0.00000   1.91063
    A3        1.91063   0.00000   0.00000   0.00000   0.00000   1.91063
    A4        1.91063   0.00000   0.00000   0.00000   0.00000   1.91063
    A5        1.91063   0.00000   0.00000   0.00000   0.00000   1.91063
    A6        1.91063   0.00000   0.00000   0.00000   0.00000   1.91063
    D1       -2.09440   0.00000   0.00000   0.00000   0.00000  -2.09440
    D2        2.09440   0.00000   0.00000   0.00000   0.00000   2.09440
    D3       -2.09440   0.00000   0.00000   0.00000   0.00000  -2.09440
    D4        2.09440   0.00000   0.00000   0.00000   0.00000   2.09440
         Item               Value     Threshold  Converged?
 Maximum Force            0.008522     0.000450     NO 
 RMS     Force            0.004555     0.000300     NO 
 Maximum Displacement     0.022843     0.001800     NO 
 RMS     Displacement     0.012210     0.001200     NO 
 Predicted change in Energy=-3.901661D-04
 GradGradGradGradGradGradGradGradGradGradGradGradGradGradGradGradGradGrad

                          Input orientation:                          
 ---------------------------------------------------------------------
 Center     Atomic      Atomic             Coordinates (Angstroms)
 Number     Number       Type             X           Y           Z
 ---------------------------------------------------------------------
      1          6           0       -2.107728   -1.084567   -0.873652
      2          1           0       -1.747044   -2.104774   -0.873652
      3          1           0       -1.747025   -0.574471    0.009870
      4          1           0       -1.747026   -0.574470   -1.757173
      5          1           0       -3.189816   -1.084554   -0.873651
 ---------------------------------------------------------------------
                    Distance matrix (angstroms):
                    1          2          3          4          5
     1  C    0.000000
     2  H    1.082088   0.000000
     3  H    1.082088   1.767042   0.000000
     4  H    1.082088   1.767042   1.767042   0.000000
     5  H    1.082088   1.767042   1.767042   1.767042   0.000000
 Stoichiometry    CH4
 Framework group  TD[O(C),4C3(H)]
 Deg. of freedom     1
 Full point group                 TD      NOp  24
 Omega: Change in point group or standard orientation.

 Old FWG=T    [O(C1),4C3(H1)]
 New FWG=TD   [O(C1),4C3(H1)]
 Largest Abelian subgroup         D2      NOp   4
 Largest concise Abelian subgroup D2      NOp   4
                         Standard orientation:                         
 ---------------------------------------------------------------------
 Center     Atomic      Atomic             Coordinates (Angstroms)
 Number     Number       Type             X           Y           Z
 ---------------------------------------------------------------------
      1          6           0        0.000000    0.000000    0.000000
      2          1           0        0.624744    0.624744    0.624744
      3          1           0       -0.624744   -0.624744    0.624744
      4          1           0       -0.624744    0.624744   -0.624744
      5          1           0        0.624744   -0.624744   -0.624744
 ---------------------------------------------------------------------
 Rotational constants (GHZ):    160.5972610    160.5972610    160.5972610
 Standard basis: VSTO-6G (5D, 7F)
 There are     2 symmetry adapted cartesian basis functions of A   symmetry.
 There are     2 symmetry adapted cartesian basis functions of B1  symmetry.
 There are     2 symmetry adapted cartesian basis functions of B2  symmetry.
 There are     2 symmetry adapted cartesian basis functions of B3  symmetry.
 There are     2 symmetry adapted basis functions of A   symmetry.
 There are     2 symmetry adapted basis functions of B1  symmetry.
 There are     2 symmetry adapted basis functions of B2  symmetry.
 There are     2 symmetry adapted basis functions of B3  symmetry.
     8 basis functions,    48 primitive gaussians,     8 cartesian basis functions
     4 alpha electrons        4 beta electrons
       nuclear repulsion energy        14.4803932381 Hartrees.
 Integral buffers will be    262144 words long.
 Regular integral format.
 Two-electron integral symmetry is turned off.
 Do NDO integrals.
 One-electron integrals computed using PRISM.
 NBasis=     8 RedAO= T EigKep=  5.00D-01  NBF=     2     2     2     2
 NBsUse=     8 1.00D-06 EigRej= -1.00D+00 NBFU=     2     2     2     2
 Initial guess from the checkpoint file:  "C:\Users\User\Desktop\IMRG\ECE+ML\CH4_semi.chk"
 B after Tr=     0.000000    0.000000    0.000000
         Rot=    1.000000    0.000000    0.000000    0.000000 Ang=   0.00 deg.
 Initial guess orbital symmetries:
       Occupied  (A1) (T2) (T2) (T2)
       Virtual   (T2) (T2) (T2) (A1)
 Overlap will be assumed to be unity.
 Keep J ints in memory in canonical form, NReq=878835.
 Requested convergence on RMS density matrix=1.00D-08 within 128 cycles.
 Requested convergence on MAX density matrix=1.00D-06.
 Requested convergence on             energy=1.00D-06.
 No special actions if energy rises.
 An orbital has undefined symmetry, so N**3 symmetry is turned off.
 SCF Done:  E(RPM6) = -0.195726623659E-01 A.U. after    6 cycles
            NFock=  5  Conv=0.11D-11     -V/T= 0.9959
 Calling FoFJK, ICntrl=      2127 FMM=F ISym2X=1 I1Cent= 0 IOpClX= 0 NMat=1 NMatS=1 NMatT=0.
 ***** Axes restored to original set *****
 -------------------------------------------------------------------
 Center     Atomic                   Forces (Hartrees/Bohr)
 Number     Number              X              Y              Z
 -------------------------------------------------------------------
      1        6           0.000000000    0.000000000    0.000000000
      2        1           0.000461769   -0.001306130   -0.000000001
      3        1           0.000461794    0.000653056    0.001131137
      4        1           0.000461792    0.000653057   -0.001131137
      5        1          -0.001385354    0.000000017    0.000000001
 -------------------------------------------------------------------
 Cartesian Forces:  Max     0.001385354 RMS     0.000715394

 GradGradGradGradGradGradGradGradGradGradGradGradGradGradGradGradGradGrad
 Berny optimization.
 Using GEDIIS/GDIIS optimizer.
 FormGI is forming the generalized inverse of G from B-inverse, IUseBI=4.
 Internal  Forces:  Max     0.001385354 RMS     0.000740503
 Search for a local minimum.
 Step number   2 out of a maximum of   24
 All quantities printed in internal units (Hartrees-Bohrs-Radians)
 Mixed Optimization -- En-DIIS/RFO-DIIS
 Update second derivatives using D2CorX and points    1    2
 DE= -4.51D-04 DEPred=-3.90D-04 R= 1.16D+00
 TightC=F SS=  1.41D+00  RLast= 4.57D-02 DXNew= 5.0454D-01 1.3706D-01
 Trust test= 1.16D+00 RLast= 4.57D-02 DXMaxT set to 3.00D-01
 The second derivative matrix:
                          R1        R2        R3        R4        A1
           R1           0.35733
           R2          -0.01497   0.35733
           R3          -0.01497  -0.01497   0.35733
           R4          -0.01497  -0.01497  -0.01497   0.35733
           A1           0.00000   0.00000   0.00000   0.00000   0.16000
           A2           0.00000   0.00000   0.00000   0.00000   0.00000
           A3           0.00000   0.00000   0.00000   0.00000   0.00000
           A4           0.00000   0.00000   0.00000   0.00000   0.00000
           A5           0.00000   0.00000   0.00000   0.00000   0.00000
           A6           0.00000   0.00000   0.00000   0.00000   0.00000
           D1           0.00000   0.00000   0.00000   0.00000   0.00000
           D2           0.00000   0.00000   0.00000   0.00000   0.00000
           D3           0.00000   0.00000   0.00000   0.00000   0.00000
           D4           0.00000   0.00000   0.00000   0.00000   0.00000
                          A2        A3        A4        A5        A6
           A2           0.16000
           A3           0.00000   0.16000
           A4           0.00000   0.00000   0.16000
           A5           0.00000   0.00000   0.00000   0.16000
           A6           0.00000   0.00000   0.00000   0.00000   0.16000
           D1           0.00000   0.00000   0.00000   0.00000   0.00000
           D2           0.00000   0.00000   0.00000   0.00000   0.00000
           D3           0.00000   0.00000   0.00000   0.00000   0.00000
           D4           0.00000   0.00000   0.00000   0.00000   0.00000
                          D1        D2        D3        D4
           D1           0.00499
           D2           0.00000   0.00499
           D3           0.00000   0.00000   0.00499
           D4           0.00000   0.00000   0.00000   0.00499
 ITU=  1  0
 Use linear search instead of GDIIS.
     Eigenvalues ---    0.05269   0.05891   0.08766   0.16000   0.16000
     Eigenvalues ---    0.31243   0.37230   0.37230   0.37230
 RFO step:  Lambda= 0.00000000D+00 EMin= 5.26881009D-02
 Quartic linear search produced a step of  0.19819.
 Iteration  1 RMS(Cart)=  0.00241993 RMS(Int)=  0.00000000
 Iteration  2 RMS(Cart)=  0.00000000 RMS(Int)=  0.00000000
 ClnCor:  largest displacement from symmetrization is 4.22D-13 for atom     4.
 Variable       Old X    -DE/DX   Delta X   Delta X   Delta X     New X
                                 (Linear)    (Quad)   (Total)
    R1        2.04485   0.00139   0.00453   0.00000   0.00453   2.04938
    R2        2.04485   0.00139   0.00453   0.00000   0.00453   2.04938
    R3        2.04485   0.00139   0.00453   0.00000   0.00453   2.04938
    R4        2.04485   0.00139   0.00453   0.00000   0.00453   2.04938
    A1        1.91063   0.00000   0.00000   0.00000   0.00000   1.91063
    A2        1.91063   0.00000   0.00000   0.00000   0.00000   1.91063
    A3        1.91063   0.00000   0.00000   0.00000   0.00000   1.91063
    A4        1.91063   0.00000   0.00000   0.00000   0.00000   1.91063
    A5        1.91063   0.00000   0.00000   0.00000   0.00000   1.91063
    A6        1.91063   0.00000   0.00000   0.00000   0.00000   1.91063
    D1       -2.09440   0.00000   0.00000   0.00000   0.00000  -2.09440
    D2        2.09440   0.00000   0.00000   0.00000   0.00000   2.09440
    D3       -2.09440   0.00000   0.00000   0.00000   0.00000  -2.09440
    D4        2.09440   0.00000   0.00000   0.00000   0.00000   2.09440
         Item               Value     Threshold  Converged?
 Maximum Force            0.001385     0.000450     NO 
 RMS     Force            0.000741     0.000300     NO 
 Maximum Displacement     0.004527     0.001800     NO 
 RMS     Displacement     0.002420     0.001200     NO 
 Predicted change in Energy=-1.228011D-05
 GradGradGradGradGradGradGradGradGradGradGradGradGradGradGradGradGradGrad

                          Input orientation:                          
 ---------------------------------------------------------------------
 Center     Atomic      Atomic             Coordinates (Angstroms)
 Number     Number       Type             X           Y           Z
 ---------------------------------------------------------------------
      1          6           0       -2.107728   -1.084567   -0.873652
      2          1           0       -1.746246   -2.107032   -0.873652
      3          1           0       -1.746226   -0.573341    0.011826
      4          1           0       -1.746228   -0.573340   -1.759129
      5          1           0       -3.192211   -1.084554   -0.873651
 ---------------------------------------------------------------------
                    Distance matrix (angstroms):
                    1          2          3          4          5
     1  C    0.000000
     2  H    1.084484   0.000000
     3  H    1.084484   1.770955   0.000000
     4  H    1.084484   1.770955   1.770955   0.000000
     5  H    1.084484   1.770955   1.770955   1.770955   0.000000
 Stoichiometry    CH4
 Framework group  TD[O(C),4C3(H)]
 Deg. of freedom     1
 Full point group                 TD      NOp  24
 Largest Abelian subgroup         D2      NOp   4
 Largest concise Abelian subgroup D2      NOp   4
                         Standard orientation:                         
 ---------------------------------------------------------------------
 Center     Atomic      Atomic             Coordinates (Angstroms)
 Number     Number       Type             X           Y           Z
 ---------------------------------------------------------------------
      1          6           0        0.000000    0.000000    0.000000
      2          1           0        0.626127    0.626127    0.626127
      3          1           0       -0.626127   -0.626127    0.626127
      4          1           0       -0.626127    0.626127   -0.626127
      5          1           0        0.626127   -0.626127   -0.626127
 ---------------------------------------------------------------------
 Rotational constants (GHZ):    159.8884947    159.8884947    159.8884947
 Standard basis: VSTO-6G (5D, 7F)
 There are     2 symmetry adapted cartesian basis functions of A   symmetry.
 There are     2 symmetry adapted cartesian basis functions of B1  symmetry.
 There are     2 symmetry adapted cartesian basis functions of B2  symmetry.
 There are     2 symmetry adapted cartesian basis functions of B3  symmetry.
 There are     2 symmetry adapted basis functions of A   symmetry.
 There are     2 symmetry adapted basis functions of B1  symmetry.
 There are     2 symmetry adapted basis functions of B2  symmetry.
 There are     2 symmetry adapted basis functions of B3  symmetry.
     8 basis functions,    48 primitive gaussians,     8 cartesian basis functions
     4 alpha electrons        4 beta electrons
       nuclear repulsion energy        14.4663273408 Hartrees.
 Integral buffers will be    262144 words long.
 Regular integral format.
 Two-electron integral symmetry is turned off.
 Do NDO integrals.
 One-electron integrals computed using PRISM.
 NBasis=     8 RedAO= T EigKep=  5.00D-01  NBF=     2     2     2     2
 NBsUse=     8 1.00D-06 EigRej= -1.00D+00 NBFU=     2     2     2     2
 Initial guess from the checkpoint file:  "C:\Users\User\Desktop\IMRG\ECE+ML\CH4_semi.chk"
 B after Tr=     0.000000    0.000000    0.000000
         Rot=    1.000000    0.000000    0.000000    0.000000 Ang=   0.00 deg.
 Initial guess orbital symmetries:
       Occupied  (A1) (T2) (T2) (T2)
       Virtual   (T2) (T2) (T2) (A1)
 Overlap will be assumed to be unity.
 Keep J ints in memory in canonical form, NReq=878835.
 Requested convergence on RMS density matrix=1.00D-08 within 128 cycles.
 Requested convergence on MAX density matrix=1.00D-06.
 Requested convergence on             energy=1.00D-06.
 No special actions if energy rises.
 An orbital has undefined symmetry, so N**3 symmetry is turned off.
 SCF Done:  E(RPM6) = -0.195851913126E-01 A.U. after    5 cycles
            NFock=  4  Conv=0.90D-09     -V/T= 0.9958
 Calling FoFJK, ICntrl=      2127 FMM=F ISym2X=1 I1Cent= 0 IOpClX= 0 NMat=1 NMatS=1 NMatT=0.
 ***** Axes restored to original set *****
 -------------------------------------------------------------------
 Center     Atomic                   Forces (Hartrees/Bohr)
 Number     Number              X              Y              Z
 -------------------------------------------------------------------
      1        6           0.000000000    0.000000000    0.000000000
      2        1          -0.000000016    0.000000045    0.000000000
      3        1          -0.000000016   -0.000000022   -0.000000039
      4        1          -0.000000016   -0.000000022    0.000000039
      5        1           0.000000047    0.000000000    0.000000000
 -------------------------------------------------------------------
 Cartesian Forces:  Max     0.000000047 RMS     0.000000024

 GradGradGradGradGradGradGradGradGradGradGradGradGradGradGradGradGradGrad
 Berny optimization.
 Using GEDIIS/GDIIS optimizer.
 FormGI is forming the generalized inverse of G from B-inverse, IUseBI=4.
 Internal  Forces:  Max     0.000000047 RMS     0.000000025
 Search for a local minimum.
 Step number   3 out of a maximum of   24
 All quantities printed in internal units (Hartrees-Bohrs-Radians)
 Mixed Optimization -- En-DIIS/RFO-DIIS
 Swapping is turned off.
 Update second derivatives using D2CorX and points    1    2    3
 DE= -1.25D-05 DEPred=-1.23D-05 R= 1.02D+00
 TightC=F SS=  1.41D+00  RLast= 9.05D-03 DXNew= 5.0454D-01 2.7164D-02
 Trust test= 1.02D+00 RLast= 9.05D-03 DXMaxT set to 3.00D-01
 The second derivative matrix:
                          R1        R2        R3        R4        A1
           R1           0.35573
           R2          -0.01657   0.35573
           R3          -0.01657  -0.01657   0.35573
           R4          -0.01657  -0.01657  -0.01657   0.35573
           A1           0.00000   0.00000   0.00000   0.00000   0.16000
           A2           0.00000   0.00000   0.00000   0.00000   0.00000
           A3           0.00000   0.00000   0.00000   0.00000   0.00000
           A4           0.00000   0.00000   0.00000   0.00000   0.00000
           A5           0.00000   0.00000   0.00000   0.00000   0.00000
           A6           0.00000   0.00000   0.00000   0.00000   0.00000
           D1           0.00000   0.00000   0.00000   0.00000   0.00000
           D2           0.00000   0.00000   0.00000   0.00000   0.00000
           D3           0.00000   0.00000   0.00000   0.00000   0.00000
           D4           0.00000   0.00000   0.00000   0.00000   0.00000
                          A2        A3        A4        A5        A6
           A2           0.16000
           A3           0.00000   0.16000
           A4           0.00000   0.00000   0.16000
           A5           0.00000   0.00000   0.00000   0.16000
           A6           0.00000   0.00000   0.00000   0.00000   0.16000
           D1           0.00000   0.00000   0.00000   0.00000   0.00000
           D2           0.00000   0.00000   0.00000   0.00000   0.00000
           D3           0.00000   0.00000   0.00000   0.00000   0.00000
           D4           0.00000   0.00000   0.00000   0.00000   0.00000
                          D1        D2        D3        D4
           D1           0.00499
           D2           0.00000   0.00499
           D3           0.00000   0.00000   0.00499
           D4           0.00000   0.00000   0.00000   0.00499
 ITU=  1  1  0
     Eigenvalues ---    0.05269   0.05891   0.08766   0.16000   0.16000
     Eigenvalues ---    0.30601   0.37230   0.37230   0.37230
 En-DIIS/RFO-DIIS IScMMF=        0 using points:     3    2
 RFO step:  Lambda= 0.00000000D+00.
 DidBck=F Rises=F RFO-DIIS coefs:    0.99997    0.00003
 Iteration  1 RMS(Cart)=  0.00000008 RMS(Int)=  0.00000000
 ClnCor:  largest displacement from symmetrization is 6.69D-15 for atom     3.
 Variable       Old X    -DE/DX   Delta X   Delta X   Delta X     New X
                                 (Linear)    (Quad)   (Total)
    R1        2.04938   0.00000   0.00000   0.00000   0.00000   2.04938
    R2        2.04938   0.00000   0.00000   0.00000   0.00000   2.04938
    R3        2.04938   0.00000   0.00000   0.00000   0.00000   2.04938
    R4        2.04938   0.00000   0.00000   0.00000   0.00000   2.04938
    A1        1.91063   0.00000   0.00000   0.00000   0.00000   1.91063
    A2        1.91063   0.00000   0.00000   0.00000   0.00000   1.91063
    A3        1.91063   0.00000   0.00000   0.00000   0.00000   1.91063
    A4        1.91063   0.00000   0.00000   0.00000   0.00000   1.91063
    A5        1.91063   0.00000   0.00000   0.00000   0.00000   1.91063
    A6        1.91063   0.00000   0.00000   0.00000   0.00000   1.91063
    D1       -2.09440   0.00000   0.00000   0.00000   0.00000  -2.09440
    D2        2.09440   0.00000   0.00000   0.00000   0.00000   2.09440
    D3       -2.09440   0.00000   0.00000   0.00000   0.00000  -2.09440
    D4        2.09440   0.00000   0.00000   0.00000   0.00000   2.09440
         Item               Value     Threshold  Converged?
 Maximum Force            0.000000     0.000450     YES
 RMS     Force            0.000000     0.000300     YES
 Maximum Displacement     0.000000     0.001800     YES
 RMS     Displacement     0.000000     0.001200     YES
 Predicted change in Energy=-1.459369D-14
 Optimization completed.
    -- Stationary point found.
                           ----------------------------
                           !   Optimized Parameters   !
                           ! (Angstroms and Degrees)  !
 --------------------------                            --------------------------
 ! Name  Definition              Value          Derivative Info.                !
 --------------------------------------------------------------------------------
 ! R1    R(1,2)                  1.0845         -DE/DX =    0.0                 !
 ! R2    R(1,3)                  1.0845         -DE/DX =    0.0                 !
 ! R3    R(1,4)                  1.0845         -DE/DX =    0.0                 !
 ! R4    R(1,5)                  1.0845         -DE/DX =    0.0                 !
 ! A1    A(2,1,3)              109.4712         -DE/DX =    0.0                 !
 ! A2    A(2,1,4)              109.4712         -DE/DX =    0.0                 !
 ! A3    A(2,1,5)              109.4712         -DE/DX =    0.0                 !
 ! A4    A(3,1,4)              109.4712         -DE/DX =    0.0                 !
 ! A5    A(3,1,5)              109.4712         -DE/DX =    0.0                 !
 ! A6    A(4,1,5)              109.4712         -DE/DX =    0.0                 !
 ! D1    D(2,1,4,3)           -120.0            -DE/DX =    0.0                 !
 ! D2    D(2,1,5,3)            120.0            -DE/DX =    0.0                 !
 ! D3    D(2,1,5,4)           -120.0            -DE/DX =    0.0                 !
 ! D4    D(3,1,5,4)            120.0            -DE/DX =    0.0                 !
 --------------------------------------------------------------------------------
 GradGradGradGradGradGradGradGradGradGradGradGradGradGradGradGradGradGrad

                          Input orientation:                          
 ---------------------------------------------------------------------
 Center     Atomic      Atomic             Coordinates (Angstroms)
 Number     Number       Type             X           Y           Z
 ---------------------------------------------------------------------
      1          6           0       -2.107728   -1.084567   -0.873652
      2          1           0       -1.746246   -2.107032   -0.873652
      3          1           0       -1.746226   -0.573341    0.011826
      4          1           0       -1.746228   -0.573340   -1.759129
      5          1           0       -3.192211   -1.084554   -0.873651
 ---------------------------------------------------------------------
                    Distance matrix (angstroms):
                    1          2          3          4          5
     1  C    0.000000
     2  H    1.084484   0.000000
     3  H    1.084484   1.770955   0.000000
     4  H    1.084484   1.770955   1.770955   0.000000
     5  H    1.084484   1.770955   1.770955   1.770955   0.000000
 Stoichiometry    CH4
 Framework group  TD[O(C),4C3(H)]
 Deg. of freedom     1
 Full point group                 TD      NOp  24
 Largest Abelian subgroup         D2      NOp   4
 Largest concise Abelian subgroup D2      NOp   4
                         Standard orientation:                         
 ---------------------------------------------------------------------
 Center     Atomic      Atomic             Coordinates (Angstroms)
 Number     Number       Type             X           Y           Z
 ---------------------------------------------------------------------
      1          6           0        0.000000    0.000000    0.000000
      2          1           0        0.626127    0.626127    0.626127
      3          1           0       -0.626127   -0.626127    0.626127
      4          1           0       -0.626127    0.626127   -0.626127
      5          1           0        0.626127   -0.626127   -0.626127
 ---------------------------------------------------------------------
 Rotational constants (GHZ):    159.8884947    159.8884947    159.8884947

 **********************************************************************

            Population analysis using the SCF density.

 **********************************************************************

 Orbital symmetries:
       Occupied  (A1) (T2) (T2) (T2)
       Virtual   (T2) (T2) (T2) (A1)
 The electronic state is 1-A1.
 Alpha  occ. eigenvalues --   -0.92646  -0.50259  -0.50259  -0.50259
 Alpha virt. eigenvalues --    0.22111   0.22111   0.22111   0.26662
          Condensed to atoms (all electrons):
               1          2          3          4          5
     1  C    4.655114   0.000000   0.000000   0.000000   0.000000
     2  H    0.000000   0.836221   0.000000   0.000000   0.000000
     3  H    0.000000   0.000000   0.836221   0.000000   0.000000
     4  H    0.000000   0.000000   0.000000   0.836221   0.000000
     5  H    0.000000   0.000000   0.000000   0.000000   0.836221
 Mulliken charges:
               1
     1  C   -0.655114
     2  H    0.163779
     3  H    0.163779
     4  H    0.163779
     5  H    0.163779
 Sum of Mulliken charges =   0.00000
 Mulliken charges with hydrogens summed into heavy atoms:
               1
     1  C    0.000000
 Charge=              0.0000 electrons
 Dipole moment (field-independent basis, Debye):
    X=              0.0000    Y=              0.0000    Z=              0.0000  Tot=              0.0000
 N-N= 1.446632734084D+01 E-N=-1.938720694491D+01  KE=-4.716157717675D+00
 Symmetry A    KE=-1.879586547721D+00
 Symmetry B1   KE=-9.455237233180D-01
 Symmetry B2   KE=-9.455237233180D-01
 Symmetry B3   KE=-9.455237233180D-01
 1|1|UNPC-AHELI-09|FOpt|RPM6|ZDO|C1H4|USER|10-Mar-2026|0||# opt freq pm
 6 geom=connectivity||CH4_semi||0,1|C,-2.1077277,-1.084567003,-0.873651
 501|H,-1.7462455141,-2.1070324828,-0.8736523562|H,-1.7462262153,-0.573
 3413339,0.0118257827|H,-1.7462276096,-0.5733403456,-1.7591287833|H,-3.
 192211461,-1.0845538497,-0.8736506472||Version=IA32W-G09RevD.01|State=
 1-A1|HF=-0.0195852|RMSD=9.022e-010|RMSF=2.440e-008|Dipole=0.,0.,0.|PG=
 TD [O(C1),4C3(H1)]||@


 TO SEE A WORLD IN A GRAIN OF SAND
 AND A HEAVEN IN A WILD FLOWER
 HOLD INFINITY IN THE PALM OF YOUR HAND
 AND ETERNITY IN AN HOUR

                       -- WILLIAM BLAKE
 Job cpu time:       0 days  0 hours  0 minutes  2.0 seconds.
 File lengths (MBytes):  RWF=      5 Int=      0 D2E=      0 Chk=      1 Scr=      1
 Normal termination of Gaussian 09 at Tue Mar 10 20:09:51 2026.
 Link1:  Proceeding to internal job step number  2.
 -------------------------------------------------------------
 #N Geom=AllCheck Guess=TCheck SCRF=Check GenChk RPM6/ZDO Freq
 -------------------------------------------------------------
 1/10=4,29=7,30=1,38=1,40=1/1,3;
 2/12=2,40=1/2;
 3/5=2,14=-4,16=1,25=1,41=3900000,70=2,71=2,116=1,135=40,140=1/1,2,3;
 4/5=101,35=1/1;
 5/5=2,35=1,98=1/2;
 8/6=4,10=90,11=11/1;
 11/6=1,8=1,9=11,15=111,16=1/1,2,10;
 10/6=1/2;
 6/7=2,8=2,9=2,10=2,18=1,28=1/1;
 7/8=1,10=1,25=1/1,2,3,16;
 1/10=4,30=1/3;
 99//99;
 Structure from the checkpoint file:  "C:\Users\User\Desktop\IMRG\ECE+ML\CH4_semi.chk"
 --------
 CH4_semi
 --------
 Charge =  0 Multiplicity = 1
 Redundant internal coordinates found in file.
 C,0,-2.1077277,-1.084567003,-0.873651501
 H,0,-1.7462455141,-2.1070324828,-0.8736523562
 H,0,-1.7462262153,-0.5733413339,0.0118257827
 H,0,-1.7462276096,-0.5733403456,-1.7591287833
 H,0,-3.192211461,-1.0845538497,-0.8736506472
 Recover connectivity data from disk.

 GradGradGradGradGradGradGradGradGradGradGradGradGradGradGradGradGradGrad
 Berny optimization.
 Initialization pass.
                           ----------------------------
                           !    Initial Parameters    !
                           ! (Angstroms and Degrees)  !
 --------------------------                            --------------------------
 ! Name  Definition              Value          Derivative Info.                !
 --------------------------------------------------------------------------------
 ! R1    R(1,2)                  1.0845         calculate D2E/DX2 analytically  !
 ! R2    R(1,3)                  1.0845         calculate D2E/DX2 analytically  !
 ! R3    R(1,4)                  1.0845         calculate D2E/DX2 analytically  !
 ! R4    R(1,5)                  1.0845         calculate D2E/DX2 analytically  !
 ! A1    A(2,1,3)              109.4712         calculate D2E/DX2 analytically  !
 ! A2    A(2,1,4)              109.4712         calculate D2E/DX2 analytically  !
 ! A3    A(2,1,5)              109.4712         calculate D2E/DX2 analytically  !
 ! A4    A(3,1,4)              109.4712         calculate D2E/DX2 analytically  !
 ! A5    A(3,1,5)              109.4712         calculate D2E/DX2 analytically  !
 ! A6    A(4,1,5)              109.4712         calculate D2E/DX2 analytically  !
 ! D1    D(2,1,4,3)           -120.0            calculate D2E/DX2 analytically  !
 ! D2    D(2,1,5,3)            120.0            calculate D2E/DX2 analytically  !
 ! D3    D(2,1,5,4)           -120.0            calculate D2E/DX2 analytically  !
 ! D4    D(3,1,5,4)            120.0            calculate D2E/DX2 analytically  !
 --------------------------------------------------------------------------------
 Trust Radius=3.00D-01 FncErr=1.00D-07 GrdErr=1.00D-07
 Number of steps in this run=      2 maximum allowed number of steps=      2.
 GradGradGradGradGradGradGradGradGradGradGradGradGradGradGradGradGradGrad

                          Input orientation:                          
 ---------------------------------------------------------------------
 Center     Atomic      Atomic             Coordinates (Angstroms)
 Number     Number       Type             X           Y           Z
 ---------------------------------------------------------------------
      1          6           0       -2.107728   -1.084567   -0.873652
      2          1           0       -1.746246   -2.107032   -0.873652
      3          1           0       -1.746226   -0.573341    0.011826
      4          1           0       -1.746228   -0.573340   -1.759129
      5          1           0       -3.192211   -1.084554   -0.873651
 ---------------------------------------------------------------------
                    Distance matrix (angstroms):
                    1          2          3          4          5
     1  C    0.000000
     2  H    1.084484   0.000000
     3  H    1.084484   1.770955   0.000000
     4  H    1.084484   1.770955   1.770955   0.000000
     5  H    1.084484   1.770955   1.770955   1.770955   0.000000
 Stoichiometry    CH4
 Framework group  TD[O(C),4C3(H)]
 Deg. of freedom     1
 Full point group                 TD      NOp  24
 Largest Abelian subgroup         D2      NOp   4
 Largest concise Abelian subgroup D2      NOp   4
                         Standard orientation:                         
 ---------------------------------------------------------------------
 Center     Atomic      Atomic             Coordinates (Angstroms)
 Number     Number       Type             X           Y           Z
 ---------------------------------------------------------------------
      1          6           0        0.000000    0.000000    0.000000
      2          1           0        0.626127    0.626127    0.626127
      3          1           0       -0.626127   -0.626127    0.626127
      4          1           0       -0.626127    0.626127   -0.626127
      5          1           0        0.626127   -0.626127   -0.626127
 ---------------------------------------------------------------------
 Rotational constants (GHZ):    159.8884947    159.8884947    159.8884947
 Standard basis: VSTO-6G (5D, 7F)
 There are     2 symmetry adapted cartesian basis functions of A   symmetry.
 There are     2 symmetry adapted cartesian basis functions of B1  symmetry.
 There are     2 symmetry adapted cartesian basis functions of B2  symmetry.
 There are     2 symmetry adapted cartesian basis functions of B3  symmetry.
 There are     2 symmetry adapted basis functions of A   symmetry.
 There are     2 symmetry adapted basis functions of B1  symmetry.
 There are     2 symmetry adapted basis functions of B2  symmetry.
 There are     2 symmetry adapted basis functions of B3  symmetry.
     8 basis functions,    48 primitive gaussians,     8 cartesian basis functions
     4 alpha electrons        4 beta electrons
       nuclear repulsion energy        14.4663273408 Hartrees.
 Integral buffers will be    262144 words long.
 Regular integral format.
 Two-electron integral symmetry is turned off.
 Do NDO integrals.
 One-electron integrals computed using PRISM.
 NBasis=     8 RedAO= T EigKep=  5.00D-01  NBF=     2     2     2     2
 NBsUse=     8 1.00D-06 EigRej= -1.00D+00 NBFU=     2     2     2     2
 Initial guess from the checkpoint file:  "C:\Users\User\Desktop\IMRG\ECE+ML\CH4_semi.chk"
 B after Tr=     0.000000    0.000000    0.000000
         Rot=    1.000000    0.000000    0.000000    0.000000 Ang=   0.00 deg.
 Initial guess orbital symmetries:
       Occupied  (A1) (T2) (T2) (T2)
       Virtual   (T2) (T2) (T2) (A1)
 Overlap will be assumed to be unity.
 Keep J ints in memory in canonical form, NReq=878835.
 Requested convergence on RMS density matrix=1.00D-08 within 128 cycles.
 Requested convergence on MAX density matrix=1.00D-06.
 Requested convergence on             energy=1.00D-06.
 No special actions if energy rises.
 An orbital has undefined symmetry, so N**3 symmetry is turned off.
 SCF Done:  E(RPM6) = -0.195851913126E-01 A.U. after    2 cycles
            NFock=  1  Conv=0.57D-14     -V/T= 0.9958
 Range of M.O.s used for correlation:     1     8
 NBasis=     8 NAE=     4 NBE=     4 NFC=     0 NFV=     0
 NROrb=      8 NOA=     4 NOB=     4 NVA=     4 NVB=     4
 Symmetrizing basis deriv contribution to polar:
 IMax=3 JMax=2 DiffMx= 0.00D+00
 G2DrvN: will do     6 centers at a time, making    1 passes.
 Calling FoFCou, ICntrl=  3107 FMM=F I1Cent=   0 AccDes= 0.00D+00.
 End of G2Drv F.D. properties file   721 does not exist.
 End of G2Drv F.D. properties file   722 does not exist.
 End of G2Drv F.D. properties file   788 does not exist.
          IDoAtm=11111
          Differentiating once with respect to electric field.
                with respect to dipole field.
          Differentiating once with respect to nuclear coordinates.
          Electric field/nuclear overlap derivatives assumed to be zero.
 Keep J ints in memory in canonical form, NReq=860887.
          There are     9 degrees of freedom in the 1st order CPHF.  IDoFFX=4 NUNeed=     9.
 LinEq1:  Iter=  0 NonCon=     9 RMS=2.94D-01 Max=6.79D-01 NDo=     9
 AX will form     9 AO Fock derivatives at one time.
 LinEq1:  Iter=  1 NonCon=     9 RMS=1.19D-02 Max=4.21D-02 NDo=     9
 LinEq1:  Iter=  2 NonCon=     9 RMS=1.77D-04 Max=5.45D-04 NDo=     9
 LinEq1:  Iter=  3 NonCon=     3 RMS=1.17D-05 Max=2.92D-05 NDo=     9
 LinEq1:  Iter=  4 NonCon=     3 RMS=7.86D-07 Max=2.18D-06 NDo=     9
 LinEq1:  Iter=  5 NonCon=     3 RMS=1.94D-08 Max=4.91D-08 NDo=     9
 LinEq1:  Iter=  6 NonCon=     0 RMS=1.23D-10 Max=4.07D-10 NDo=     9
 Linear equations converged to 1.000D-08 1.000D-07 after     6 iterations.
 Isotropic polarizability for W=    0.000000        6.52 Bohr**3.
 End of Minotr F.D. properties file   721 does not exist.
 End of Minotr F.D. properties file   722 does not exist.
 End of Minotr F.D. properties file   788 does not exist.

 **********************************************************************

            Population analysis using the SCF density.

 **********************************************************************

 Orbital symmetries:
       Occupied  (A1) (T2) (T2) (T2)
       Virtual   (T2) (T2) (T2) (A1)
 The electronic state is 1-A1.
 Alpha  occ. eigenvalues --   -0.92646  -0.50259  -0.50259  -0.50259
 Alpha virt. eigenvalues --    0.22111   0.22111   0.22111   0.26662
          Condensed to atoms (all electrons):
               1          2          3          4          5
     1  C    4.655114   0.000000   0.000000   0.000000   0.000000
     2  H    0.000000   0.836221   0.000000   0.000000   0.000000
     3  H    0.000000   0.000000   0.836221   0.000000   0.000000
     4  H    0.000000   0.000000   0.000000   0.836221   0.000000
     5  H    0.000000   0.000000   0.000000   0.000000   0.836221
 Mulliken charges:
               1
     1  C   -0.655114
     2  H    0.163779
     3  H    0.163779
     4  H    0.163779
     5  H    0.163779
 Sum of Mulliken charges =   0.00000
 Mulliken charges with hydrogens summed into heavy atoms:
               1
     1  C    0.000000
 APT charges:
               1
     1  C   -0.849625
     2  H    0.212406
     3  H    0.212406
     4  H    0.212406
     5  H    0.212406
 Sum of APT charges =   0.00000
 APT charges with hydrogens summed into heavy atoms:
               1
     1  C    0.000000
 Charge=              0.0000 electrons
 Dipole moment (field-independent basis, Debye):
    X=              0.0000    Y=              0.0000    Z=              0.0000  Tot=              0.0000
 N-N= 1.446632734084D+01 E-N=-1.938720694491D+01  KE=-4.716157717675D+00
 Symmetry A    KE=-1.879586547721D+00
 Symmetry B1   KE=-9.455237233180D-01
 Symmetry B2   KE=-9.455237233180D-01
 Symmetry B3   KE=-9.455237233180D-01
  Exact polarizability:   6.519   0.000   6.519   0.000   0.000   6.519
 Approx polarizability:   4.105   0.000   4.105   0.000   0.000   4.105
 Calling FoFJK, ICntrl=    100127 FMM=F ISym2X=1 I1Cent= 0 IOpClX= 0 NMat=1 NMatS=1 NMatT=0.
 Full mass-weighted force constant matrix:
 Low frequencies ---   -0.0001    0.0000    0.0000    0.6853    0.6853    0.6853
 Low frequencies --- 1253.4104 1253.4104 1253.4104
 Diagonal vibrational polarizability:
        2.9694337       2.9694337       2.9694337
 Harmonic frequencies (cm**-1), IR intensities (KM/Mole), Raman scattering
 activities (A**4/AMU), depolarization ratios for plane and unpolarized
 incident light, reduced masses (AMU), force constants (mDyne/A),
 and normal coordinates:
                      1                      2                      3
                     T2                     T2                     T2
 Frequencies --   1253.4104              1253.4104              1253.4104
 Red. masses --      1.1920                 1.1920                 1.1920
 Frc consts  --      1.1033                 1.1033                 1.1033
 IR Inten    --    157.2393               157.2393               157.2393
  Atom  AN      X      Y      Z        X      Y      Z        X      Y      Z
     1   6     0.00   0.13   0.00     0.01   0.00   0.13     0.13   0.00  -0.01
     2   1     0.23  -0.39   0.22     0.18   0.24  -0.36    -0.40   0.19   0.26
     3   1     0.22  -0.39  -0.22    -0.26  -0.20  -0.41    -0.36   0.24  -0.18
     4   1    -0.22  -0.38  -0.22     0.18  -0.24  -0.36    -0.41  -0.20   0.26
     5   1    -0.22  -0.38   0.22    -0.26   0.20  -0.41    -0.36  -0.25  -0.18
                      4                      5                      6
                      E                      E                     T2
 Frequencies --   1261.4113              1261.4113              2721.7798
 Red. masses --      1.0078                 1.0078                 1.0906
 Frc consts  --      0.9448                 0.9448                 4.7600
 IR Inten    --      0.0000                 0.0000                75.9748
  Atom  AN      X      Y      Z        X      Y      Z        X      Y      Z
     1   6     0.00   0.00   0.00     0.00   0.00   0.00     0.01  -0.08  -0.01
     2   1    -0.37   0.02   0.34    -0.18   0.41  -0.22     0.30   0.25   0.29
     3   1     0.37  -0.02   0.34     0.18  -0.41  -0.22     0.21   0.16  -0.21
     4   1     0.37   0.02  -0.34     0.18   0.41   0.22    -0.29   0.25  -0.30
     5   1    -0.37  -0.02  -0.34    -0.18  -0.41   0.22    -0.38   0.34   0.38
                      7                      8                      9
                     T2                     T2                     A1
 Frequencies --   2721.7798              2721.7798              2827.7008
 Red. masses --      1.0906                 1.0906                 1.0078
 Frc consts  --      4.7600                 4.7600                 4.7479
 IR Inten    --     75.9748                75.9748                 0.0000
  Atom  AN      X      Y      Z        X      Y      Z        X      Y      Z
     1   6    -0.07   0.00  -0.05     0.05   0.02  -0.07     0.00   0.00   0.00
     2   1     0.39   0.43   0.41     0.04   0.03  -0.02    -0.29  -0.29  -0.29
     3   1     0.06   0.09  -0.12    -0.45  -0.46   0.44     0.29   0.29  -0.29
     4   1     0.37  -0.41   0.38     0.17  -0.14   0.11     0.29  -0.29   0.29
     5   1     0.03  -0.07  -0.09    -0.32   0.35   0.31    -0.29   0.29   0.29

 -------------------
 - Thermochemistry -
 -------------------
 Temperature   298.150 Kelvin.  Pressure   1.00000 Atm.
 Atom     1 has atomic number  6 and mass  12.00000
 Atom     2 has atomic number  1 and mass   1.00783
 Atom     3 has atomic number  1 and mass   1.00783
 Atom     4 has atomic number  1 and mass   1.00783
 Atom     5 has atomic number  1 and mass   1.00783
 Molecular mass:    16.03130 amu.
 Principal axes and moments of inertia in atomic units:
                           1         2         3
     Eigenvalues --    11.28750  11.28750  11.28750
           X            0.90152   0.36168  -0.23758
           Y           -0.43273   0.75350  -0.49496
           Z            0.00000   0.54903   0.83581
 This molecule is a spherical top.
 Rotational symmetry number 12.
 Rotational temperatures (Kelvin)      7.67343     7.67343     7.67343
 Rotational constants (GHZ):         159.88849   159.88849   159.88849
 Zero-point vibrational energy     103334.0 (Joules/Mol)
                                   24.69742 (Kcal/Mol)
 Vibrational temperatures:   1803.38  1803.38  1803.38  1814.89  1814.89
          (Kelvin)           3916.03  3916.03  3916.03  4068.43
 
 Zero-point correction=                           0.039358 (Hartree/Particle)
 Thermal correction to Energy=                    0.042257
 Thermal correction to Enthalpy=                  0.043201
 Thermal correction to Gibbs Free Energy=         0.022051
 Sum of electronic and zero-point Energies=              0.019773
 Sum of electronic and thermal Energies=                 0.022672
 Sum of electronic and thermal Enthalpies=               0.023616
 Sum of electronic and thermal Free Energies=            0.002466
 
                     E (Thermal)             CV                S
                      KCal/Mol        Cal/Mol-Kelvin    Cal/Mol-Kelvin
 Total                   26.517              6.818             44.515
 Electronic               0.000              0.000              0.000
 Translational            0.889              2.981             34.261
 Rotational               0.889              2.981             10.089
 Vibrational             24.739              0.856              0.164
                       Q            Log10(Q)             Ln(Q)
 Total Bot       0.719811D-10        -10.142781        -23.354617
 Total V=0       0.913122D+08          7.960529         18.329795
 Vib (Bot)       0.797533D-18        -18.098251        -41.672764
 Vib (V=0)       0.101172D+01          0.005059          0.011648
 Electronic      0.100000D+01          0.000000          0.000000
 Translational   0.252295D+07          6.401908         14.740939
 Rotational      0.357735D+02          1.553562          3.577208
 ***** Axes restored to original set *****
 -------------------------------------------------------------------
 Center     Atomic                   Forces (Hartrees/Bohr)
 Number     Number              X              Y              Z
 -------------------------------------------------------------------
      1        6           0.000000000    0.000000000    0.000000000
      2        1          -0.000000016    0.000000045    0.000000000
      3        1          -0.000000016   -0.000000022   -0.000000039
      4        1          -0.000000016   -0.000000022    0.000000039
      5        1           0.000000047    0.000000000    0.000000000
 -------------------------------------------------------------------
 Cartesian Forces:  Max     0.000000047 RMS     0.000000024
 FormGI is forming the generalized inverse of G from B-inverse, IUseBI=4.

 GradGradGradGradGradGradGradGradGradGradGradGradGradGradGradGradGradGrad
 Berny optimization.
 Internal  Forces:  Max     0.000000047 RMS     0.000000025
 Search for a local minimum.
 Step number   1 out of a maximum of    2
 All quantities printed in internal units (Hartrees-Bohrs-Radians)
 Second derivative matrix not updated -- analytic derivatives used.
 The second derivative matrix:
                          R1        R2        R3        R4        A1
           R1           0.26979
           R2           0.01172   0.26979
           R3           0.01172   0.01172   0.26979
           R4           0.01172   0.01172   0.01172   0.26979
           A1           0.00242   0.00242  -0.00152  -0.00332   0.01332
           A2           0.00380  -0.00098   0.00422  -0.00704  -0.00490
           A3           0.00742  -0.00595  -0.00659   0.00513  -0.00845
           A4          -0.00098   0.00380   0.00422  -0.00704  -0.00490
           A5          -0.00595   0.00742  -0.00659   0.00513  -0.00845
           A6          -0.00670  -0.00670   0.00625   0.00715   0.01337
           D1          -0.00469  -0.00469  -0.00331   0.01269  -0.01032
           D2           0.00386   0.00386  -0.00994   0.00221   0.00597
           D3          -0.00509   0.00895  -0.00497   0.00110   0.00299
           D4          -0.00895   0.00509   0.00497  -0.00110  -0.00299
                          A2        A3        A4        A5        A6
           A2           0.02615
           A3          -0.01530   0.05104
           A4           0.00042   0.01312   0.02615
           A5           0.01312  -0.02304  -0.01530   0.05104
           A6          -0.01949  -0.01738  -0.01949  -0.01738   0.06038
           D1          -0.01027   0.01168  -0.01027   0.01168   0.00750
           D2          -0.00733   0.00680  -0.00733   0.00680  -0.00491
           D3          -0.01072  -0.00187   0.00339   0.00868  -0.00246
           D4          -0.00339  -0.00868   0.01072   0.00187   0.00246
                          D1        D2        D3        D4
           D1           0.02522
           D2           0.00167   0.01565
           D3           0.00083   0.00782   0.01578
           D4          -0.00083  -0.00782   0.00796   0.01578
 ITU=  0
     Eigenvalues ---    0.03063   0.03487   0.05438   0.08674   0.08747
     Eigenvalues ---    0.25998   0.26002   0.26064   0.30496
 Angle between quadratic step and forces=  90.00 degrees.
 Linear search not attempted -- first point.
 Iteration  1 RMS(Cart)=  0.00000008 RMS(Int)=  0.00000000
 ClnCor:  largest displacement from symmetrization is 4.72D-15 for atom     4.
 Variable       Old X    -DE/DX   Delta X   Delta X   Delta X     New X
                                 (Linear)    (Quad)   (Total)
    R1        2.04938   0.00000   0.00000   0.00000   0.00000   2.04938
    R2        2.04938   0.00000   0.00000   0.00000   0.00000   2.04938
    R3        2.04938   0.00000   0.00000   0.00000   0.00000   2.04938
    R4        2.04938   0.00000   0.00000   0.00000   0.00000   2.04938
    A1        1.91063   0.00000   0.00000   0.00000   0.00000   1.91063
    A2        1.91063   0.00000   0.00000   0.00000   0.00000   1.91063
    A3        1.91063   0.00000   0.00000   0.00000   0.00000   1.91063
    A4        1.91063   0.00000   0.00000   0.00000   0.00000   1.91063
    A5        1.91063   0.00000   0.00000   0.00000   0.00000   1.91063
    A6        1.91063   0.00000   0.00000   0.00000   0.00000   1.91063
    D1       -2.09440   0.00000   0.00000   0.00000   0.00000  -2.09440
    D2        2.09440   0.00000   0.00000   0.00000   0.00000   2.09440
    D3       -2.09440   0.00000   0.00000   0.00000   0.00000  -2.09440
    D4        2.09440   0.00000   0.00000   0.00000   0.00000   2.09440
         Item               Value     Threshold  Converged?
 Maximum Force            0.000000     0.000450     YES
 RMS     Force            0.000000     0.000300     YES
 Maximum Displacement     0.000000     0.001800     YES
 RMS     Displacement     0.000000     0.001200     YES
 Predicted change in Energy=-1.464402D-14
 Optimization completed.
    -- Stationary point found.
                           ----------------------------
                           !   Optimized Parameters   !
                           ! (Angstroms and Degrees)  !
 --------------------------                            --------------------------
 ! Name  Definition              Value          Derivative Info.                !
 --------------------------------------------------------------------------------
 ! R1    R(1,2)                  1.0845         -DE/DX =    0.0                 !
 ! R2    R(1,3)                  1.0845         -DE/DX =    0.0                 !
 ! R3    R(1,4)                  1.0845         -DE/DX =    0.0                 !
 ! R4    R(1,5)                  1.0845         -DE/DX =    0.0                 !
 ! A1    A(2,1,3)              109.4712         -DE/DX =    0.0                 !
 ! A2    A(2,1,4)              109.4712         -DE/DX =    0.0                 !
 ! A3    A(2,1,5)              109.4712         -DE/DX =    0.0                 !
 ! A4    A(3,1,4)              109.4712         -DE/DX =    0.0                 !
 ! A5    A(3,1,5)              109.4712         -DE/DX =    0.0                 !
 ! A6    A(4,1,5)              109.4712         -DE/DX =    0.0                 !
 ! D1    D(2,1,4,3)           -120.0            -DE/DX =    0.0                 !
 ! D2    D(2,1,5,3)            120.0            -DE/DX =    0.0                 !
 ! D3    D(2,1,5,4)           -120.0            -DE/DX =    0.0                 !
 ! D4    D(3,1,5,4)            120.0            -DE/DX =    0.0                 !
 --------------------------------------------------------------------------------
 GradGradGradGradGradGradGradGradGradGradGradGradGradGradGradGradGradGrad

 1|1|UNPC-AHELI-09|Freq|RPM6|ZDO|C1H4|USER|10-Mar-2026|0||#N Geom=AllCh
 eck Guess=TCheck SCRF=Check GenChk RPM6/ZDO Freq||CH4_semi||0,1|C,-2.1
 077277,-1.084567003,-0.873651501|H,-1.7462455141,-2.1070324828,-0.8736
 523562|H,-1.7462262153,-0.5733413339,0.0118257827|H,-1.7462276096,-0.5
 733403456,-1.7591287833|H,-3.192211461,-1.0845538497,-0.8736506472||Ve
 rsion=IA32W-G09RevD.01|State=1-A1|HF=-0.0195852|RMSD=5.664e-015|RMSF=2
 .440e-008|ZeroPoint=0.0393578|Thermal=0.0422572|Dipole=0.,0.,0.|Dipole
 Deriv=-0.8496252,0.,0.,0.,-0.8496252,0.,0.,0.,-0.8496252,0.2128461,0.0
 006219,0.,0.0006219,0.211307,0.,0.,0.,0.2130659,0.212846,-0.0003109,-0
 .0005386,-0.0003109,0.2126262,-0.0007616,-0.0005386,-0.0007616,0.21174
 67,0.212846,-0.0003109,0.0005386,-0.0003109,0.2126262,0.0007616,0.0005
 386,0.0007616,0.2117467,0.2110871,0.,0.,0.,0.2130659,0.,0.,0.,0.213065
 9|Polar=6.519165,0.,6.519165,0.,0.,6.519165|HyperPolar=-6.7745984,0.00
 01643,3.3872411,-4.7904877,0.0000107,0.0000038,-0.0000107,3.3873573,4.
 7903234,0.|PG=TD [O(C1),4C3(H1)]|NImag=0||0.39893124,0.,0.39893124,0.,
 0.,0.39893124,-0.05705935,0.06034550,0.00000005,0.06042291,0.06034550,
 -0.20641426,-0.00000014,-0.07402063,0.24362371,0.00000005,-0.00000014,
 -0.03572482,-0.00000006,0.00000018,0.03425368,-0.05706163,-0.03017394,
 -0.05226330,0.00532539,0.00309817,0.00409908,0.06042571,-0.03017394,-0
 .07839600,-0.07390936,-0.00509964,-0.01713962,-0.02048061,0.03701178,0
 .08659474,-0.05226330,-0.07390936,-0.16374081,-0.00063376,-0.00709361,
 -0.00121973,0.06410689,0.09065824,0.19127986,-0.05706147,-0.03017389,0
 .05226310,0.00532539,0.00309819,-0.00409909,0.00532546,0.00200093,-0.0
 0473311,0.06042551,-0.03017389,-0.07839617,0.07390950,-0.00509961,-0.0
 1713965,0.02048060,0.00200091,0.00674022,-0.00669341,0.03701171,0.0865
 9494,0.05226310,0.07390950,-0.16374081,0.00063375,0.00709358,-0.001219
 69,0.00473306,0.00669344,-0.02509963,-0.06410665,-0.09065842,0.1912798
 6,-0.22774880,0.00000233,0.00000015,-0.01401434,0.00747877,0.00000002,
 -0.01401493,-0.00373912,-0.00647672,-0.01401489,-0.00373912,0.00647673
 ,0.26979295,0.00000233,-0.03572482,0.,0.02387438,-0.00293018,-0.000000
 02,-0.01193692,0.00220067,-0.00296187,-0.01193693,0.00220066,0.0029619
 0,-0.00000286,0.03425368,0.00000015,0.,-0.03572482,0.00000003,0.,0.003
 91056,-0.02067573,-0.00296171,-0.00121969,0.02067574,0.00296172,-0.001
 21973,-0.00000019,0.,0.03425368||0.,0.,0.,0.00000002,-0.00000004,0.,0.
 00000002,0.00000002,0.00000004,0.00000002,0.00000002,-0.00000004,-0.00
 000005,0.,0.|||@


 TO SEE A WORLD IN A GRAIN OF SAND
 AND A HEAVEN IN A WILD FLOWER
 HOLD INFINITY IN THE PALM OF YOUR HAND
 AND ETERNITY IN AN HOUR

                       -- WILLIAM BLAKE
 Job cpu time:       0 days  0 hours  0 minutes  1.0 seconds.
 File lengths (MBytes):  RWF=      5 Int=      0 D2E=      0 Chk=      1 Scr=      1
 Normal termination of Gaussian 09 at Tue Mar 10 20:09:52 2026.
