 Entering Link 1 = C:\Gaussian\G09W\l1.exe PID=     11572.
  
 Copyright (c) 1988,1990,1992,1993,1995,1998,2003,2009,2013,
            Gaussian, Inc.  All Rights Reserved.
  
 This is part of the Gaussian(R) 09 program.  It is based on
 the Gaussian(R) 03 system (copyright 2003, Gaussian, Inc.),
 the Gaussian(R) 98 system (copyright 1998, Gaussian, Inc.),
 the Gaussian(R) 94 system (copyright 1995, Gaussian, Inc.),
 the Gaussian 92(TM) system (copyright 1992, Gaussian, Inc.),
 the Gaussian 90(TM) system (copyright 1990, Gaussian, Inc.),
 the Gaussian 88(TM) system (copyright 1988, Gaussian, Inc.),
 the Gaussian 86(TM) system (copyright 1986, Carnegie Mellon
 University), and the Gaussian 82(TM) system (copyright 1983,
 Carnegie Mellon University). Gaussian is a federally registered
 trademark of Gaussian, Inc.
  
 This software contains proprietary and confidential information,
 including trade secrets, belonging to Gaussian, Inc.
  
 This software is provided under written license and may be
 used, copied, transmitted, or stored only in accord with that
 written license.
  
 The following legend is applicable only to US Government
 contracts under FAR:
  
                    RESTRICTED RIGHTS LEGEND
  
 Use, reproduction and disclosure by the US Government is
 subject to restrictions as set forth in subparagraphs (a)
 and (c) of the Commercial Computer Software - Restricted
 Rights clause in FAR 52.227-19.
  
 Gaussian, Inc.
 340 Quinnipiac St., Bldg. 40, Wallingford CT 06492
  
  
 ---------------------------------------------------------------
 Warning -- This program may not be used in any manner that
 competes with the business of Gaussian, Inc. or will provide
 assistance to any competitor of Gaussian, Inc.  The licensee
 of this program is prohibited from giving any competitor of
 Gaussian, Inc. access to this program.  By using this program,
 the user acknowledges that Gaussian, Inc. is engaged in the
 business of creating and licensing software in the field of
 computational chemistry and represents and warrants to the
 licensee that it is not a competitor of Gaussian, Inc. and that
 it will not use this program in any manner prohibited above.
 ---------------------------------------------------------------
  

 Cite this work as:
 Gaussian 09, Revision D.01,
 M. J. Frisch, G. W. Trucks, H. B. Schlegel, G. E. Scuseria, 
 M. A. Robb, J. R. Cheeseman, G. Scalmani, V. Barone, B. Mennucci, 
 G. A. Petersson, H. Nakatsuji, M. Caricato, X. Li, H. P. Hratchian, 
 A. F. Izmaylov, J. Bloino, G. Zheng, J. L. Sonnenberg, M. Hada, 
 M. Ehara, K. Toyota, R. Fukuda, J. Hasegawa, M. Ishida, T. Nakajima, 
 Y. Honda, O. Kitao, H. Nakai, T. Vreven, J. A. Montgomery, Jr., 
 J. E. Peralta, F. Ogliaro, M. Bearpark, J. J. Heyd, E. Brothers, 
 K. N. Kudin, V. N. Staroverov, T. Keith, R. Kobayashi, J. Normand, 
 K. Raghavachari, A. Rendell, J. C. Burant, S. S. Iyengar, J. Tomasi, 
 M. Cossi, N. Rega, J. M. Millam, M. Klene, J. E. Knox, J. B. Cross, 
 V. Bakken, C. Adamo, J. Jaramillo, R. Gomperts, R. E. Stratmann, 
 O. Yazyev, A. J. Austin, R. Cammi, C. Pomelli, J. W. Ochterski, 
 R. L. Martin, K. Morokuma, V. G. Zakrzewski, G. A. Voth, 
 P. Salvador, J. J. Dannenberg, S. Dapprich, A. D. Daniels, 
 O. Farkas, J. B. Foresman, J. V. Ortiz, J. Cioslowski, 
 and D. J. Fox, Gaussian, Inc., Wallingford CT, 2013.
 
 ******************************************
 Gaussian 09:  IA32W-G09RevD.01 24-Apr-2013
                08-Jul-2025 
 ******************************************
 %chk=C:\Gaussian\CO_semi_25.chk
 ------------------------------------------------
 # opt freq pm6 geom=connectivity temperature=298
 ------------------------------------------------
 1/14=-1,18=20,19=15,26=1,38=1,57=2,112=298000/1,3;
 2/9=110,12=2,17=6,18=5,40=1/2;
 3/5=2,16=1,25=1,41=3900000,71=1/1,2,3;
 4/35=1/1;
 5/5=2,35=1,38=5/2;
 6/7=2,8=2,9=2,10=2,28=1/1;
 7//1,2,3,16;
 1/14=-1,18=20,19=15,26=1/3(2);
 2/9=110/2;
 99//99;
 2/9=110/2;
 3/5=2,16=1,25=1,41=3900000,71=1,135=20/1,2,3;
 4/5=5,16=3,35=1/1;
 5/5=2,35=1,38=5/2;
 7//1,2,3,16;
 1/14=-1,18=20,19=15,26=1/3(-5);
 2/9=110/2;
 6/7=2,8=2,9=2,10=2,19=2,28=1/1;
 99/9=1/99;
 ----------
 CO_semi_25
 ----------
 Symbolic Z-matrix:
 Charge =  0 Multiplicity = 1
 C                    -0.22019   0.93985   0. 
 O                    -0.29455  -0.14967  -0.32586 
 

 GradGradGradGradGradGradGradGradGradGradGradGradGradGradGradGradGradGrad
 Berny optimization.
 Initialization pass.
                           ----------------------------
                           !    Initial Parameters    !
                           ! (Angstroms and Degrees)  !
 --------------------------                            --------------------------
 ! Name  Definition              Value          Derivative Info.                !
 --------------------------------------------------------------------------------
 ! R1    R(1,2)                  1.1396         estimate D2E/DX2                !
 --------------------------------------------------------------------------------
 Trust Radius=3.00D-01 FncErr=1.00D-07 GrdErr=1.00D-07
 Number of steps in this run=     20 maximum allowed number of steps=    100.
 GradGradGradGradGradGradGradGradGradGradGradGradGradGradGradGradGradGrad

                          Input orientation:                          
 ---------------------------------------------------------------------
 Center     Atomic      Atomic             Coordinates (Angstroms)
 Number     Number       Type             X           Y           Z
 ---------------------------------------------------------------------
      1          6           0       -0.220193    0.939850    0.000000
      2          8           0       -0.294550   -0.149668   -0.325862
 ---------------------------------------------------------------------
 Stoichiometry    CO
 Framework group  C*V[C*(CO)]
 Deg. of freedom     1
 Full point group                 C*V     NOp   4
 Largest Abelian subgroup         C2V     NOp   4
 Largest concise Abelian subgroup C1      NOp   1
                         Standard orientation:                         
 ---------------------------------------------------------------------
 Center     Atomic      Atomic             Coordinates (Angstroms)
 Number     Number       Type             X           Y           Z
 ---------------------------------------------------------------------
      1          6           0        0.000000    0.000000   -0.651219
      2          8           0        0.000000    0.000000    0.488414
 ---------------------------------------------------------------------
 Rotational constants (GHZ):      0.0000000     56.7548931     56.7548931
 Standard basis: VSTO-6G (5D, 7F)
 There are     4 symmetry adapted cartesian basis functions of A1  symmetry.
 There are     0 symmetry adapted cartesian basis functions of A2  symmetry.
 There are     2 symmetry adapted cartesian basis functions of B1  symmetry.
 There are     2 symmetry adapted cartesian basis functions of B2  symmetry.
 There are     4 symmetry adapted basis functions of A1  symmetry.
 There are     0 symmetry adapted basis functions of A2  symmetry.
 There are     2 symmetry adapted basis functions of B1  symmetry.
 There are     2 symmetry adapted basis functions of B2  symmetry.
     8 basis functions,    48 primitive gaussians,     8 cartesian basis functions
     5 alpha electrons        5 beta electrons
       nuclear repulsion energy        23.5057325164 Hartrees.
 Integral buffers will be    262144 words long.
 Regular integral format.
 Two-electron integral symmetry is turned off.
 Do NDO integrals.
 One-electron integrals computed using PRISM.
 NBasis=     8 RedAO= T EigKep=  2.00D+00  NBF=     4     0     2     2
 NBsUse=     8 1.00D-06 EigRej= -1.00D+00 NBFU=     4     0     2     2
 Simple Huckel Guess.
 Initial guess orbital symmetries:
       Occupied  (SG) (SG) (PI) (PI) (SG)
       Virtual   (PI) (PI) (SG)
 The electronic state of the initial guess is 1-SG.
 Overlap will be assumed to be unity.
 Keep J ints in memory in canonical form, NReq=876995.
 Requested convergence on RMS density matrix=1.00D-08 within 128 cycles.
 Requested convergence on MAX density matrix=1.00D-06.
 Requested convergence on             energy=1.00D-06.
 No special actions if energy rises.
 Fock symm off for IB=3 I1=    1 I=    5 J=    2 Cut=1.00D-07 Err=1.21D-02
 Fock matrix is not symmetric: symmetry in diagonalization turned off.
 SCF Done:  E(RPM6) = -0.218012026980E-01 A.U. after    9 cycles
            NFock=  8  Conv=0.71D-08     -V/T= 0.9953

 **********************************************************************

            Population analysis using the SCF density.

 **********************************************************************

 Orbital symmetries:
       Occupied  (SG) (SG) (PI) (PI) (SG)
       Virtual   (PI) (PI) (SG)
 The electronic state is 1-SG.
 Alpha  occ. eigenvalues --   -1.24682  -0.73787  -0.57823  -0.57823  -0.44172
 Alpha virt. eigenvalues --    0.04352   0.04352   0.19056
          Condensed to atoms (all electrons):
               1          2
     1  C    3.674871   0.000000
     2  O    0.000000   6.325129
 Mulliken charges:
               1
     1  C    0.325129
     2  O   -0.325129
 Sum of Mulliken charges =   0.00000
 Mulliken charges with hydrogens summed into heavy atoms:
               1
     1  C    0.325129
     2  O   -0.325129
 Charge=              0.0000 electrons
 Dipole moment (field-independent basis, Debye):
    X=              0.0000    Y=              0.0000    Z=             -0.1725  Tot=              0.1725
 N-N= 2.350573251641D+01 E-N=-3.522169442670D+01  KE=-4.667621389487D+00
 Symmetry A1   KE=-3.416241098159D+00
 Symmetry A2   KE= 0.000000000000D+00
 Symmetry B1   KE=-6.256901456641D-01
 Symmetry B2   KE=-6.256901456641D-01
 Calling FoFJK, ICntrl=      2127 FMM=F ISym2X=1 I1Cent= 0 IOpClX= 0 NMat=1 NMatS=1 NMatT=0.
 ***** Axes restored to original set *****
 -------------------------------------------------------------------
 Center     Atomic                   Forces (Hartrees/Bohr)
 Number     Number              X              Y              Z
 -------------------------------------------------------------------
      1        6          -0.000000569   -0.000008336   -0.000002493
      2        8           0.000000569    0.000008336    0.000002493
 -------------------------------------------------------------------
 Cartesian Forces:  Max     0.000008336 RMS     0.000005034

 GradGradGradGradGradGradGradGradGradGradGradGradGradGradGradGradGradGrad
 Berny optimization.
 FormGI is forming the generalized inverse of G from B-inverse, IUseBI=4.
 Internal  Forces:  Max     0.000008719 RMS     0.000008719
 Search for a local minimum.
 Step number   1 out of a maximum of   20
 All quantities printed in internal units (Hartrees-Bohrs-Radians)
 Mixed Optimization -- En-DIIS/RFO-DIIS
 Second derivative matrix not updated -- first step.
 The second derivative matrix:
                          R1
           R1           1.42106
 ITU=  0
     Eigenvalues ---    1.42106
 RFO step:  Lambda=-5.34960964D-11 EMin= 1.42105570D+00
 Linear search not attempted -- first point.
 Iteration  1 RMS(Cart)=  0.00000434 RMS(Int)=  0.00000000
 Iteration  2 RMS(Cart)=  0.00000000 RMS(Int)=  0.00000000
 ClnCor:  largest displacement from symmetrization is 5.40D-16 for atom     1.
 Variable       Old X    -DE/DX   Delta X   Delta X   Delta X     New X
                                 (Linear)    (Quad)   (Total)
    R1        2.15359  -0.00001   0.00000  -0.00001  -0.00001   2.15359
         Item               Value     Threshold  Converged?
 Maximum Force            0.000009     0.000450     YES
 RMS     Force            0.000009     0.000300     YES
 Maximum Displacement     0.000003     0.001800     YES
 RMS     Displacement     0.000004     0.001200     YES
 Predicted change in Energy=-2.674806D-11
 Optimization completed.
    -- Stationary point found.
                           ----------------------------
                           !   Optimized Parameters   !
                           ! (Angstroms and Degrees)  !
 --------------------------                            --------------------------
 ! Name  Definition              Value          Derivative Info.                !
 --------------------------------------------------------------------------------
 ! R1    R(1,2)                  1.1396         -DE/DX =    0.0                 !
 --------------------------------------------------------------------------------
 GradGradGradGradGradGradGradGradGradGradGradGradGradGradGradGradGradGrad

                          Input orientation:                          
 ---------------------------------------------------------------------
 Center     Atomic      Atomic             Coordinates (Angstroms)
 Number     Number       Type             X           Y           Z
 ---------------------------------------------------------------------
      1          6           0       -0.220193    0.939850    0.000000
      2          8           0       -0.294550   -0.149668   -0.325862
 ---------------------------------------------------------------------
 Stoichiometry    CO
 Framework group  C*V[C*(CO)]
 Deg. of freedom     1
 Full point group                 C*V     NOp   4
 Largest Abelian subgroup         C2V     NOp   4
 Largest concise Abelian subgroup C1      NOp   1
                         Standard orientation:                         
 ---------------------------------------------------------------------
 Center     Atomic      Atomic             Coordinates (Angstroms)
 Number     Number       Type             X           Y           Z
 ---------------------------------------------------------------------
      1          6           0        0.000000    0.000000   -0.651219
      2          8           0        0.000000    0.000000    0.488414
 ---------------------------------------------------------------------
 Rotational constants (GHZ):      0.0000000     56.7548931     56.7548931
 1|1|UNPC-AHELI-09|FOpt|RPM6|ZDO|C1O1|USER|08-Jul-2025|0||# opt freq pm
 6 geom=connectivity temperature=298||CO_semi_25||0,1|C,-0.22019335,0.9
 3984961,0.|O,-0.29455012,-0.14966777,-0.32586164||Version=IA32W-G09Rev
 D.01|State=1-SG|HF=-0.0218012|RMSD=7.126e-009|RMSF=5.034e-006|Dipole=0
 .0044289,0.0648949,0.0194093|PG=C*V [C*(C1O1)]||@


 WERE I TO AWAIT PERFECTION, MY BOOK WOULD NEVER BE FINISHED.
                                    -- HISTORY OF CHINESE WRITING

                                       TAI T'UNG, 13TH CENTURY
 Job cpu time:       0 days  0 hours  0 minutes  0.0 seconds.
 File lengths (MBytes):  RWF=      5 Int=      0 D2E=      0 Chk=      1 Scr=      1
 Normal termination of Gaussian 09 at Tue Jul 08 23:29:52 2025.
 Link1:  Proceeding to internal job step number  2.
 -------------------------------------------------------------
 #N Geom=AllCheck Guess=TCheck SCRF=Check GenChk RPM6/ZDO Freq
 -------------------------------------------------------------
 1/10=4,29=7,30=1,38=1,40=1,112=298000/1,3;
 2/12=2,40=1/2;
 3/5=2,14=-4,16=1,25=1,41=3900000,70=2,71=2,116=1,135=40,140=1/1,2,3;
 4/5=101,35=1/1;
 5/5=2,35=1,98=1/2;
 8/6=4,10=90,11=11/1;
 11/6=1,8=1,9=11,15=111,16=1/1,2,10;
 10/6=1/2;
 6/7=2,8=2,9=2,10=2,18=1,28=1/1;
 7/8=1,10=1,25=1/1,2,3,16;
 1/10=4,30=1/3;
 99//99;
 Structure from the checkpoint file:  "C:\Gaussian\CO_semi_25.chk"
 ----------
 CO_semi_25
 ----------
 Charge =  0 Multiplicity = 1
 Redundant internal coordinates found in file.
 C,0,-0.22019335,0.93984961,0.
 O,0,-0.29455012,-0.14966777,-0.32586164
 Recover connectivity data from disk.

 GradGradGradGradGradGradGradGradGradGradGradGradGradGradGradGradGradGrad
 Berny optimization.
 Initialization pass.
                           ----------------------------
                           !    Initial Parameters    !
                           ! (Angstroms and Degrees)  !
 --------------------------                            --------------------------
 ! Name  Definition              Value          Derivative Info.                !
 --------------------------------------------------------------------------------
 ! R1    R(1,2)                  1.1396         calculate D2E/DX2 analytically  !
 --------------------------------------------------------------------------------
 Trust Radius=3.00D-01 FncErr=1.00D-07 GrdErr=1.00D-07
 Number of steps in this run=      2 maximum allowed number of steps=      2.
 GradGradGradGradGradGradGradGradGradGradGradGradGradGradGradGradGradGrad

                          Input orientation:                          
 ---------------------------------------------------------------------
 Center     Atomic      Atomic             Coordinates (Angstroms)
 Number     Number       Type             X           Y           Z
 ---------------------------------------------------------------------
      1          6           0       -0.220193    0.939850    0.000000
      2          8           0       -0.294550   -0.149668   -0.325862
 ---------------------------------------------------------------------
 Stoichiometry    CO
 Framework group  C*V[C*(CO)]
 Deg. of freedom     1
 Full point group                 C*V     NOp   4
 Largest Abelian subgroup         C2V     NOp   4
 Largest concise Abelian subgroup C1      NOp   1
                         Standard orientation:                         
 ---------------------------------------------------------------------
 Center     Atomic      Atomic             Coordinates (Angstroms)
 Number     Number       Type             X           Y           Z
 ---------------------------------------------------------------------
      1          6           0        0.000000    0.000000   -0.651219
      2          8           0        0.000000    0.000000    0.488414
 ---------------------------------------------------------------------
 Rotational constants (GHZ):      0.0000000     56.7548931     56.7548931
 Standard basis: VSTO-6G (5D, 7F)
 There are     4 symmetry adapted cartesian basis functions of A1  symmetry.
 There are     0 symmetry adapted cartesian basis functions of A2  symmetry.
 There are     2 symmetry adapted cartesian basis functions of B1  symmetry.
 There are     2 symmetry adapted cartesian basis functions of B2  symmetry.
 There are     4 symmetry adapted basis functions of A1  symmetry.
 There are     0 symmetry adapted basis functions of A2  symmetry.
 There are     2 symmetry adapted basis functions of B1  symmetry.
 There are     2 symmetry adapted basis functions of B2  symmetry.
     8 basis functions,    48 primitive gaussians,     8 cartesian basis functions
     5 alpha electrons        5 beta electrons
       nuclear repulsion energy        23.5057325164 Hartrees.
 Integral buffers will be    262144 words long.
 Regular integral format.
 Two-electron integral symmetry is turned off.
 Do NDO integrals.
 One-electron integrals computed using PRISM.
 NBasis=     8 RedAO= T EigKep=  2.00D+00  NBF=     4     0     2     2
 NBsUse=     8 1.00D-06 EigRej= -1.00D+00 NBFU=     4     0     2     2
 Initial guess from the checkpoint file:  "C:\Gaussian\CO_semi_25.chk"
 B after Tr=     0.000000    0.000000    0.000000
         Rot=    1.000000    0.000000    0.000000    0.000000 Ang=   0.00 deg.
 Initial guess orbital symmetries:
       Occupied  (SG) (SG) (PI) (PI) (SG)
       Virtual   (PI) (PI) (SG)
 Overlap will be assumed to be unity.
 Keep J ints in memory in canonical form, NReq=876995.
 Requested convergence on RMS density matrix=1.00D-08 within 128 cycles.
 Requested convergence on MAX density matrix=1.00D-06.
 Requested convergence on             energy=1.00D-06.
 No special actions if energy rises.
 An orbital has undefined symmetry, so N**3 symmetry is turned off.
 SCF Done:  E(RPM6) = -0.218012026980E-01 A.U. after    2 cycles
            NFock=  1  Conv=0.75D-10     -V/T= 0.9953
 Range of M.O.s used for correlation:     1     8
 NBasis=     8 NAE=     5 NBE=     5 NFC=     0 NFV=     0
 NROrb=      8 NOA=     5 NOB=     5 NVA=     3 NVB=     3
 Symmetrizing basis deriv contribution to polar:
 IMax=3 JMax=2 DiffMx= 0.00D+00
 G2DrvN: will do     3 centers at a time, making    1 passes.
 Calling FoFCou, ICntrl=  3107 FMM=F I1Cent=   0 AccDes= 0.00D+00.
 End of G2Drv F.D. properties file   721 does not exist.
 End of G2Drv F.D. properties file   722 does not exist.
 End of G2Drv F.D. properties file   788 does not exist.
          IDoAtm=11
          Differentiating once with respect to electric field.
                with respect to dipole field.
          Differentiating once with respect to nuclear coordinates.
          Electric field/nuclear overlap derivatives assumed to be zero.
 Keep J ints in memory in canonical form, NReq=858061.
          There are     9 degrees of freedom in the 1st order CPHF.  IDoFFX=5 NUNeed=     9.
 LinEq1:  Iter=  0 NonCon=     9 RMS=5.94D-01 Max=1.46D+00 NDo=     9
 AX will form     9 AO Fock derivatives at one time.
 LinEq1:  Iter=  1 NonCon=     9 RMS=9.60D-02 Max=3.01D-01 NDo=     9
 LinEq1:  Iter=  2 NonCon=     9 RMS=8.25D-03 Max=2.69D-02 NDo=     9
 LinEq1:  Iter=  3 NonCon=     9 RMS=2.88D-04 Max=1.10D-03 NDo=     9
 LinEq1:  Iter=  4 NonCon=     0 RMS=1.68D-15 Max=4.56D-15 NDo=     9
 Linear equations converged to 1.000D-08 1.000D-07 after     4 iterations.
 Isotropic polarizability for W=    0.000000        9.38 Bohr**3.
 End of Minotr F.D. properties file   721 does not exist.
 End of Minotr F.D. properties file   722 does not exist.
 End of Minotr F.D. properties file   788 does not exist.

 **********************************************************************

            Population analysis using the SCF density.

 **********************************************************************

 Orbital symmetries:
       Occupied  (SG) (SG) (PI) (PI) (SG)
       Virtual   (PI) (PI) (SG)
 The electronic state is 1-SG.
 Alpha  occ. eigenvalues --   -1.24682  -0.73787  -0.57823  -0.57823  -0.44172
 Alpha virt. eigenvalues --    0.04352   0.04352   0.19056
          Condensed to atoms (all electrons):
               1          2
     1  C    3.674871   0.000000
     2  O    0.000000   6.325129
 Mulliken charges:
               1
     1  C    0.325129
     2  O   -0.325129
 Sum of Mulliken charges =   0.00000
 Mulliken charges with hydrogens summed into heavy atoms:
               1
     1  C    0.325129
     2  O   -0.325129
 APT charges:
               1
     1  C    0.487600
     2  O   -0.487600
 Sum of APT charges =   0.00000
 APT charges with hydrogens summed into heavy atoms:
               1
     1  C    0.487600
     2  O   -0.487600
 Charge=              0.0000 electrons
 Dipole moment (field-independent basis, Debye):
    X=              0.0000    Y=              0.0000    Z=             -0.1725  Tot=              0.1725
 N-N= 2.350573251641D+01 E-N=-3.522169442627D+01  KE=-4.667621389674D+00
 Symmetry A1   KE=-3.416241098188D+00
 Symmetry A2   KE= 0.000000000000D+00
 Symmetry B1   KE=-6.256901457430D-01
 Symmetry B2   KE=-6.256901457430D-01
  Exact polarizability:   4.871   0.000   4.871   0.000   0.000  18.405
 Approx polarizability:   2.248   0.000   2.248   0.000   0.000  13.497
 Calling FoFJK, ICntrl=    100127 FMM=F ISym2X=1 I1Cent= 0 IOpClX= 0 NMat=1 NMatS=1 NMatT=0.
 Full mass-weighted force constant matrix:
 Low frequencies ---    0.0000    0.0000    0.0000    3.9501    3.9501 2052.1311
 Diagonal vibrational polarizability:
        0.0000000       0.0000000       1.7803175
 Harmonic frequencies (cm**-1), IR intensities (KM/Mole), Raman scattering
 activities (A**4/AMU), depolarization ratios for plane and unpolarized
 incident light, reduced masses (AMU), force constants (mDyne/A),
 and normal coordinates:
                      1
                     SG
 Frequencies --   2052.1311
 Red. masses --     13.4388
 Frc consts  --     33.3441
 IR Inten    --    278.5958
  Atom  AN      X      Y      Z
     1   6     0.00   0.00   0.80
     2   8     0.00   0.00  -0.60

 -------------------
 - Thermochemistry -
 -------------------
 Temperature   298.000 Kelvin.  Pressure   1.00000 Atm.
 Atom     1 has atomic number  6 and mass  12.00000
 Atom     2 has atomic number  8 and mass  15.99491
 Molecular mass:    27.99491 amu.
 Principal axes and moments of inertia in atomic units:
                           1         2         3
     Eigenvalues --     0.00000  31.79887  31.79887
           X            0.00000   0.92567  -0.37834
           Y            0.00000   0.37834   0.92567
           Z            1.00000   0.00000   0.00000
 This molecule is a prolate symmetric top.
 Rotational symmetry number  1.
 Rotational temperature (Kelvin)      2.72380
 Rotational constant (GHZ):          56.754893
 Zero-point vibrational energy      12274.5 (Joules/Mol)
                                    2.93367 (Kcal/Mol)
 Vibrational temperatures:   2952.56
          (Kelvin)
 
 Zero-point correction=                           0.004675 (Hartree/Particle)
 Thermal correction to Energy=                    0.007035
 Thermal correction to Enthalpy=                  0.007979
 Thermal correction to Gibbs Free Energy=        -0.014455
 Sum of electronic and zero-point Energies=             -0.017126
 Sum of electronic and thermal Energies=                -0.014766
 Sum of electronic and thermal Enthalpies=              -0.013823
 Sum of electronic and thermal Free Energies=           -0.036256
 
                     E (Thermal)             CV                S
                      KCal/Mol        Cal/Mol-Kelvin    Cal/Mol-Kelvin
 Total                    4.414              4.978             47.239
 Electronic               0.000              0.000              0.000
 Translational            0.888              2.981             35.921
 Rotational               0.592              1.987             11.317
 Vibrational              2.934              0.010              0.001
                       Q            Log10(Q)             Ln(Q)
 Total Bot       0.448865D+07          6.652116         15.317063
 Total V=0       0.636194D+09          8.803590         20.271015
 Vib (Bot)       0.705582D-02         -2.151452         -4.953902
 Vib (V=0)       0.100005D+01          0.000022          0.000050
 Electronic      0.100000D+01          0.000000          0.000000
 Translational   0.581470D+07          6.764528         15.575900
 Rotational      0.109406D+03          2.039041          4.695065
 ***** Axes restored to original set *****
 -------------------------------------------------------------------
 Center     Atomic                   Forces (Hartrees/Bohr)
 Number     Number              X              Y              Z
 -------------------------------------------------------------------
      1        6          -0.000000569   -0.000008335   -0.000002493
      2        8           0.000000569    0.000008335    0.000002493
 -------------------------------------------------------------------
 Cartesian Forces:  Max     0.000008335 RMS     0.000005034
 FormGI is forming the generalized inverse of G from B-inverse, IUseBI=4.

 GradGradGradGradGradGradGradGradGradGradGradGradGradGradGradGradGradGrad
 Berny optimization.
 Internal  Forces:  Max     0.000008719 RMS     0.000008719
 Search for a local minimum.
 Step number   1 out of a maximum of    2
 All quantities printed in internal units (Hartrees-Bohrs-Radians)
 Second derivative matrix not updated -- analytic derivatives used.
 The second derivative matrix:
                          R1
           R1           1.09266
 ITU=  0
     Eigenvalues ---    1.09266
 Angle between quadratic step and forces=   0.00 degrees.
 Linear search not attempted -- first point.
 Iteration  1 RMS(Cart)=  0.00000564 RMS(Int)=  0.00000000
 Iteration  2 RMS(Cart)=  0.00000000 RMS(Int)=  0.00000000
 ClnCor:  largest displacement from symmetrization is 6.77D-16 for atom     1.
 Variable       Old X    -DE/DX   Delta X   Delta X   Delta X     New X
                                 (Linear)    (Quad)   (Total)
    R1        2.15359  -0.00001   0.00000  -0.00001  -0.00001   2.15359
         Item               Value     Threshold  Converged?
 Maximum Force            0.000009     0.000450     YES
 RMS     Force            0.000009     0.000300     YES
 Maximum Displacement     0.000004     0.001800     YES
 RMS     Displacement     0.000006     0.001200     YES
 Predicted change in Energy=-3.478631D-11
 Optimization completed.
    -- Stationary point found.
                           ----------------------------
                           !   Optimized Parameters   !
                           ! (Angstroms and Degrees)  !
 --------------------------                            --------------------------
 ! Name  Definition              Value          Derivative Info.                !
 --------------------------------------------------------------------------------
 ! R1    R(1,2)                  1.1396         -DE/DX =    0.0                 !
 --------------------------------------------------------------------------------
 GradGradGradGradGradGradGradGradGradGradGradGradGradGradGradGradGradGrad

 1|1|UNPC-AHELI-09|Freq|RPM6|ZDO|C1O1|USER|08-Jul-2025|0||#N Geom=AllCh
 eck Guess=TCheck SCRF=Check GenChk RPM6/ZDO Freq||CO_semi_25||0,1|C,-0
 .22019335,0.93984961,0.|O,-0.29455012,-0.14966777,-0.32586164||Version
 =IA32W-G09RevD.01|State=1-SG|HF=-0.0218012|RMSD=7.473e-011|RMSF=5.034e
 -006|ZeroPoint=0.0046751|Thermal=0.0070348|Dipole=0.0044289,0.0648949,
 0.0194093|DipoleDeriv=0.037344,0.0853468,0.0255262,0.0853468,1.2820693
 ,0.3740245,0.0255262,0.3740245,0.1433856,-0.037344,-0.0853468,-0.02552
 62,-0.0853468,-1.2820693,-0.3740245,-0.0255262,-0.3740245,-0.1433856|P
 olar=4.9288442,0.8441938,17.2408337,0.2524883,3.6996007,5.9777366|Hype
 rPolar=-5.0760114,-24.4660466,5.4652299,30.1690959,-7.3175024,2.143971
 8,23.9508624,-1.0618968,-15.5595117,-19.5813102|PG=C*V [C*(C1O1)]|NIma
 g=0||0.00465557,0.06815675,0.99867527,0.02038487,0.29869064,0.08933885
 ,-0.00465557,-0.06815675,-0.02038487,0.00465557,-0.06815675,-0.9986752
 7,-0.29869064,0.06815675,0.99867527,-0.02038487,-0.29869064,-0.0893388
 5,0.02038487,0.29869064,0.08933885||0.00000057,0.00000834,0.00000249,-
 0.00000057,-0.00000834,-0.00000249|||@


 WERE I TO AWAIT PERFECTION, MY BOOK WOULD NEVER BE FINISHED.
                                    -- HISTORY OF CHINESE WRITING

                                       TAI T'UNG, 13TH CENTURY
 Job cpu time:       0 days  0 hours  0 minutes  1.0 seconds.
 File lengths (MBytes):  RWF=      5 Int=      0 D2E=      0 Chk=      1 Scr=      1
 Normal termination of Gaussian 09 at Tue Jul 08 23:29:53 2025.
