 Entering Link 1 = C:\Gaussian\G09W\l1.exe PID=      6208.
  
 Copyright (c) 1988,1990,1992,1993,1995,1998,2003,2009,2013,
            Gaussian, Inc.  All Rights Reserved.
  
 This is part of the Gaussian(R) 09 program.  It is based on
 the Gaussian(R) 03 system (copyright 2003, Gaussian, Inc.),
 the Gaussian(R) 98 system (copyright 1998, Gaussian, Inc.),
 the Gaussian(R) 94 system (copyright 1995, Gaussian, Inc.),
 the Gaussian 92(TM) system (copyright 1992, Gaussian, Inc.),
 the Gaussian 90(TM) system (copyright 1990, Gaussian, Inc.),
 the Gaussian 88(TM) system (copyright 1988, Gaussian, Inc.),
 the Gaussian 86(TM) system (copyright 1986, Carnegie Mellon
 University), and the Gaussian 82(TM) system (copyright 1983,
 Carnegie Mellon University). Gaussian is a federally registered
 trademark of Gaussian, Inc.
  
 This software contains proprietary and confidential information,
 including trade secrets, belonging to Gaussian, Inc.
  
 This software is provided under written license and may be
 used, copied, transmitted, or stored only in accord with that
 written license.
  
 The following legend is applicable only to US Government
 contracts under FAR:
  
                    RESTRICTED RIGHTS LEGEND
  
 Use, reproduction and disclosure by the US Government is
 subject to restrictions as set forth in subparagraphs (a)
 and (c) of the Commercial Computer Software - Restricted
 Rights clause in FAR 52.227-19.
  
 Gaussian, Inc.
 340 Quinnipiac St., Bldg. 40, Wallingford CT 06492
  
  
 ---------------------------------------------------------------
 Warning -- This program may not be used in any manner that
 competes with the business of Gaussian, Inc. or will provide
 assistance to any competitor of Gaussian, Inc.  The licensee
 of this program is prohibited from giving any competitor of
 Gaussian, Inc. access to this program.  By using this program,
 the user acknowledges that Gaussian, Inc. is engaged in the
 business of creating and licensing software in the field of
 computational chemistry and represents and warrants to the
 licensee that it is not a competitor of Gaussian, Inc. and that
 it will not use this program in any manner prohibited above.
 ---------------------------------------------------------------
  

 Cite this work as:
 Gaussian 09, Revision D.01,
 M. J. Frisch, G. W. Trucks, H. B. Schlegel, G. E. Scuseria, 
 M. A. Robb, J. R. Cheeseman, G. Scalmani, V. Barone, B. Mennucci, 
 G. A. Petersson, H. Nakatsuji, M. Caricato, X. Li, H. P. Hratchian, 
 A. F. Izmaylov, J. Bloino, G. Zheng, J. L. Sonnenberg, M. Hada, 
 M. Ehara, K. Toyota, R. Fukuda, J. Hasegawa, M. Ishida, T. Nakajima, 
 Y. Honda, O. Kitao, H. Nakai, T. Vreven, J. A. Montgomery, Jr., 
 J. E. Peralta, F. Ogliaro, M. Bearpark, J. J. Heyd, E. Brothers, 
 K. N. Kudin, V. N. Staroverov, T. Keith, R. Kobayashi, J. Normand, 
 K. Raghavachari, A. Rendell, J. C. Burant, S. S. Iyengar, J. Tomasi, 
 M. Cossi, N. Rega, J. M. Millam, M. Klene, J. E. Knox, J. B. Cross, 
 V. Bakken, C. Adamo, J. Jaramillo, R. Gomperts, R. E. Stratmann, 
 O. Yazyev, A. J. Austin, R. Cammi, C. Pomelli, J. W. Ochterski, 
 R. L. Martin, K. Morokuma, V. G. Zakrzewski, G. A. Voth, 
 P. Salvador, J. J. Dannenberg, S. Dapprich, A. D. Daniels, 
 O. Farkas, J. B. Foresman, J. V. Ortiz, J. Cioslowski, 
 and D. J. Fox, Gaussian, Inc., Wallingford CT, 2013.
 
 ******************************************
 Gaussian 09:  IA32W-G09RevD.01 24-Apr-2013
                10-Mar-2026 
 ******************************************
 %chk=C:\Users\User\Downloads\CO2_opt+freq.chk
 --------------------------------
 # opt freq pm6 geom=connectivity
 --------------------------------
 1/14=-1,18=20,19=15,26=1,38=1,57=2/1,3;
 2/9=110,12=2,17=6,18=5,40=1/2;
 3/5=2,16=1,25=1,41=3900000,71=1/1,2,3;
 4/35=1/1;
 5/5=2,35=1,38=5/2;
 6/7=2,8=2,9=2,10=2,28=1/1;
 7//1,2,3,16;
 1/14=-1,18=20,19=15,26=1/3(2);
 2/9=110/2;
 99//99;
 2/9=110/2;
 3/5=2,16=1,25=1,41=3900000,71=1,135=20/1,2,3;
 4/5=5,16=3,35=1/1;
 5/5=2,35=1,38=5/2;
 7//1,2,3,16;
 1/14=-1,18=20,19=15,26=1/3(-5);
 2/9=110/2;
 6/7=2,8=2,9=2,10=2,19=2,28=1/1;
 99/9=1/99;
 ------------
 CO2_opt+freq
 ------------
 Symbolic Z-matrix:
 Charge =  0 Multiplicity = 1
 C                    -1.17089   0.40084   0. 
 O                    -1.99384  -0.42386   0.1098 
 O                    -0.34793   1.22554  -0.1098 
 

 GradGradGradGradGradGradGradGradGradGradGradGradGradGradGradGradGradGrad
 Berny optimization.
 Initialization pass.
                           ----------------------------
                           !    Initial Parameters    !
                           ! (Angstroms and Degrees)  !
 --------------------------                            --------------------------
 ! Name  Definition              Value          Derivative Info.                !
 --------------------------------------------------------------------------------
 ! R1    R(1,2)                  1.1702         estimate D2E/DX2                !
 ! R2    R(1,3)                  1.1702         estimate D2E/DX2                !
 ! A1    L(2,1,3,-3,-1)        180.0            estimate D2E/DX2                !
 ! A2    L(2,1,3,-1,-2)        180.0            estimate D2E/DX2                !
 --------------------------------------------------------------------------------
 Trust Radius=3.00D-01 FncErr=1.00D-07 GrdErr=1.00D-07
 Number of steps in this run=     20 maximum allowed number of steps=    100.
 GradGradGradGradGradGradGradGradGradGradGradGradGradGradGradGradGradGrad

                          Input orientation:                          
 ---------------------------------------------------------------------
 Center     Atomic      Atomic             Coordinates (Angstroms)
 Number     Number       Type             X           Y           Z
 ---------------------------------------------------------------------
      1          6           0       -1.170886    0.400844    0.000000
      2          8           0       -1.993842   -0.423855    0.109795
      3          8           0       -0.347930    1.225543   -0.109795
 ---------------------------------------------------------------------
                    Distance matrix (angstroms):
                    1          2          3
     1  C    0.000000
     2  O    1.170231   0.000000
     3  O    1.170231   2.340462   0.000000
 Stoichiometry    CO2
 Framework group  D*H[O(C),C*(O.O)]
 Deg. of freedom     1
 Full point group                 D*H     NOp   8
 Largest Abelian subgroup         D2H     NOp   8
 Largest concise Abelian subgroup C2      NOp   2
                         Standard orientation:                         
 ---------------------------------------------------------------------
 Center     Atomic      Atomic             Coordinates (Angstroms)
 Number     Number       Type             X           Y           Z
 ---------------------------------------------------------------------
      1          6           0        0.000000    0.000000    0.000000
      2          8           0        0.000000    0.000000    1.170231
      3          8           0        0.000000    0.000000   -1.170231
 ---------------------------------------------------------------------
 Rotational constants (GHZ):      0.0000000     11.5361795     11.5361795
 Standard basis: VSTO-6G (5D, 7F)
 There are     3 symmetry adapted cartesian basis functions of AG  symmetry.
 There are     0 symmetry adapted cartesian basis functions of B1G symmetry.
 There are     1 symmetry adapted cartesian basis functions of B2G symmetry.
 There are     1 symmetry adapted cartesian basis functions of B3G symmetry.
 There are     0 symmetry adapted cartesian basis functions of AU  symmetry.
 There are     3 symmetry adapted cartesian basis functions of B1U symmetry.
 There are     2 symmetry adapted cartesian basis functions of B2U symmetry.
 There are     2 symmetry adapted cartesian basis functions of B3U symmetry.
 There are     3 symmetry adapted basis functions of AG  symmetry.
 There are     0 symmetry adapted basis functions of B1G symmetry.
 There are     1 symmetry adapted basis functions of B2G symmetry.
 There are     1 symmetry adapted basis functions of B3G symmetry.
 There are     0 symmetry adapted basis functions of AU  symmetry.
 There are     3 symmetry adapted basis functions of B1U symmetry.
 There are     2 symmetry adapted basis functions of B2U symmetry.
 There are     2 symmetry adapted basis functions of B3U symmetry.
    12 basis functions,    72 primitive gaussians,    12 cartesian basis functions
     8 alpha electrons        8 beta electrons
       nuclear repulsion energy        49.3467427013 Hartrees.
 Integral buffers will be    262144 words long.
 Regular integral format.
 Two-electron integral symmetry is turned off.
 Do NDO integrals.
 One-electron integrals computed using PRISM.
 NBasis=    12 RedAO= T EigKep=  1.41D+00  NBF=     3     0     1     1     0     3     2     2
 NBsUse=    12 1.00D-06 EigRej= -1.00D+00 NBFU=     3     0     1     1     0     3     2     2
 Simple Huckel Guess.
 Initial guess orbital symmetries:
       Occupied  (SGG) (SGU) (PIU) (PIU) (SGG) (SGU) (PIG) (PIG)
       Virtual   (PIU) (PIU) (SGG) (SGU)
 The electronic state of the initial guess is 1-SGG.
 Overlap will be assumed to be unity.
 Keep J ints in memory in canonical form, NReq=877928.
 Requested convergence on RMS density matrix=1.00D-08 within 128 cycles.
 Requested convergence on MAX density matrix=1.00D-06.
 Requested convergence on             energy=1.00D-06.
 No special actions if energy rises.
 Fock symm off for IB=6 I1=    1 I=    6 J=    1 Cut=1.00D-07 Err=8.82D-05
 Fock matrix is not symmetric: symmetry in diagonalization turned off.
 SCF Done:  E(RPM6) = -0.135013082484     A.U. after   10 cycles
            NFock=  9  Conv=0.89D-08     -V/T= 0.9822

 **********************************************************************

            Population analysis using the SCF density.

 **********************************************************************

 Orbital symmetries:
       Occupied  (SGU) (SGG) (SGG) (PIU) (PIU) (SGU) (PIG) (PIG)
       Virtual   (PIU) (PIU) (SGG) (SGU)
 The electronic state is 1-SGG.
 Alpha  occ. eigenvalues --   -1.30665  -1.23776  -0.79135  -0.66416  -0.66416
 Alpha  occ. eigenvalues --   -0.60513  -0.47745  -0.47745
 Alpha virt. eigenvalues --    0.00920   0.00920   0.04183   0.14309
          Condensed to atoms (all electrons):
               1          2          3
     1  C    3.360765   0.000000   0.000000
     2  O    0.000000   6.319618   0.000000
     3  O    0.000000   0.000000   6.319618
 Mulliken charges:
               1
     1  C    0.639235
     2  O   -0.319618
     3  O   -0.319618
 Sum of Mulliken charges =   0.00000
 Mulliken charges with hydrogens summed into heavy atoms:
               1
     1  C    0.639235
     2  O   -0.319618
     3  O   -0.319618
 Charge=              0.0000 electrons
 Dipole moment (field-independent basis, Debye):
    X=              0.0000    Y=              0.0000    Z=              0.0000  Tot=              0.0000
 N-N= 4.934674270132D+01 E-N=-7.891331324866D+01  KE=-7.601980347168D+00
 Symmetry AG   KE=-2.827565912997D+00
 Symmetry B1G  KE= 0.000000000000D+00
 Symmetry B2G  KE=-3.750579986803D-01
 Symmetry B3G  KE=-3.750579986803D-01
 Symmetry AU   KE= 0.000000000000D+00
 Symmetry B1U  KE=-2.430998556014D+00
 Symmetry B2U  KE=-7.966499403982D-01
 Symmetry B3U  KE=-7.966499403982D-01
 Calling FoFJK, ICntrl=      2127 FMM=F ISym2X=1 I1Cent= 0 IOpClX= 0 NMat=1 NMatS=1 NMatT=0.
 ***** Axes restored to original set *****
 -------------------------------------------------------------------
 Center     Atomic                   Forces (Hartrees/Bohr)
 Number     Number              X              Y              Z
 -------------------------------------------------------------------
      1        6           0.000000000    0.000000000    0.000000000
      2        8           0.000025873    0.000025928   -0.000003452
      3        8          -0.000025873   -0.000025928    0.000003452
 -------------------------------------------------------------------
 Cartesian Forces:  Max     0.000025928 RMS     0.000017343

 GradGradGradGradGradGradGradGradGradGradGradGradGradGradGradGradGradGrad
 Berny optimization.
 FormGI is forming the generalized inverse of G from B-inverse, IUseBI=4.
 Internal  Forces:  Max     0.000036791 RMS     0.000026015
 Search for a local minimum.
 Step number   1 out of a maximum of   20
 All quantities printed in internal units (Hartrees-Bohrs-Radians)
 Mixed Optimization -- En-DIIS/RFO-DIIS
 Second derivative matrix not updated -- first step.
 The second derivative matrix:
                          R1        R2        A1        A2
           R1           1.21326
           R2           0.00000   1.21326
           A1           0.00000   0.00000   0.04731
           A2           0.00000   0.00000   0.00000   0.04731
 ITU=  0
     Eigenvalues ---    0.04731   0.04731   1.21326   1.21326
 RFO step:  Lambda= 0.00000000D+00 EMin= 4.73118239D-02
 Linear search not attempted -- first point.
 Iteration  1 RMS(Cart)=  0.00002144 RMS(Int)=  0.00000001
 Iteration  2 RMS(Cart)=  0.00000001 RMS(Int)=  0.00000001
 ClnCor:  largest displacement from symmetrization is 1.82D-08 for atom     1.
 Variable       Old X    -DE/DX   Delta X   Delta X   Delta X     New X
                                 (Linear)    (Quad)   (Total)
    R1        2.21142  -0.00004   0.00000  -0.00003  -0.00003   2.21139
    R2        2.21142  -0.00004   0.00000  -0.00003  -0.00003   2.21139
    A1        3.14159   0.00000   0.00000   0.00000   0.00000   3.14159
    A2        3.14159   0.00000   0.00000   0.00000   0.00000   3.14159
         Item               Value     Threshold  Converged?
 Maximum Force            0.000037     0.000450     YES
 RMS     Force            0.000026     0.000300     YES
 Maximum Displacement     0.000021     0.001800     YES
 RMS     Displacement     0.000021     0.001200     YES
 Predicted change in Energy=-1.115664D-09
 Optimization completed.
    -- Stationary point found.
                           ----------------------------
                           !   Optimized Parameters   !
                           ! (Angstroms and Degrees)  !
 --------------------------                            --------------------------
 ! Name  Definition              Value          Derivative Info.                !
 --------------------------------------------------------------------------------
 ! R1    R(1,2)                  1.1702         -DE/DX =    0.0                 !
 ! R2    R(1,3)                  1.1702         -DE/DX =    0.0                 !
 ! A1    L(2,1,3,-3,-1)        180.0            -DE/DX =    0.0                 !
 ! A2    L(2,1,3,-1,-2)        180.0            -DE/DX =    0.0                 !
 --------------------------------------------------------------------------------
 GradGradGradGradGradGradGradGradGradGradGradGradGradGradGradGradGradGrad

                          Input orientation:                          
 ---------------------------------------------------------------------
 Center     Atomic      Atomic             Coordinates (Angstroms)
 Number     Number       Type             X           Y           Z
 ---------------------------------------------------------------------
      1          6           0       -1.170886    0.400844    0.000000
      2          8           0       -1.993842   -0.423855    0.109795
      3          8           0       -0.347930    1.225543   -0.109795
 ---------------------------------------------------------------------
                    Distance matrix (angstroms):
                    1          2          3
     1  C    0.000000
     2  O    1.170231   0.000000
     3  O    1.170231   2.340462   0.000000
 Stoichiometry    CO2
 Framework group  D*H[O(C),C*(O.O)]
 Deg. of freedom     1
 Full point group                 D*H     NOp   8
 Largest Abelian subgroup         D2H     NOp   8
 Largest concise Abelian subgroup C2      NOp   2
                         Standard orientation:                         
 ---------------------------------------------------------------------
 Center     Atomic      Atomic             Coordinates (Angstroms)
 Number     Number       Type             X           Y           Z
 ---------------------------------------------------------------------
      1          6           0        0.000000    0.000000    0.000000
      2          8           0        0.000000    0.000000    1.170231
      3          8           0        0.000000    0.000000   -1.170231
 ---------------------------------------------------------------------
 Rotational constants (GHZ):      0.0000000     11.5361795     11.5361795
 1|1|UNPC-AHELI-09|FOpt|RPM6|ZDO|C1O2|USER|10-Mar-2026|0||# opt freq pm
 6 geom=connectivity||CO2_opt+freq||0,1|C,-1.1708860936,0.4008438764,0.
 |O,-1.99384225,-0.42385543,0.1097954602|O,-0.3479299373,1.2255431827,-
 0.1097954602||Version=IA32W-G09RevD.01|State=1-SGG|HF=-0.1350131|RMSD=
 8.909e-009|RMSF=1.734e-005|Dipole=0.,0.,0.|PG=D*H [O(C1),C*(O1.O1)]||@


 THE LENGTH OF A MEETING IS PROPORTIONAL TO THE
 SQUARE OF THE PARTICIPANTS.
 Job cpu time:       0 days  0 hours  0 minutes  1.0 seconds.
 File lengths (MBytes):  RWF=      5 Int=      0 D2E=      0 Chk=      1 Scr=      1
 Normal termination of Gaussian 09 at Tue Mar 10 13:14:42 2026.
 Link1:  Proceeding to internal job step number  2.
 -------------------------------------------------------------
 #N Geom=AllCheck Guess=TCheck SCRF=Check GenChk RPM6/ZDO Freq
 -------------------------------------------------------------
 1/10=4,29=7,30=1,38=1,40=1/1,3;
 2/12=2,40=1/2;
 3/5=2,14=-4,16=1,25=1,41=3900000,70=2,71=2,116=1,135=40,140=1/1,2,3;
 4/5=101,35=1/1;
 5/5=2,35=1,98=1/2;
 8/6=4,10=90,11=11/1;
 11/6=1,8=1,9=11,15=111,16=1/1,2,10;
 10/6=1/2;
 6/7=2,8=2,9=2,10=2,18=1,28=1/1;
 7/8=1,10=1,25=1/1,2,3,16;
 1/10=4,30=1/3;
 99//99;
 Structure from the checkpoint file:  "C:\Users\User\Downloads\CO2_opt+freq.chk"
 ------------
 CO2_opt+freq
 ------------
 Charge =  0 Multiplicity = 1
 Redundant internal coordinates found in file.
 C,0,-1.1708860936,0.4008438764,0.
 O,0,-1.99384225,-0.42385543,0.1097954602
 O,0,-0.3479299373,1.2255431827,-0.1097954602
 Recover connectivity data from disk.

 GradGradGradGradGradGradGradGradGradGradGradGradGradGradGradGradGradGrad
 Berny optimization.
 Initialization pass.
                           ----------------------------
                           !    Initial Parameters    !
                           ! (Angstroms and Degrees)  !
 --------------------------                            --------------------------
 ! Name  Definition              Value          Derivative Info.                !
 --------------------------------------------------------------------------------
 ! R1    R(1,2)                  1.1702         calculate D2E/DX2 analytically  !
 ! R2    R(1,3)                  1.1702         calculate D2E/DX2 analytically  !
 ! A1    L(2,1,3,-3,-1)        180.0            calculate D2E/DX2 analytically  !
 ! A2    L(2,1,3,-1,-2)        180.0            calculate D2E/DX2 analytically  !
 --------------------------------------------------------------------------------
 Trust Radius=3.00D-01 FncErr=1.00D-07 GrdErr=1.00D-07
 Number of steps in this run=      2 maximum allowed number of steps=      2.
 GradGradGradGradGradGradGradGradGradGradGradGradGradGradGradGradGradGrad

                          Input orientation:                          
 ---------------------------------------------------------------------
 Center     Atomic      Atomic             Coordinates (Angstroms)
 Number     Number       Type             X           Y           Z
 ---------------------------------------------------------------------
      1          6           0       -1.170886    0.400844    0.000000
      2          8           0       -1.993842   -0.423855    0.109795
      3          8           0       -0.347930    1.225543   -0.109795
 ---------------------------------------------------------------------
                    Distance matrix (angstroms):
                    1          2          3
     1  C    0.000000
     2  O    1.170231   0.000000
     3  O    1.170231   2.340462   0.000000
 Stoichiometry    CO2
 Framework group  D*H[O(C),C*(O.O)]
 Deg. of freedom     1
 Full point group                 D*H     NOp   8
 Largest Abelian subgroup         D2H     NOp   8
 Largest concise Abelian subgroup C2      NOp   2
                         Standard orientation:                         
 ---------------------------------------------------------------------
 Center     Atomic      Atomic             Coordinates (Angstroms)
 Number     Number       Type             X           Y           Z
 ---------------------------------------------------------------------
      1          6           0        0.000000    0.000000    0.000000
      2          8           0        0.000000    0.000000    1.170231
      3          8           0        0.000000    0.000000   -1.170231
 ---------------------------------------------------------------------
 Rotational constants (GHZ):      0.0000000     11.5361795     11.5361795
 Standard basis: VSTO-6G (5D, 7F)
 There are     3 symmetry adapted cartesian basis functions of AG  symmetry.
 There are     0 symmetry adapted cartesian basis functions of B1G symmetry.
 There are     1 symmetry adapted cartesian basis functions of B2G symmetry.
 There are     1 symmetry adapted cartesian basis functions of B3G symmetry.
 There are     0 symmetry adapted cartesian basis functions of AU  symmetry.
 There are     3 symmetry adapted cartesian basis functions of B1U symmetry.
 There are     2 symmetry adapted cartesian basis functions of B2U symmetry.
 There are     2 symmetry adapted cartesian basis functions of B3U symmetry.
 There are     3 symmetry adapted basis functions of AG  symmetry.
 There are     0 symmetry adapted basis functions of B1G symmetry.
 There are     1 symmetry adapted basis functions of B2G symmetry.
 There are     1 symmetry adapted basis functions of B3G symmetry.
 There are     0 symmetry adapted basis functions of AU  symmetry.
 There are     3 symmetry adapted basis functions of B1U symmetry.
 There are     2 symmetry adapted basis functions of B2U symmetry.
 There are     2 symmetry adapted basis functions of B3U symmetry.
    12 basis functions,    72 primitive gaussians,    12 cartesian basis functions
     8 alpha electrons        8 beta electrons
       nuclear repulsion energy        49.3467427013 Hartrees.
 Integral buffers will be    262144 words long.
 Regular integral format.
 Two-electron integral symmetry is turned off.
 Do NDO integrals.
 One-electron integrals computed using PRISM.
 NBasis=    12 RedAO= T EigKep=  1.41D+00  NBF=     3     0     1     1     0     3     2     2
 NBsUse=    12 1.00D-06 EigRej= -1.00D+00 NBFU=     3     0     1     1     0     3     2     2
 Initial guess from the checkpoint file:  "C:\Users\User\Downloads\CO2_opt+freq.chk"
 B after Tr=     0.000000    0.000000    0.000000
         Rot=    1.000000    0.000000    0.000000    0.000000 Ang=   0.00 deg.
 Initial guess orbital symmetries:
       Occupied  (SGU) (SGG) (SGG) (PIU) (PIU) (SGU) (PIG) (PIG)
       Virtual   (PIU) (PIU) (SGG) (SGU)
 Overlap will be assumed to be unity.
 Keep J ints in memory in canonical form, NReq=877928.
 Requested convergence on RMS density matrix=1.00D-08 within 128 cycles.
 Requested convergence on MAX density matrix=1.00D-06.
 Requested convergence on             energy=1.00D-06.
 No special actions if energy rises.
 An orbital has undefined symmetry, so N**3 symmetry is turned off.
 SCF Done:  E(RPM6) = -0.135013082484     A.U. after    2 cycles
            NFock=  1  Conv=0.20D-11     -V/T= 0.9822
 Range of M.O.s used for correlation:     1    12
 NBasis=    12 NAE=     8 NBE=     8 NFC=     0 NFV=     0
 NROrb=     12 NOA=     8 NOB=     8 NVA=     4 NVB=     4
 Symmetrizing basis deriv contribution to polar:
 IMax=3 JMax=2 DiffMx= 0.00D+00
 G2DrvN: will do     4 centers at a time, making    1 passes.
 Calling FoFCou, ICntrl=  3107 FMM=F I1Cent=   0 AccDes= 0.00D+00.
 End of G2Drv F.D. properties file   721 does not exist.
 End of G2Drv F.D. properties file   722 does not exist.
 End of G2Drv F.D. properties file   788 does not exist.
          IDoAtm=111
          Differentiating once with respect to electric field.
                with respect to dipole field.
          Differentiating once with respect to nuclear coordinates.
          Electric field/nuclear overlap derivatives assumed to be zero.
 Keep J ints in memory in canonical form, NReq=859328.
          There are     9 degrees of freedom in the 1st order CPHF.  IDoFFX=4 NUNeed=     9.
 LinEq1:  Iter=  0 NonCon=     9 RMS=7.45D-01 Max=2.71D+00 NDo=     9
 AX will form     9 AO Fock derivatives at one time.
 LinEq1:  Iter=  1 NonCon=     9 RMS=9.27D-02 Max=4.35D-01 NDo=     9
 LinEq1:  Iter=  2 NonCon=     9 RMS=5.74D-03 Max=2.06D-02 NDo=     9
 LinEq1:  Iter=  3 NonCon=     9 RMS=5.22D-04 Max=2.33D-03 NDo=     9
 LinEq1:  Iter=  4 NonCon=     5 RMS=1.56D-05 Max=7.67D-05 NDo=     9
 LinEq1:  Iter=  5 NonCon=     3 RMS=6.30D-07 Max=2.03D-06 NDo=     9
 LinEq1:  Iter=  6 NonCon=     1 RMS=6.76D-08 Max=1.97D-07 NDo=     9
 LinEq1:  Iter=  7 NonCon=     0 RMS=1.07D-09 Max=3.76D-09 NDo=     9
 Linear equations converged to 1.000D-08 1.000D-07 after     7 iterations.
 Isotropic polarizability for W=    0.000000       13.48 Bohr**3.
 End of Minotr F.D. properties file   721 does not exist.
 End of Minotr F.D. properties file   722 does not exist.
 End of Minotr F.D. properties file   788 does not exist.

 **********************************************************************

            Population analysis using the SCF density.

 **********************************************************************

 Orbital symmetries:
       Occupied  (SGU) (SGG) (SGG) (PIU) (PIU) (SGU) (PIG) (PIG)
       Virtual   (PIU) (PIU) (SGG) (SGU)
 The electronic state is 1-SGG.
 Alpha  occ. eigenvalues --   -1.30665  -1.23776  -0.79135  -0.66416  -0.66416
 Alpha  occ. eigenvalues --   -0.60513  -0.47745  -0.47745
 Alpha virt. eigenvalues --    0.00920   0.00920   0.04183   0.14309
          Condensed to atoms (all electrons):
               1          2          3
     1  C    3.360765   0.000000   0.000000
     2  O    0.000000   6.319618   0.000000
     3  O    0.000000   0.000000   6.319618
 Mulliken charges:
               1
     1  C    0.639235
     2  O   -0.319618
     3  O   -0.319618
 Sum of Mulliken charges =   0.00000
 Mulliken charges with hydrogens summed into heavy atoms:
               1
     1  C    0.639235
     2  O   -0.319618
     3  O   -0.319618
 APT charges:
               1
     1  C    1.392614
     2  O   -0.696307
     3  O   -0.696307
 Sum of APT charges =   0.00000
 APT charges with hydrogens summed into heavy atoms:
               1
     1  C    1.392614
     2  O   -0.696307
     3  O   -0.696307
 Charge=              0.0000 electrons
 Dipole moment (field-independent basis, Debye):
    X=              0.0000    Y=              0.0000    Z=              0.0000  Tot=              0.0000
 N-N= 4.934674270132D+01 E-N=-7.891331324864D+01  KE=-7.601980347160D+00
 Symmetry AG   KE=-2.827565912994D+00
 Symmetry B1G  KE= 0.000000000000D+00
 Symmetry B2G  KE=-3.750579986803D-01
 Symmetry B3G  KE=-3.750579986803D-01
 Symmetry AU   KE= 0.000000000000D+00
 Symmetry B1U  KE=-2.430998556013D+00
 Symmetry B2U  KE=-7.966499403960D-01
 Symmetry B3U  KE=-7.966499403960D-01
  Exact polarizability:   2.043   0.000   2.043   0.000   0.000  36.363
 Approx polarizability:   1.324   0.000   1.324   0.000   0.000  36.659
 Calling FoFJK, ICntrl=    100127 FMM=F ISym2X=1 I1Cent= 0 IOpClX= 0 NMat=1 NMatS=1 NMatT=0.
 Full mass-weighted force constant matrix:
 Low frequencies ---    0.0000    0.0000    0.0000    5.2429    5.2429  538.5352
 Low frequencies ---  538.5352 1377.4006 2320.7136
 Diagonal vibrational polarizability:
        4.7310091       4.7310091       4.4602677
 Harmonic frequencies (cm**-1), IR intensities (KM/Mole), Raman scattering
 activities (A**4/AMU), depolarization ratios for plane and unpolarized
 incident light, reduced masses (AMU), force constants (mDyne/A),
 and normal coordinates:
                      1                      2                      3
                     PIU                    PIU                    SGG
 Frequencies --    538.5352               538.5352              1377.4006
 Red. masses --     12.8774                12.8774                15.9949
 Frc consts  --      2.2004                 2.2004                17.8794
 IR Inten    --     50.9858                50.9858                 0.0000
  Atom  AN      X      Y      Z        X      Y      Z        X      Y      Z
     1   6    -0.01   0.88   0.00     0.88   0.01   0.00     0.00   0.00   0.00
     2   8     0.01  -0.33   0.00    -0.33  -0.01   0.00     0.00   0.00   0.71
     3   8     0.01  -0.33   0.00    -0.33  -0.01   0.00     0.00   0.00  -0.71
                      4
                     SGU
 Frequencies --   2320.7136
 Red. masses --     12.8774
 Frc consts  --     40.8621
 IR Inten    --    892.6288
  Atom  AN      X      Y      Z
     1   6     0.00   0.00   0.88
     2   8     0.00   0.00  -0.33
     3   8     0.00   0.00  -0.33

 -------------------
 - Thermochemistry -
 -------------------
 Temperature   298.150 Kelvin.  Pressure   1.00000 Atm.
 Atom     1 has atomic number  6 and mass  12.00000
 Atom     2 has atomic number  8 and mass  15.99491
 Atom     3 has atomic number  8 and mass  15.99491
 Molecular mass:    43.98983 amu.
 Principal axes and moments of inertia in atomic units:
                           1         2         3
     Eigenvalues --     0.00000 156.44185 156.44185
           X            0.00000   0.80000  -0.60000
           Y            0.00000   0.60000   0.80000
           Z            1.00000   0.00000   0.00000
 This molecule is a prolate symmetric top.
 Rotational symmetry number  2.
 Rotational temperature (Kelvin)      0.55365
 Rotational constant (GHZ):          11.536179
 Zero-point vibrational energy      28561.9 (Joules/Mol)
                                    6.82647 (Kcal/Mol)
 Warning -- explicit consideration of   2 degrees of freedom as
           vibrations may cause significant error
 Vibrational temperatures:    774.83   774.83  1981.77  3338.99
          (Kelvin)
 
 Zero-point correction=                           0.010879 (Hartree/Particle)
 Thermal correction to Energy=                    0.013642
 Thermal correction to Enthalpy=                  0.014586
 Thermal correction to Gibbs Free Energy=        -0.009900
 Sum of electronic and zero-point Energies=             -0.124134
 Sum of electronic and thermal Energies=                -0.121371
 Sum of electronic and thermal Enthalpies=              -0.120427
 Sum of electronic and thermal Free Energies=           -0.144913
 
                     E (Thermal)             CV                S
                      KCal/Mol        Cal/Mol-Kelvin    Cal/Mol-Kelvin
 Total                    8.560              7.415             51.534
 Electronic               0.000              0.000              0.000
 Translational            0.889              2.981             37.270
 Rotational               0.592              1.987             13.107
 Vibrational              7.079              2.447              1.157
 Vibration     1          0.894              1.165              0.568
 Vibration     2          0.894              1.165              0.568
                       Q            Log10(Q)             Ln(Q)
 Total Bot       0.357694D+05          4.553512         10.484849
 Total V=0       0.360863D+10          9.557343         22.006595
 Vib (Bot)       0.115840D-04         -4.936142        -11.365887
 Vib (Bot)    1  0.294603D+00         -0.530762         -1.222125
 Vib (Bot)    2  0.294603D+00         -0.530762         -1.222125
 Vib (V=0)       0.116866D+01          0.067689          0.155859
 Vib (V=0)    1  0.108034D+01          0.033559          0.077273
 Vib (V=0)    2  0.108034D+01          0.033559          0.077273
 Electronic      0.100000D+01          0.000000          0.000000
 Translational   0.114679D+08          7.059484         16.255062
 Rotational      0.269259D+03          2.430171          5.595675
 ***** Axes restored to original set *****
 -------------------------------------------------------------------
 Center     Atomic                   Forces (Hartrees/Bohr)
 Number     Number              X              Y              Z
 -------------------------------------------------------------------
      1        6           0.000000000    0.000000000    0.000000000
      2        8           0.000025873    0.000025928   -0.000003452
      3        8          -0.000025873   -0.000025928    0.000003452
 -------------------------------------------------------------------
 Cartesian Forces:  Max     0.000025928 RMS     0.000017344
 FormGI is forming the generalized inverse of G from B-inverse, IUseBI=4.

 GradGradGradGradGradGradGradGradGradGradGradGradGradGradGradGradGradGrad
 Berny optimization.
 Internal  Forces:  Max     0.000036791 RMS     0.000026015
 Search for a local minimum.
 Step number   1 out of a maximum of    2
 All quantities printed in internal units (Hartrees-Bohrs-Radians)
 Second derivative matrix not updated -- analytic derivatives used.
 The second derivative matrix:
                          R1        R2        A1        A2
           R1           1.01885
           R2           0.12955   1.01885
           A1           0.00000   0.00000   0.11704
           A2           0.00000   0.00000  -0.00779   0.05968
 ITU=  0
     Eigenvalues ---    0.05864   0.11808   0.88929   1.14840
 Angle between quadratic step and forces=   0.00 degrees.
 Linear search not attempted -- first point.
 Iteration  1 RMS(Cart)=  0.00002265 RMS(Int)=  0.00000000
 Iteration  2 RMS(Cart)=  0.00000000 RMS(Int)=  0.00000001
 ClnCor:  largest displacement from symmetrization is 7.52D-13 for atom     1.
 Variable       Old X    -DE/DX   Delta X   Delta X   Delta X     New X
                                 (Linear)    (Quad)   (Total)
    R1        2.21142  -0.00004   0.00000  -0.00003  -0.00003   2.21138
    R2        2.21142  -0.00004   0.00000  -0.00003  -0.00003   2.21138
    A1        3.14159   0.00000   0.00000   0.00000   0.00000   3.14159
    A2        3.14159   0.00000   0.00000   0.00000   0.00000   3.14159
         Item               Value     Threshold  Converged?
 Maximum Force            0.000037     0.000450     YES
 RMS     Force            0.000026     0.000300     YES
 Maximum Displacement     0.000023     0.001800     YES
 RMS     Displacement     0.000023     0.001200     YES
 Predicted change in Energy=-1.178670D-09
 Optimization completed.
    -- Stationary point found.
                           ----------------------------
                           !   Optimized Parameters   !
                           ! (Angstroms and Degrees)  !
 --------------------------                            --------------------------
 ! Name  Definition              Value          Derivative Info.                !
 --------------------------------------------------------------------------------
 ! R1    R(1,2)                  1.1702         -DE/DX =    0.0                 !
 ! R2    R(1,3)                  1.1702         -DE/DX =    0.0                 !
 ! A1    L(2,1,3,-3,-1)        180.0            -DE/DX =    0.0                 !
 ! A2    L(2,1,3,-1,-2)        180.0            -DE/DX =    0.0                 !
 --------------------------------------------------------------------------------
 GradGradGradGradGradGradGradGradGradGradGradGradGradGradGradGradGradGrad

 1|1|UNPC-AHELI-09|Freq|RPM6|ZDO|C1O2|USER|10-Mar-2026|0||#N Geom=AllCh
 eck Guess=TCheck SCRF=Check GenChk RPM6/ZDO Freq||CO2_opt+freq||0,1|C,
 -1.1708860936,0.4008438764,0.|O,-1.99384225,-0.42385543,0.1097954602|O
 ,-0.3479299373,1.2255431827,-0.1097954602||Version=IA32W-G09RevD.01|St
 ate=1-SGG|HF=-0.1350131|RMSD=2.038e-012|RMSF=1.734e-005|ZeroPoint=0.01
 08787|Thermal=0.0136417|Dipole=0.,0.,0.|DipoleDeriv=1.7394122,1.066097
 ,-0.1419337,1.066097,1.7439237,-0.1422343,-0.1419337,-0.1422343,0.6945
 047,-0.8697059,-0.5330487,0.0709669,-0.5330487,-0.8719617,0.0711172,0.
 0709669,0.0711172,-0.347252,-0.8697059,-0.5330487,0.0709669,-0.5330487
 ,-0.8719617,0.0711172,0.0709669,0.0711172,-0.347252|Polar=19.015938,17
 .0085688,19.0879155,-2.2644176,-2.269214,2.3454293|HyperPolar=0.,0.,0.
 ,0.,0.,0.,0.,0.,0.,0.|PG=D*H [O(C1),C*(O1.O1)]|NImag=0||0.92801112,0.8
 3399707,0.93154046,-0.11103331,-0.11126849,0.11059047,-0.46400555,-0.4
 1699852,0.05551665,0.51597800,-0.41699852,-0.46577022,0.05563425,0.493
 06766,0.51806459,0.05551665,0.05563425,-0.05529523,-0.06564404,-0.0657
 8308,0.03271049,-0.46400555,-0.41699852,0.05551665,-0.05197247,-0.0760
 6915,0.01012738,0.51597800,-0.41699852,-0.46577022,0.05563425,-0.07606
 915,-0.05229438,0.01014884,0.49306766,0.51806459,0.05551665,0.05563425
 ,-0.05529523,0.01012738,0.01014884,0.02258474,-0.06564404,-0.06578308,
 0.03271049||0.,0.,0.,-0.00002587,-0.00002593,0.00000345,0.00002587,0.0
 0002593,-0.00000345|||@


 THE LENGTH OF A MEETING IS PROPORTIONAL TO THE
 SQUARE OF THE PARTICIPANTS.
 Job cpu time:       0 days  0 hours  0 minutes  1.0 seconds.
 File lengths (MBytes):  RWF=      5 Int=      0 D2E=      0 Chk=      1 Scr=      1
 Normal termination of Gaussian 09 at Tue Mar 10 13:14:43 2026.
