 Entering Link 1 = C:\Gaussian\G09W\l1.exe PID=     33640.
  
 Copyright (c) 1988,1990,1992,1993,1995,1998,2003,2009,2013,
            Gaussian, Inc.  All Rights Reserved.
  
 This is part of the Gaussian(R) 09 program.  It is based on
 the Gaussian(R) 03 system (copyright 2003, Gaussian, Inc.),
 the Gaussian(R) 98 system (copyright 1998, Gaussian, Inc.),
 the Gaussian(R) 94 system (copyright 1995, Gaussian, Inc.),
 the Gaussian 92(TM) system (copyright 1992, Gaussian, Inc.),
 the Gaussian 90(TM) system (copyright 1990, Gaussian, Inc.),
 the Gaussian 88(TM) system (copyright 1988, Gaussian, Inc.),
 the Gaussian 86(TM) system (copyright 1986, Carnegie Mellon
 University), and the Gaussian 82(TM) system (copyright 1983,
 Carnegie Mellon University). Gaussian is a federally registered
 trademark of Gaussian, Inc.
  
 This software contains proprietary and confidential information,
 including trade secrets, belonging to Gaussian, Inc.
  
 This software is provided under written license and may be
 used, copied, transmitted, or stored only in accord with that
 written license.
  
 The following legend is applicable only to US Government
 contracts under FAR:
  
                    RESTRICTED RIGHTS LEGEND
  
 Use, reproduction and disclosure by the US Government is
 subject to restrictions as set forth in subparagraphs (a)
 and (c) of the Commercial Computer Software - Restricted
 Rights clause in FAR 52.227-19.
  
 Gaussian, Inc.
 340 Quinnipiac St., Bldg. 40, Wallingford CT 06492
  
  
 ---------------------------------------------------------------
 Warning -- This program may not be used in any manner that
 competes with the business of Gaussian, Inc. or will provide
 assistance to any competitor of Gaussian, Inc.  The licensee
 of this program is prohibited from giving any competitor of
 Gaussian, Inc. access to this program.  By using this program,
 the user acknowledges that Gaussian, Inc. is engaged in the
 business of creating and licensing software in the field of
 computational chemistry and represents and warrants to the
 licensee that it is not a competitor of Gaussian, Inc. and that
 it will not use this program in any manner prohibited above.
 ---------------------------------------------------------------
  

 Cite this work as:
 Gaussian 09, Revision D.01,
 M. J. Frisch, G. W. Trucks, H. B. Schlegel, G. E. Scuseria, 
 M. A. Robb, J. R. Cheeseman, G. Scalmani, V. Barone, B. Mennucci, 
 G. A. Petersson, H. Nakatsuji, M. Caricato, X. Li, H. P. Hratchian, 
 A. F. Izmaylov, J. Bloino, G. Zheng, J. L. Sonnenberg, M. Hada, 
 M. Ehara, K. Toyota, R. Fukuda, J. Hasegawa, M. Ishida, T. Nakajima, 
 Y. Honda, O. Kitao, H. Nakai, T. Vreven, J. A. Montgomery, Jr., 
 J. E. Peralta, F. Ogliaro, M. Bearpark, J. J. Heyd, E. Brothers, 
 K. N. Kudin, V. N. Staroverov, T. Keith, R. Kobayashi, J. Normand, 
 K. Raghavachari, A. Rendell, J. C. Burant, S. S. Iyengar, J. Tomasi, 
 M. Cossi, N. Rega, J. M. Millam, M. Klene, J. E. Knox, J. B. Cross, 
 V. Bakken, C. Adamo, J. Jaramillo, R. Gomperts, R. E. Stratmann, 
 O. Yazyev, A. J. Austin, R. Cammi, C. Pomelli, J. W. Ochterski, 
 R. L. Martin, K. Morokuma, V. G. Zakrzewski, G. A. Voth, 
 P. Salvador, J. J. Dannenberg, S. Dapprich, A. D. Daniels, 
 O. Farkas, J. B. Foresman, J. V. Ortiz, J. Cioslowski, 
 and D. J. Fox, Gaussian, Inc., Wallingford CT, 2013.
 
 ******************************************
 Gaussian 09:  IA32W-G09RevD.01 24-Apr-2013
                12-Mar-2026 
 ******************************************
 %chk=C:\Users\User\Desktop\IMRG\ECE+ML\Co_Gr_NS_CO.chk
 ---------------------------------------
 # opt freq pm6 scf=qc geom=connectivity
 ---------------------------------------
 1/14=-1,18=20,19=15,26=1,38=1,57=2/1,3;
 2/9=110,12=2,17=6,18=5,40=1/2;
 3/5=2,16=1,25=1,41=3900000,71=1/1,2,3;
 4/35=1/1;
 5/5=2,8=3,35=1,38=5/8;
 6/7=2,8=2,9=2,10=2,28=1/1;
 7//1,2,3,16;
 1/14=-1,18=20,19=15,26=1/3(2);
 2/9=110/2;
 99//99;
 2/9=110/2;
 3/5=2,16=1,25=1,41=3900000,71=1,135=20/1,2,3;
 4/5=5,16=3,35=1/1;
 5/5=2,8=3,35=1,38=5/8;
 7//1,2,3,16;
 1/14=-1,18=20,19=15,26=1/3(-5);
 2/9=110/2;
 6/7=2,8=2,9=2,10=2,19=2,28=1/1;
 99/9=1/99;
 -----------
 Co_Gr_NS_CO
 -----------
 Symbolic Z-matrix:
 Charge =  0 Multiplicity = 2
 C                    -1.48734   1.25527   0. 
 C                    -0.11458   1.26757   0.00021 
 C                     0.63784   2.49562   0.00024 
 C                     2.76155   3.73782  -0.0001 
 C                     4.87637   4.98541  -0.00058 
 C                     2.0603    2.51615  -0.00001 
 C                     4.19236   3.77104  -0.00038 
 C                    -3.68033   2.52318  -0.00036 
 C                    -5.85442   3.76459  -0.00032 
 C                    -2.22717   2.49171  -0.00016 
 C                    -4.4314    3.73294  -0.00038 
 C                    -6.52317   4.98925  -0.00022 
 C                    -1.49723   3.66543   0.00004 
 C                    -3.77063   4.98776  -0.00006 
 C                    -5.83173   6.21539  -0.00016 
 C                     0.61876   4.98443   0.00024 
 C                    -1.48853   6.30241   0.00019 
 C                    -3.64606   7.47395  -0.00004 
 C                     2.76334   6.23383  -0.00007 
 C                     0.64426   7.4887    0.0001 
 C                    -1.48605   8.7395   -0.00011 
 C                    -0.07268   3.72258   0.00025 
 C                    -4.42338   6.2256   -0.00018 
 C                     2.03942   4.98572   0.00009 
 C                    -0.08682   6.24592   0.00026 
 C                    -2.24783   7.50962   0.00012 
 C                     4.18329   6.20584  -0.00024 
 C                     2.05117   7.46407  -0.0001 
 C                    -0.10808   8.71832  -0.00011 
 H                     4.73683   7.14171  -0.00013 
 H                     2.60821   8.39816  -0.00027 
 H                     0.45062   9.65387  -0.00038 
 H                    -2.02415   9.68484  -0.0001 
 H                    -4.21082   8.4023   -0.00019 
 H                    -6.39162   7.1481   -0.0001 
 H                    -7.61353   5.00188  -0.00006 
 H                    -6.41745   2.83421  -0.00027 
 H                    -4.20834   1.57407  -0.00036 
 H                    -2.035     0.31468   0.00008 
 H                     0.44259   0.33017   0.00001 
 H                     2.60785   1.57708  -0.00018 
 H                     4.74181   2.8329   -0.00058 
 H                     5.96597   4.99136  -0.0008 
 Co                   -2.25175   4.98582   0.00002 
 C                    -1.19292   5.13872   0.21232 
 O                    -1.19292   5.13872   1.35195 
 
 Add virtual bond connecting atoms C45        and C17        Dist= 2.30D+00.
 Add virtual bond connecting atoms C45        and Co44       Dist= 2.06D+00.

 GradGradGradGradGradGradGradGradGradGradGradGradGradGradGradGradGradGrad
 Berny optimization.
 Initialization pass.
                           ----------------------------
                           !    Initial Parameters    !
                           ! (Angstroms and Degrees)  !
 --------------------------                            --------------------------
 ! Name  Definition              Value          Derivative Info.                !
 --------------------------------------------------------------------------------
 ! R1    R(1,2)                  1.3728         estimate D2E/DX2                !
 ! R2    R(1,10)                 1.4409         estimate D2E/DX2                !
 ! R3    R(1,39)                 1.0884         estimate D2E/DX2                !
 ! R4    R(2,3)                  1.4402         estimate D2E/DX2                !
 ! R5    R(2,40)                 1.0905         estimate D2E/DX2                !
 ! R6    R(3,6)                  1.4226         estimate D2E/DX2                !
 ! R7    R(3,22)                 1.4178         estimate D2E/DX2                !
 ! R8    R(4,6)                  1.4086         estimate D2E/DX2                !
 ! R9    R(4,7)                  1.4312         estimate D2E/DX2                !
 ! R10   R(4,24)                 1.4418         estimate D2E/DX2                !
 ! R11   R(5,7)                  1.3938         estimate D2E/DX2                !
 ! R12   R(5,27)                 1.4035         estimate D2E/DX2                !
 ! R13   R(5,43)                 1.0896         estimate D2E/DX2                !
 ! R14   R(6,41)                 1.087          estimate D2E/DX2                !
 ! R15   R(7,42)                 1.0872         estimate D2E/DX2                !
 ! R16   R(8,10)                 1.4535         estimate D2E/DX2                !
 ! R17   R(8,11)                 1.4239         estimate D2E/DX2                !
 ! R18   R(8,38)                 1.0861         estimate D2E/DX2                !
 ! R19   R(9,11)                 1.4234         estimate D2E/DX2                !
 ! R20   R(9,12)                 1.3954         estimate D2E/DX2                !
 ! R21   R(9,37)                 1.0875         estimate D2E/DX2                !
 ! R22   R(10,13)                1.3822         estimate D2E/DX2                !
 ! R23   R(11,14)                1.4182         estimate D2E/DX2                !
 ! R24   R(12,15)                1.4077         estimate D2E/DX2                !
 ! R25   R(12,36)                1.0904         estimate D2E/DX2                !
 ! R26   R(13,22)                1.4257         estimate D2E/DX2                !
 ! R27   R(13,44)                1.5208         estimate D2E/DX2                !
 ! R28   R(14,23)                1.3994         estimate D2E/DX2                !
 ! R29   R(14,44)                1.5189         estimate D2E/DX2                !
 ! R30   R(15,23)                1.4084         estimate D2E/DX2                !
 ! R31   R(15,35)                1.0879         estimate D2E/DX2                !
 ! R32   R(16,22)                1.4389         estimate D2E/DX2                !
 ! R33   R(16,24)                1.4207         estimate D2E/DX2                !
 ! R34   R(16,25)                1.4454         estimate D2E/DX2                !
 ! R35   R(17,25)                1.4028         estimate D2E/DX2                !
 ! R36   R(17,26)                1.4261         estimate D2E/DX2                !
 ! R37   R(17,44)                1.5218         estimate D2E/DX2                !
 ! R38   R(17,45)                1.2192         estimate D2E/DX2                !
 ! R39   R(18,23)                1.4706         estimate D2E/DX2                !
 ! R40   R(18,26)                1.3987         estimate D2E/DX2                !
 ! R41   R(18,34)                1.0866         estimate D2E/DX2                !
 ! R42   R(19,24)                1.4429         estimate D2E/DX2                !
 ! R43   R(19,27)                1.4202         estimate D2E/DX2                !
 ! R44   R(19,28)                1.4215         estimate D2E/DX2                !
 ! R45   R(20,25)                1.4419         estimate D2E/DX2                !
 ! R46   R(20,28)                1.4071         estimate D2E/DX2                !
 ! R47   R(20,29)                1.4415         estimate D2E/DX2                !
 ! R48   R(21,26)                1.4467         estimate D2E/DX2                !
 ! R49   R(21,29)                1.3781         estimate D2E/DX2                !
 ! R50   R(21,33)                1.0878         estimate D2E/DX2                !
 ! R51   R(27,30)                1.0873         estimate D2E/DX2                !
 ! R52   R(28,31)                1.0876         estimate D2E/DX2                !
 ! R53   R(29,32)                1.0897         estimate D2E/DX2                !
 ! R54   R(44,45)                1.0907         estimate D2E/DX2                !
 ! R55   R(45,46)                1.1396         estimate D2E/DX2                !
 ! A1    A(2,1,10)             120.3811         estimate D2E/DX2                !
 ! A2    A(2,1,39)             120.7234         estimate D2E/DX2                !
 ! A3    A(10,1,39)            118.8954         estimate D2E/DX2                !
 ! A4    A(1,2,3)              122.0091         estimate D2E/DX2                !
 ! A5    A(1,2,40)             120.2126         estimate D2E/DX2                !
 ! A6    A(3,2,40)             117.7783         estimate D2E/DX2                !
 ! A7    A(2,3,6)              122.323          estimate D2E/DX2                !
 ! A8    A(2,3,22)             118.4295         estimate D2E/DX2                !
 ! A9    A(6,3,22)             119.2474         estimate D2E/DX2                !
 ! A10   A(6,4,7)              121.1867         estimate D2E/DX2                !
 ! A11   A(6,4,24)             120.0864         estimate D2E/DX2                !
 ! A12   A(7,4,24)             118.7269         estimate D2E/DX2                !
 ! A13   A(7,5,27)             121.017          estimate D2E/DX2                !
 ! A14   A(7,5,43)             119.7036         estimate D2E/DX2                !
 ! A15   A(27,5,43)            119.2794         estimate D2E/DX2                !
 ! A16   A(3,6,4)              120.6839         estimate D2E/DX2                !
 ! A17   A(3,6,41)             119.4183         estimate D2E/DX2                !
 ! A18   A(4,6,41)             119.8978         estimate D2E/DX2                !
 ! A19   A(4,7,5)              120.7208         estimate D2E/DX2                !
 ! A20   A(4,7,42)             119.0266         estimate D2E/DX2                !
 ! A21   A(5,7,42)             120.2526         estimate D2E/DX2                !
 ! A22   A(10,8,11)            123.0746         estimate D2E/DX2                !
 ! A23   A(10,8,38)            117.8469         estimate D2E/DX2                !
 ! A24   A(11,8,38)            119.0785         estimate D2E/DX2                !
 ! A25   A(11,9,12)            119.9113         estimate D2E/DX2                !
 ! A26   A(11,9,37)            119.9067         estimate D2E/DX2                !
 ! A27   A(12,9,37)            120.182          estimate D2E/DX2                !
 ! A28   A(1,10,8)             122.1353         estimate D2E/DX2                !
 ! A29   A(1,10,13)            117.2279         estimate D2E/DX2                !
 ! A30   A(8,10,13)            120.6368         estimate D2E/DX2                !
 ! A31   A(8,11,9)             123.1078         estimate D2E/DX2                !
 ! A32   A(8,11,14)            120.3955         estimate D2E/DX2                !
 ! A33   A(9,11,14)            116.4967         estimate D2E/DX2                !
 ! A34   A(9,12,15)            121.9432         estimate D2E/DX2                !
 ! A35   A(9,12,36)            119.3009         estimate D2E/DX2                !
 ! A36   A(15,12,36)           118.7559         estimate D2E/DX2                !
 ! A37   A(10,13,22)           124.1752         estimate D2E/DX2                !
 ! A38   A(10,13,44)           118.3771         estimate D2E/DX2                !
 ! A39   A(22,13,44)           117.4477         estimate D2E/DX2                !
 ! A40   A(11,14,23)           124.4256         estimate D2E/DX2                !
 ! A41   A(11,14,44)           117.6975         estimate D2E/DX2                !
 ! A42   A(23,14,44)           117.8769         estimate D2E/DX2                !
 ! A43   A(12,15,23)           119.8349         estimate D2E/DX2                !
 ! A44   A(12,15,35)           119.6049         estimate D2E/DX2                !
 ! A45   A(23,15,35)           120.5602         estimate D2E/DX2                !
 ! A46   A(22,16,24)           118.7733         estimate D2E/DX2                !
 ! A47   A(22,16,25)           122.0594         estimate D2E/DX2                !
 ! A48   A(24,16,25)           119.1674         estimate D2E/DX2                !
 ! A49   A(25,17,26)           124.4765         estimate D2E/DX2                !
 ! A50   A(25,17,44)           117.7927         estimate D2E/DX2                !
 ! A51   A(25,17,45)            73.6982         estimate D2E/DX2                !
 ! A52   A(26,17,44)           117.7308         estimate D2E/DX2                !
 ! A53   A(26,17,45)           159.5548         estimate D2E/DX2                !
 ! A54   A(23,18,26)           123.3713         estimate D2E/DX2                !
 ! A55   A(23,18,34)           116.7761         estimate D2E/DX2                !
 ! A56   A(26,18,34)           119.8525         estimate D2E/DX2                !
 ! A57   A(24,19,27)           118.9848         estimate D2E/DX2                !
 ! A58   A(24,19,28)           119.8195         estimate D2E/DX2                !
 ! A59   A(27,19,28)           121.1957         estimate D2E/DX2                !
 ! A60   A(25,20,28)           119.4641         estimate D2E/DX2                !
 ! A61   A(25,20,29)           118.073          estimate D2E/DX2                !
 ! A62   A(28,20,29)           122.4629         estimate D2E/DX2                !
 ! A63   A(26,21,29)           120.8936         estimate D2E/DX2                !
 ! A64   A(26,21,33)           118.5771         estimate D2E/DX2                !
 ! A65   A(29,21,33)           120.5293         estimate D2E/DX2                !
 ! A66   A(3,22,13)            117.777          estimate D2E/DX2                !
 ! A67   A(3,22,16)            121.2041         estimate D2E/DX2                !
 ! A68   A(13,22,16)           121.0189         estimate D2E/DX2                !
 ! A69   A(14,23,15)           117.3883         estimate D2E/DX2                !
 ! A70   A(14,23,18)           120.2865         estimate D2E/DX2                !
 ! A71   A(15,23,18)           122.3252         estimate D2E/DX2                !
 ! A72   A(4,24,16)            120.005          estimate D2E/DX2                !
 ! A73   A(4,24,19)            119.8289         estimate D2E/DX2                !
 ! A74   A(16,24,19)           120.1662         estimate D2E/DX2                !
 ! A75   A(16,25,17)           121.5273         estimate D2E/DX2                !
 ! A76   A(16,25,20)           120.3138         estimate D2E/DX2                !
 ! A77   A(17,25,20)           118.159          estimate D2E/DX2                !
 ! A78   A(17,26,18)           120.707          estimate D2E/DX2                !
 ! A79   A(17,26,21)           116.0575         estimate D2E/DX2                !
 ! A80   A(18,26,21)           123.2355         estimate D2E/DX2                !
 ! A81   A(5,27,19)            120.7216         estimate D2E/DX2                !
 ! A82   A(5,27,30)            119.8045         estimate D2E/DX2                !
 ! A83   A(19,27,30)           119.4739         estimate D2E/DX2                !
 ! A84   A(19,28,20)           121.0692         estimate D2E/DX2                !
 ! A85   A(19,28,31)           119.1239         estimate D2E/DX2                !
 ! A86   A(20,28,31)           119.8069         estimate D2E/DX2                !
 ! A87   A(20,29,21)           122.3405         estimate D2E/DX2                !
 ! A88   A(20,29,32)           117.6945         estimate D2E/DX2                !
 ! A89   A(21,29,32)           119.965          estimate D2E/DX2                !
 ! A90   A(13,44,14)           119.8184         estimate D2E/DX2                !
 ! A91   A(13,44,17)           120.1541         estimate D2E/DX2                !
 ! A92   A(13,44,45)            68.9032         estimate D2E/DX2                !
 ! A93   A(14,44,17)           120.0275         estimate D2E/DX2                !
 ! A94   A(17,45,46)           100.0195         estimate D2E/DX2                !
 ! A95   A(44,45,46)           101.2244         estimate D2E/DX2                !
 ! A96   L(14,44,45,13,-1)     188.7216         estimate D2E/DX2                !
 ! A97   L(14,44,45,13,-2)     192.039          estimate D2E/DX2                !
 ! D1    D(10,1,2,3)            -0.0025         estimate D2E/DX2                !
 ! D2    D(10,1,2,40)         -179.9806         estimate D2E/DX2                !
 ! D3    D(39,1,2,3)          -179.9941         estimate D2E/DX2                !
 ! D4    D(39,1,2,40)            0.0278         estimate D2E/DX2                !
 ! D5    D(2,1,10,8)          -179.9988         estimate D2E/DX2                !
 ! D6    D(2,1,10,13)           -0.0059         estimate D2E/DX2                !
 ! D7    D(39,1,10,8)           -0.0071         estimate D2E/DX2                !
 ! D8    D(39,1,10,13)         179.9859         estimate D2E/DX2                !
 ! D9    D(1,2,3,6)           -179.9775         estimate D2E/DX2                !
 ! D10   D(1,2,3,22)             0.0102         estimate D2E/DX2                !
 ! D11   D(40,2,3,6)             0.0012         estimate D2E/DX2                !
 ! D12   D(40,2,3,22)          179.9889         estimate D2E/DX2                !
 ! D13   D(2,3,6,4)            179.9947         estimate D2E/DX2                !
 ! D14   D(2,3,6,41)            -0.0032         estimate D2E/DX2                !
 ! D15   D(22,3,6,4)             0.0071         estimate D2E/DX2                !
 ! D16   D(22,3,6,41)         -179.9908         estimate D2E/DX2                !
 ! D17   D(2,3,22,13)           -0.0093         estimate D2E/DX2                !
 ! D18   D(2,3,22,16)         -179.9984         estimate D2E/DX2                !
 ! D19   D(6,3,22,13)          179.9788         estimate D2E/DX2                !
 ! D20   D(6,3,22,16)           -0.0104         estimate D2E/DX2                !
 ! D21   D(7,4,6,3)           -179.9983         estimate D2E/DX2                !
 ! D22   D(7,4,6,41)            -0.0004         estimate D2E/DX2                !
 ! D23   D(24,4,6,3)             0.0005         estimate D2E/DX2                !
 ! D24   D(24,4,6,41)          179.9984         estimate D2E/DX2                !
 ! D25   D(6,4,7,5)            179.9946         estimate D2E/DX2                !
 ! D26   D(6,4,7,42)             0.0023         estimate D2E/DX2                !
 ! D27   D(24,4,7,5)            -0.0043         estimate D2E/DX2                !
 ! D28   D(24,4,7,42)         -179.9966         estimate D2E/DX2                !
 ! D29   D(6,4,24,16)           -0.0051         estimate D2E/DX2                !
 ! D30   D(6,4,24,19)         -179.9968         estimate D2E/DX2                !
 ! D31   D(7,4,24,16)          179.9938         estimate D2E/DX2                !
 ! D32   D(7,4,24,19)            0.0021         estimate D2E/DX2                !
 ! D33   D(27,5,7,4)             0.0119         estimate D2E/DX2                !
 ! D34   D(27,5,7,42)         -179.9959         estimate D2E/DX2                !
 ! D35   D(43,5,7,4)          -179.9999         estimate D2E/DX2                !
 ! D36   D(43,5,7,42)           -0.0077         estimate D2E/DX2                !
 ! D37   D(7,5,27,19)           -0.0173         estimate D2E/DX2                !
 ! D38   D(7,5,27,30)          179.9838         estimate D2E/DX2                !
 ! D39   D(43,5,27,19)         179.9944         estimate D2E/DX2                !
 ! D40   D(43,5,27,30)          -0.0044         estimate D2E/DX2                !
 ! D41   D(11,8,10,1)          179.9932         estimate D2E/DX2                !
 ! D42   D(11,8,10,13)           0.0005         estimate D2E/DX2                !
 ! D43   D(38,8,10,1)            0.002          estimate D2E/DX2                !
 ! D44   D(38,8,10,13)        -179.9907         estimate D2E/DX2                !
 ! D45   D(10,8,11,9)         -179.9875         estimate D2E/DX2                !
 ! D46   D(10,8,11,14)          -0.0059         estimate D2E/DX2                !
 ! D47   D(38,8,11,9)            0.0036         estimate D2E/DX2                !
 ! D48   D(38,8,11,14)         179.9852         estimate D2E/DX2                !
 ! D49   D(12,9,11,8)          179.9943         estimate D2E/DX2                !
 ! D50   D(12,9,11,14)           0.012          estimate D2E/DX2                !
 ! D51   D(37,9,11,8)           -0.0011         estimate D2E/DX2                !
 ! D52   D(37,9,11,14)        -179.9834         estimate D2E/DX2                !
 ! D53   D(11,9,12,15)          -0.0008         estimate D2E/DX2                !
 ! D54   D(11,9,12,36)        -179.9935         estimate D2E/DX2                !
 ! D55   D(37,9,12,15)         179.9946         estimate D2E/DX2                !
 ! D56   D(37,9,12,36)           0.0019         estimate D2E/DX2                !
 ! D57   D(1,10,13,22)           0.0067         estimate D2E/DX2                !
 ! D58   D(1,10,13,44)        -179.9942         estimate D2E/DX2                !
 ! D59   D(8,10,13,22)         179.9997         estimate D2E/DX2                !
 ! D60   D(8,10,13,44)          -0.0012         estimate D2E/DX2                !
 ! D61   D(8,11,14,23)         179.9937         estimate D2E/DX2                !
 ! D62   D(8,11,14,44)           0.0113         estimate D2E/DX2                !
 ! D63   D(9,11,14,23)          -0.0235         estimate D2E/DX2                !
 ! D64   D(9,11,14,44)         179.9941         estimate D2E/DX2                !
 ! D65   D(9,12,15,23)          -0.0008         estimate D2E/DX2                !
 ! D66   D(9,12,15,35)         179.9989         estimate D2E/DX2                !
 ! D67   D(36,12,15,23)        179.9919         estimate D2E/DX2                !
 ! D68   D(36,12,15,35)         -0.0083         estimate D2E/DX2                !
 ! D69   D(10,13,22,3)           0.001          estimate D2E/DX2                !
 ! D70   D(10,13,22,16)        179.9902         estimate D2E/DX2                !
 ! D71   D(44,13,22,3)        -179.9981         estimate D2E/DX2                !
 ! D72   D(44,13,22,16)         -0.0089         estimate D2E/DX2                !
 ! D73   D(10,13,44,14)          0.0069         estimate D2E/DX2                !
 ! D74   D(10,13,44,17)       -179.9981         estimate D2E/DX2                !
 ! D75   D(10,13,44,45)        167.9679         estimate D2E/DX2                !
 ! D76   D(22,13,44,14)       -179.9939         estimate D2E/DX2                !
 ! D77   D(22,13,44,17)          0.001          estimate D2E/DX2                !
 ! D78   D(22,13,44,45)        -12.033          estimate D2E/DX2                !
 ! D79   D(11,14,23,15)          0.0221         estimate D2E/DX2                !
 ! D80   D(11,14,23,18)       -179.9904         estimate D2E/DX2                !
 ! D81   D(44,14,23,15)       -179.9955         estimate D2E/DX2                !
 ! D82   D(44,14,23,18)         -0.008          estimate D2E/DX2                !
 ! D83   D(11,14,44,13)         -0.012          estimate D2E/DX2                !
 ! D84   D(11,14,44,17)        179.993          estimate D2E/DX2                !
 ! D85   D(23,14,44,13)       -179.9956         estimate D2E/DX2                !
 ! D86   D(23,14,44,17)          0.0095         estimate D2E/DX2                !
 ! D87   D(11,14,45,46)        -87.1812         estimate D2E/DX2                !
 ! D88   D(23,14,45,46)         87.8705         estimate D2E/DX2                !
 ! D89   D(12,15,23,14)         -0.0092         estimate D2E/DX2                !
 ! D90   D(12,15,23,18)       -179.9964         estimate D2E/DX2                !
 ! D91   D(35,15,23,14)        179.991          estimate D2E/DX2                !
 ! D92   D(35,15,23,18)          0.0039         estimate D2E/DX2                !
 ! D93   D(24,16,22,3)           0.0059         estimate D2E/DX2                !
 ! D94   D(24,16,22,13)       -179.9829         estimate D2E/DX2                !
 ! D95   D(25,16,22,3)        -179.9999         estimate D2E/DX2                !
 ! D96   D(25,16,22,13)          0.0113         estimate D2E/DX2                !
 ! D97   D(22,16,24,4)           0.0019         estimate D2E/DX2                !
 ! D98   D(22,16,24,19)        179.9936         estimate D2E/DX2                !
 ! D99   D(25,16,24,4)        -179.9925         estimate D2E/DX2                !
 ! D100  D(25,16,24,19)         -0.0008         estimate D2E/DX2                !
 ! D101  D(22,16,25,17)         -0.005          estimate D2E/DX2                !
 ! D102  D(22,16,25,20)       -179.9929         estimate D2E/DX2                !
 ! D103  D(24,16,25,17)        179.9893         estimate D2E/DX2                !
 ! D104  D(24,16,25,20)          0.0013         estimate D2E/DX2                !
 ! D105  D(26,17,25,16)       -179.9962         estimate D2E/DX2                !
 ! D106  D(26,17,25,20)         -0.008          estimate D2E/DX2                !
 ! D107  D(44,17,25,16)         -0.003          estimate D2E/DX2                !
 ! D108  D(44,17,25,20)        179.9852         estimate D2E/DX2                !
 ! D109  D(45,17,25,16)         10.4457         estimate D2E/DX2                !
 ! D110  D(45,17,25,20)       -169.5661         estimate D2E/DX2                !
 ! D111  D(25,17,26,18)        179.9954         estimate D2E/DX2                !
 ! D112  D(25,17,26,21)          0.0108         estimate D2E/DX2                !
 ! D113  D(44,17,26,18)          0.0021         estimate D2E/DX2                !
 ! D114  D(44,17,26,21)       -179.9825         estimate D2E/DX2                !
 ! D115  D(45,17,26,18)        -29.8715         estimate D2E/DX2                !
 ! D116  D(45,17,26,21)        150.1439         estimate D2E/DX2                !
 ! D117  D(25,17,44,13)          0.0049         estimate D2E/DX2                !
 ! D118  D(25,17,44,14)        179.9998         estimate D2E/DX2                !
 ! D119  D(26,17,44,13)        179.9986         estimate D2E/DX2                !
 ! D120  D(26,17,44,14)         -0.0065         estimate D2E/DX2                !
 ! D121  D(25,17,45,46)         92.9586         estimate D2E/DX2                !
 ! D122  D(26,17,45,46)        -61.7188         estimate D2E/DX2                !
 ! D123  D(26,18,23,14)          0.0039         estimate D2E/DX2                !
 ! D124  D(26,18,23,15)        179.9907         estimate D2E/DX2                !
 ! D125  D(34,18,23,14)        179.9976         estimate D2E/DX2                !
 ! D126  D(34,18,23,15)         -0.0156         estimate D2E/DX2                !
 ! D127  D(23,18,26,17)         -0.0007         estimate D2E/DX2                !
 ! D128  D(23,18,26,21)        179.9827         estimate D2E/DX2                !
 ! D129  D(34,18,26,17)       -179.9942         estimate D2E/DX2                !
 ! D130  D(34,18,26,21)         -0.0107         estimate D2E/DX2                !
 ! D131  D(27,19,24,4)          -0.0072         estimate D2E/DX2                !
 ! D132  D(27,19,24,16)       -179.999          estimate D2E/DX2                !
 ! D133  D(28,19,24,4)         179.9902         estimate D2E/DX2                !
 ! D134  D(28,19,24,16)         -0.0015         estimate D2E/DX2                !
 ! D135  D(24,19,27,5)           0.0148         estimate D2E/DX2                !
 ! D136  D(24,19,27,30)       -179.9864         estimate D2E/DX2                !
 ! D137  D(28,19,27,5)        -179.9826         estimate D2E/DX2                !
 ! D138  D(28,19,27,30)          0.0163         estimate D2E/DX2                !
 ! D139  D(24,19,28,20)          0.0035         estimate D2E/DX2                !
 ! D140  D(24,19,28,31)       -179.9967         estimate D2E/DX2                !
 ! D141  D(27,19,28,20)       -179.9991         estimate D2E/DX2                !
 ! D142  D(27,19,28,31)          0.0007         estimate D2E/DX2                !
 ! D143  D(28,20,25,16)          0.0006         estimate D2E/DX2                !
 ! D144  D(28,20,25,17)       -179.9877         estimate D2E/DX2                !
 ! D145  D(29,20,25,16)        179.9894         estimate D2E/DX2                !
 ! D146  D(29,20,25,17)          0.0011         estimate D2E/DX2                !
 ! D147  D(25,20,28,19)         -0.003          estimate D2E/DX2                !
 ! D148  D(25,20,28,31)        179.9972         estimate D2E/DX2                !
 ! D149  D(29,20,28,19)       -179.9913         estimate D2E/DX2                !
 ! D150  D(29,20,28,31)          0.0089         estimate D2E/DX2                !
 ! D151  D(25,20,29,21)          0.0025         estimate D2E/DX2                !
 ! D152  D(25,20,29,32)       -179.9913         estimate D2E/DX2                !
 ! D153  D(28,20,29,21)        179.991          estimate D2E/DX2                !
 ! D154  D(28,20,29,32)         -0.0029         estimate D2E/DX2                !
 ! D155  D(29,21,26,17)         -0.0068         estimate D2E/DX2                !
 ! D156  D(29,21,26,18)       -179.9909         estimate D2E/DX2                !
 ! D157  D(33,21,26,17)       -179.9966         estimate D2E/DX2                !
 ! D158  D(33,21,26,18)          0.0193         estimate D2E/DX2                !
 ! D159  D(26,21,29,20)          0.0005         estimate D2E/DX2                !
 ! D160  D(26,21,29,32)        179.9942         estimate D2E/DX2                !
 ! D161  D(33,21,29,20)        179.9901         estimate D2E/DX2                !
 ! D162  D(33,21,29,32)         -0.0162         estimate D2E/DX2                !
 ! D163  D(13,44,45,46)        -94.3899         estimate D2E/DX2                !
 --------------------------------------------------------------------------------
 Trust Radius=3.00D-01 FncErr=1.00D-07 GrdErr=1.00D-07
 Number of steps in this run=    276 maximum allowed number of steps=    276.
 GradGradGradGradGradGradGradGradGradGradGradGradGradGradGradGradGradGrad

                          Input orientation:                          
 ---------------------------------------------------------------------
 Center     Atomic      Atomic             Coordinates (Angstroms)
 Number     Number       Type             X           Y           Z
 ---------------------------------------------------------------------
      1          6           0       -1.487342    1.255274    0.000000
      2          6           0       -0.114579    1.267573    0.000214
      3          6           0        0.637842    2.495615    0.000237
      4          6           0        2.761554    3.737816   -0.000096
      5          6           0        4.876369    4.985412   -0.000577
      6          6           0        2.060297    2.516154   -0.000014
      7          6           0        4.192364    3.771038   -0.000385
      8          6           0       -3.680332    2.523182   -0.000361
      9          6           0       -5.854424    3.764586   -0.000316
     10          6           0       -2.227169    2.491707   -0.000158
     11          6           0       -4.431403    3.732940   -0.000377
     12          6           0       -6.523170    4.989254   -0.000217
     13          6           0       -1.497229    3.665426    0.000042
     14          6           0       -3.770635    4.987756   -0.000065
     15          6           0       -5.831731    6.215386   -0.000158
     16          6           0        0.618765    4.984426    0.000243
     17          6           0       -1.488529    6.302410    0.000188
     18          6           0       -3.646057    7.473946   -0.000044
     19          6           0        2.763344    6.233835   -0.000066
     20          6           0        0.644264    7.488696    0.000097
     21          6           0       -1.486048    8.739497   -0.000106
     22          6           0       -0.072682    3.722583    0.000254
     23          6           0       -4.423380    6.225598   -0.000181
     24          6           0        2.039423    4.985716    0.000088
     25          6           0       -0.086819    6.245918    0.000262
     26          6           0       -2.247828    7.509622    0.000125
     27          6           0        4.183286    6.205843   -0.000242
     28          6           0        2.051167    7.464069   -0.000096
     29          6           0       -0.108077    8.718323   -0.000112
     30          1           0        4.736826    7.141709   -0.000134
     31          1           0        2.608212    8.398162   -0.000269
     32          1           0        0.450622    9.653867   -0.000382
     33          1           0       -2.024149    9.684844   -0.000104
     34          1           0       -4.210816    8.402296   -0.000186
     35          1           0       -6.391623    7.148101   -0.000098
     36          1           0       -7.613530    5.001882   -0.000063
     37          1           0       -6.417453    2.834207   -0.000272
     38          1           0       -4.208336    1.574068   -0.000359
     39          1           0       -2.035005    0.314677    0.000084
     40          1           0        0.442586    0.330166    0.000014
     41          1           0        2.607852    1.577080   -0.000179
     42          1           0        4.741811    2.832903   -0.000582
     43          1           0        5.965971    4.991361   -0.000799
     44         27           0       -2.251750    4.985817    0.000017
     45          6           0       -1.192923    5.138717    0.212318
     46          8           0       -1.192923    5.138717    1.351947
 ---------------------------------------------------------------------
                    Distance matrix (angstroms):
                    1          2          3          4          5
     1  C    0.000000
     2  C    1.372818   0.000000
     3  C    2.460661   1.440217   0.000000
     4  C    4.920988   3.791337   2.460328   0.000000
     5  C    7.376364   6.223494   4.915709   2.455390   0.000000
     6  C    3.765044   2.507795   1.422603   1.408623   3.745330
     7  C    6.211934   4.981675   3.776417   1.431196   1.393760
     8  C    2.533140   3.780364   4.318263   6.555397   8.903916
     9  C    5.036670   6.259464   6.615119   8.616019  10.800015
    10  C    1.440871   2.441627   2.865014   5.141998   7.528533
    11  C    3.847899   4.971218   5.218067   7.192959   9.391662
    12  C    6.269144   7.410867   7.582765   9.368681  11.399540
    13  C    2.410172   2.767927   2.434540   4.259398   6.508849
    14  C    4.375483   5.215986   5.064132   6.650702   8.647004
    15  C    6.593666   7.560866   7.462713   8.943316  10.778509
    16  C    4.282786   3.788507   2.488884   2.479028   4.257604
    17  C    5.047136   5.218939   4.360406   4.963904   6.499724
    18  C    6.582699   7.140757   6.567768   7.417287   8.878319
    19  C    6.546327   5.739878   4.300238   2.496019   2.454269
    20  C    6.587813   6.267233   4.993085   4.307204   4.917026
    21  C    7.484223   7.596748   6.595223   6.561930   7.387389
    22  C    2.844095   2.455367   1.417849   2.834277   5.107626
    23  C    5.772732   6.568697   6.287188   7.603442   9.382078
    24  C    5.133641   4.297012   2.857452   1.441779   2.836946
    25  C    5.183434   4.978422   3.819674   3.795234   5.120753
    26  C    6.300413   6.596509   5.785098   6.270600   7.558163
    27  C    7.527559   6.546613   5.131857   2.848241   1.403502
    28  C    7.146340   6.564070   5.165562   3.793364   3.758392
    29  C    7.589432   7.450753   6.267256   5.748063   6.227305
    30  H    8.566818   7.618504   6.195794   3.935503   2.160808
    31  H    8.233736   7.632751   6.222734   4.662868   4.097731
    32  H    8.619284   8.405318   7.160700   6.351382   6.432862
    33  H    8.446645   8.631159   7.666238   7.633485   8.348761
    34  H    7.648348   8.226994   7.641883   8.388761   9.708349
    35  H    7.666641   8.601273   8.429650   9.767839  11.473660
    36  H    7.181034   8.377311   8.623602  10.451805  12.489910
    37  H    5.176778   6.494657   7.063415   9.223376  11.496873
    38  H    2.739605   4.105214   4.933020   7.298025   9.704078
    39  H    1.088420   2.143839   3.449725   5.892780   8.341634
    40  H    2.140197   1.090488   2.174234   4.121855   6.428821
    41  H    4.107818   2.739967   2.173625   2.166196   4.094252
    42  H    6.425828   5.102429   4.117806   2.177221   2.156710
    43  H    8.337279   7.130195   5.883681   3.440881   1.089618
    44  Co   3.808053   4.288687   3.814558   5.166306   7.128119
    45  C    3.900370   4.024123   3.222214   4.200658   6.074959
    46  O    4.122568   4.239783   3.487808   4.407768   6.220058
                    6          7          8          9         10
     6  C    0.000000
     7  C    2.473953   0.000000
     8  C    5.740633   7.970978   0.000000
     9  C    8.012576  10.046789   2.503549   0.000000
    10  C    4.287535   6.545768   1.453504   3.844112   0.000000
    11  C    6.604751   8.623851   1.423946   1.423372   2.529685
    12  C    8.932643  10.784559   3.763407   1.395361   4.969242
    13  C    3.738558   5.690573   2.463871   4.358323   1.382183
    14  C    6.333133   8.055417   2.466228   2.416262   2.934714
    15  C    8.715987  10.317816   4.273276   2.450906   5.182534
    16  C    2.858387   3.773979   4.953783   6.587123   3.783251
    17  C    5.189402   6.219356   4.368817   5.049910   3.881629
    18  C    7.559244   8.669047   4.950883   4.316971   5.180343
    19  C    3.783573   2.847361   7.435719   8.964548   6.237687
    20  C    5.170233   5.139065   6.584714   7.490123   5.763248
    21  C    7.162859   7.545194   6.592227   6.620608   6.291593
    22  C    2.450524   4.265321   3.801803   5.781894   2.481304
    23  C    7.469808   8.958565   3.776242   2.846835   4.331892
    24  C    2.469650   2.471962   6.227333   7.987739   4.942053
    25  C    4.303631   4.943322   5.174177   6.278716   4.321481
    26  C    6.595048   7.446683   5.188126   5.199311   5.017958
    27  C    4.256863   2.434822   8.683230  10.330312   7.408693
    28  C    4.947924   4.268865   7.567196   8.728376   6.559615
    29  C    6.570293   6.555106   7.151279   7.586832   6.577333
    30  H    5.344115   3.414361   9.601008  11.116633   8.373753
    31  H    5.907472   4.890788   8.605881   9.648121   7.633290
    32  H    7.316966   6.971965   8.240841   8.627702   7.646378
    33  H    8.250625   8.580101   7.350670   7.051274   7.196001
    34  H    8.600786   9.594894   5.902999   4.920346   6.234575
    35  H    9.637940  11.109695   5.361061   3.425895   6.246974
    36  H    9.988081  11.869882   4.649085   2.150664   5.942547
    37  H    8.483714  10.651096   2.754735   1.087477   4.204258
    38  H    6.339028   8.683227   1.086096   2.740068   2.183365
    39  H    4.649516   7.122257   2.754015   5.146827   2.185495
    40  H    2.719473   5.089246   4.669879   7.172696   3.435091
    41  H    1.087050   2.706313   6.358960   8.740440   4.920769
    42  H    2.700158   1.087194   8.427837  10.637116   6.977328
    43  H    4.623953   2.152875   9.957062  11.883884   8.565968
    44  Co   4.969203   6.557613   2.847002   3.804032   2.494231
    45  C    4.184060   5.560314   3.615724   4.864467   2.849820
    46  O    4.391932   5.718449   3.854473   5.044447   3.147143
                   11         12         13         14         15
    11  C    0.000000
    12  C    2.440044   0.000000
    13  C    2.934951   5.197365   0.000000
    14  C    1.418161   2.752535   2.630006   0.000000
    15  C    2.850168   1.407654   5.028937   2.398999   0.000000
    16  C    5.202924   7.141937   2.493430   4.389401   6.566899
    17  C    3.906749   5.203075   2.636998   2.633690   4.344074
    18  C    3.822551   3.801510   4.372904   2.489309   2.522131
    19  C    7.617012   9.369543   4.974858   6.651736   8.595095
    20  C    6.314120   7.590740   4.382166   5.074055   6.599988
    21  C    5.808677   6.279882   5.074083   4.392596   5.025544
    22  C    4.358734   6.573679   1.425693   3.908391   6.275406
    23  C    2.492671   2.436733   3.888038   1.399403   1.408389
    24  C    6.590982   8.562594   3.775060   5.810059   7.966628
    25  C    5.019011   6.557882   2.940781   3.892746   5.744993
    26  C    4.362491   4.962943   3.916790   2.945972   3.810434
    27  C    8.962595  10.775355   6.222697   8.046651  10.015021
    28  C    7.479642   8.924347   5.198154   6.326571   7.981184
    29  C    6.598879   7.420201   5.240374   5.227950   6.246993
    30  H    9.781418  11.463882   7.137786   8.775899  10.609076
    31  H    8.445146   9.746938   6.265256   7.233295   8.717635
    32  H    7.674083   8.390018   6.297265   6.292186   7.161782
    33  H    6.420283   6.503057   6.042436   5.011272   5.151196
    34  H    4.674564   4.122601   5.459074   3.442796   2.722120
    35  H    3.937739   2.162852   6.007006   3.396567   1.087858
    36  H    3.425806   1.090433   6.260611   3.842921   2.155783
    37  H    2.179934   2.157638   4.989943   3.412245   3.431536
    38  H    2.170366   4.125767   3.424015   3.441635   4.917037
    39  H    4.174595   6.480378   3.393630   4.984985   7.016659
    40  H    5.944294   8.380265   3.858347   6.280475   8.602492
    41  H    7.361986   9.747743   4.605744   7.233105   9.630184
    42  H    9.217263  11.469510   6.294340   8.780953  11.101396
    43  H   10.473252  12.489141   7.580070   9.736606  11.861029
    44  Co   2.514078   4.271421   1.520768   1.518886   3.785248
    45  C    3.536836   5.336576   1.519292   2.590849   4.766855
    46  O    3.780575   5.501111   2.022581   2.914674   4.950348
                   16         17         18         19         20
    16  C    0.000000
    17  C    2.485512   0.000000
    18  C    4.938261   2.455081   0.000000
    19  C    2.481984   4.252426   6.528269   0.000000
    20  C    2.504399   2.440509   4.290347   2.462758   0.000000
    21  C    4.304741   2.437089   2.503449   4.933121   2.470372
    22  C    1.438870   2.942810   5.180901   3.788064   3.833747
    23  C    5.192661   2.935855   1.470579   7.186729   5.222684
    24  C    1.420659   3.765651   6.206124   1.442866   2.865550
    25  C    1.445410   1.402848   3.765133   2.850189   1.441867
    26  C    3.820206   1.426147   1.398684   5.171023   2.892168
    27  C    3.767979   5.672637   7.931374   1.420217   3.764357
    28  C    2.863635   3.725440   5.697232   1.421504   1.407118
    29  C    3.803983   2.782497   3.750437   3.797070   1.441528
    30  H    4.648903   6.281678   8.389465   2.172295   4.107245
    31  H    3.951138   4.601681   6.322188   2.169880   2.164306
    32  H    4.672467   3.872024   4.640564   4.128595   2.173813
    33  H    5.392488   3.424580   2.742016   5.901657   3.455937
    34  H    5.916645   3.438077   1.086640   7.303502   4.940291
    35  H    7.336691   4.975492   2.764834   9.200506   7.044127
    36  H    8.232313   6.261550   4.674606  10.449748   8.624118
    37  H    7.357432   6.026833   5.404425   9.790021   8.457666
    38  H    5.910283   5.454775   5.926611   8.385568   7.650526
    39  H    5.371131   6.012618   7.338298   7.619749   7.658004
    40  H    4.657593   6.276695   8.231075   6.343439   7.161370
    41  H    3.945437   6.253725   8.595604   4.659350   6.229195
    42  H    4.650652   7.131243   9.586220   3.934548   6.202120
    43  H    5.347210   7.568911   9.927452   3.435194   5.878540
    44  Co   2.870516   1.521816   2.852171   5.168048   3.827702
    45  C    1.830572   1.219247   3.393562   4.110528   2.990434
    46  O    2.265639   1.807986   3.646785   4.321952   3.274928
                   21         22         23         24         25
    21  C    0.000000
    22  C    5.212200   0.000000
    23  C    3.866213   5.019328   0.000000
    24  C    5.149740   2.460994   6.580663   0.000000
    25  C    2.859332   2.523375   4.336608   2.471643   0.000000
    26  C    1.446686   4.367256   2.526211   4.975000   2.503379
    27  C    6.209730   4.927458   8.606688   2.466750   4.270293
    28  C    3.760134   4.302262   6.591931   2.478382   2.460666
    29  C    1.378134   4.995866   4.983525   4.306288   2.472497
    30  H    6.424725   5.900999   9.205902   3.453156   4.906118
    31  H    4.108464   5.389641   7.359573   3.459524   3.448963
    32  H    2.141673   5.954324   5.958936   4.931118   3.450066
    33  H    1.087765   6.273498   4.209832   6.212441   3.947082
    34  H    2.745554   6.246909   2.187052   7.123097   4.653743
    35  H    5.157248   7.187711   2.173705   8.703933   6.369026
    36  H    7.177451   7.648594   3.416803   9.652967   7.628827
    37  H    7.693582   6.406663   3.934191   8.726267   7.191432
    38  H    7.665131   4.660445   4.656499   7.118556   6.230015
    39  H    8.442686   3.932497   6.375212   6.198352   6.243000
    40  H    8.627657   3.431325   7.644196   4.921791   5.939393
    41  H    8.249863   3.433431   8.428934   3.455707   5.390668
    42  H    8.583361   4.896006   9.772978   3.455069   5.913066
    43  H    8.341529   6.170505  10.462406   3.926552   6.181438
    44  Co   3.830981   2.518749   2.500606   4.291174   2.504951
    45  C    3.618931   1.818061   3.415014   3.242917   1.579344
    46  O    3.857407   2.255537   3.666799   3.506992   2.067948
                   26         27         28         29         30
    26  C    0.000000
    27  C    6.561941   0.000000
    28  C    4.299236   2.475695   0.000000
    29  C    2.457539   4.972761   2.497095   0.000000
    30  H    6.994338   1.087314   2.704937   5.094978   0.000000
    31  H    4.936662   2.699466   1.087579   2.735092   2.471775
    32  H    3.446653   5.081500   2.712371   1.089672   4.968147
    33  H    2.186692   7.115876   4.641125   2.146042   7.223457
    34  H    2.156430   8.676713   6.331880   4.114893   9.036005
    35  H    4.159535  10.616805   8.448700   6.476770  11.128451
    36  H    5.922796  11.858093   9.973401   8.375188  12.534359
    37  H    6.264605  11.124009   9.651587   8.627343  11.957111
    38  H    6.250952   9.585022   8.594969   8.237264  10.536344
    39  H    7.198092   8.565802   8.234720   8.621736   9.615927
    40  H    7.667001   6.965372   7.313009   8.406212   8.052180
    41  H    7.666335   4.889524   5.913252   7.640264   5.957989
    42  H    8.409921   3.418871   5.356050   7.626243   4.308809
    43  H    8.591166   2.157066   4.630332   7.126310   2.476851
    44  Co   2.523808   6.549668   4.965564   4.304293   7.313554
    45  C    2.603660   5.485212   3.997061   3.746412   6.262510
    46  O    2.925994   5.645422   4.214190   3.977252   6.403282
                   31         32         33         34         35
    31  H    0.000000
    32  H    2.496395   0.000000
    33  H    4.807736   2.474965   0.000000
    34  H    6.819030   4.826535   2.535043   0.000000
    35  H    9.086236   7.286644   5.050732   2.515735   0.000000
    36  H   10.771199   9.309754   7.291866   4.810538   2.469679
    37  H   10.602840   9.678750   8.138325   5.989395   4.313971
    38  H    9.645392   9.326792   8.399724   6.828229   5.986367
    39  H    9.322134   9.664306   9.370173   8.375186   8.104061
    40  H    8.353591   9.323704   9.674439   9.317372   9.653530
    41  H    6.821082   8.359912   9.337627   9.647684  10.584273
    42  H    5.960231   8.058527   9.629502  10.543609  11.940448
    43  H    4.783391   7.222051   9.266650  10.733195  12.544387
    44  Co   5.938294   5.393840   4.704536   3.938308   4.670548
    45  C    5.011766   4.809684   4.626373   4.450145   5.577565
    46  O    5.186626   4.991654   4.815210   4.646170   5.735167
                   36         37         38         39         40
    36  H    0.000000
    37  H    2.475765   0.000000
    38  H    4.831693   2.543256   0.000000
    39  H    7.286277   5.055085   2.511858   0.000000
    40  H    9.312676   7.302763   4.814391   2.477639   0.000000
    41  H   10.779885   9.112436   6.816188   4.811421   2.498633
    42  H   12.544279  11.159264   9.038241   7.229571   4.974639
    43  H   13.579505  12.569904  10.732866   9.267523   7.227345
    44  Co   5.361804   4.688550   3.932971   4.676166   5.379083
    45  C    6.425576   5.714164   4.673828   4.901582   5.083514
    46  O    6.562839   5.868132   4.860882   5.080157   5.255927
                   41         42         43         44         45
    41  H    0.000000
    42  H    2.476061   0.000000
    43  H    4.788975   2.481433   0.000000
    44  Co   5.935926   7.317441   8.217723   0.000000
    45  C    5.213089   6.370492   7.163581   1.090672   0.000000
    46  O    5.381393   6.509007   7.287070   1.724009   1.139629
                   46
    46  O    0.000000
 Stoichiometry    C30H14CoO(2)
 Framework group  C1[X(C30H14CoO)]
 Deg. of freedom   132
 Full point group                 C1      NOp   1
 Largest Abelian subgroup         C1      NOp   1
 Largest concise Abelian subgroup C1      NOp   1
                         Standard orientation:                         
 ---------------------------------------------------------------------
 Center     Atomic      Atomic             Coordinates (Angstroms)
 Number     Number       Type             X           Y           Z
 ---------------------------------------------------------------------
      1          6           0        0.517764    3.743427   -0.046257
      2          6           0       -0.854994    3.730677   -0.044195
      3          6           0       -1.607014    2.502391   -0.045503
      4          6           0       -3.730319    1.259496   -0.045325
      5          6           0       -5.844728    0.011210   -0.045317
      6          6           0       -3.029461    2.481385   -0.043855
      7          6           0       -5.161118    1.225805   -0.043727
      8          6           0        2.711165    2.476242   -0.052040
      9          6           0        4.885658    1.235554   -0.057341
     10          6           0        1.257992    2.507239   -0.049796
     11          6           0        3.462629    1.266733   -0.055402
     12          6           0        5.554802    0.011107   -0.060503
     13          6           0        0.528436    1.333283   -0.050853
     14          6           0        2.802269    0.011701   -0.056596
     15          6           0        4.863763   -1.215250   -0.061854
     16          6           0       -1.587127    0.013591   -0.050299
     17          6           0        0.520594   -1.303699   -0.055755
     18          6           0        2.678501   -2.474525   -0.061177
     19          6           0       -3.731298   -1.236519   -0.050082
     20          6           0       -1.611811   -2.490682   -0.055216
     21          6           0        0.518906   -3.740782   -0.060722
     22          6           0       -0.896091    1.275658   -0.048809
     23          6           0        3.455416   -1.225924   -0.059978
     24          6           0       -3.007783    0.011835   -0.048520
     25          6           0       -0.881133   -1.247667   -0.053662
     26          6           0        1.280285   -2.510660   -0.059170
     27          6           0       -5.151247   -1.208992   -0.048269
     28          6           0       -3.018721   -2.466517   -0.053444
     29          6           0       -0.859071   -3.720060   -0.058809
     30          1           0       -5.704482   -2.145038   -0.049202
     31          1           0       -3.575462   -3.400790   -0.054650
     32          1           0       -1.417465   -4.655785   -0.060113
     33          1           0        1.057314   -4.685950   -0.063269
     34          1           0        3.243562   -3.402688   -0.063870
     35          1           0        5.423958   -2.147780   -0.064348
     36          1           0        6.645165   -0.001164   -0.061860
     37          1           0        5.448384    2.166115   -0.056279
     38          1           0        3.238858    3.425527   -0.050936
     39          1           0        1.065120    4.684202   -0.045115
     40          1           0       -1.412463    4.667900   -0.041836
     41          1           0       -3.577321    3.420279   -0.041471
     42          1           0       -5.710870    2.163759   -0.041375
     43          1           0       -6.934326    0.004903   -0.044065
     44         27           0        1.283386    0.013142   -0.054441
     45          6           0        0.224898   -0.140512    0.159010
     46          8           0        0.226453   -0.142699    1.298635
 ---------------------------------------------------------------------
 Rotational constants (GHZ):      0.3021220      0.1335108      0.0935689
 Standard basis: VSTO-6G (5D, 7F)
 There are   148 symmetry adapted cartesian basis functions of A   symmetry.
 There are   147 symmetry adapted basis functions of A   symmetry.
   147 basis functions,   888 primitive gaussians,   148 cartesian basis functions
    75 alpha electrons       74 beta electrons
       nuclear repulsion energy      1537.2841159167 Hartrees.
 Integral buffers will be    262144 words long.
 Regular integral format.
 Two-electron integral symmetry is turned off.
 Do NDO integrals.
 One-electron integrals computed using PRISM.
 NBasis=   147 RedAO= F EigKep=  0.00D+00  NBF=   147
 NBsUse=   147 1.00D-04 EigRej=  0.00D+00 NBFU=   147
 Simple Huckel Guess.
 Initial guess <Sx>= 0.0000 <Sy>= 0.0000 <Sz>= 0.5000 <S**2>= 0.7500 S= 0.5000
 Keep J ints in memory in canonical form, NReq=2141367.
 Gradient too large for Newton-Raphson -- use scaled steepest descent instead.
     Accept linear search using points  3 and  4.
 Gradient too large for Newton-Raphson -- use scaled steepest descent instead.
     Accept linear search using points  3 and  4.
 Gradient too large for Newton-Raphson -- use scaled steepest descent instead.
 Gradient too large for Newton-Raphson -- use scaled steepest descent instead.
 Gradient too large for Newton-Raphson -- use scaled steepest descent instead.
     Accept linear search using points  1 and  2.
     Minimum is close to point  2 DX= -2.21D-02 DF= -1.26D-05 DXR=  3.26D-02 DFR=  3.99D-04 which will be used.
 Gradient too large for Newton-Raphson -- use scaled steepest descent instead.
     Minimum is close to point  2 DX=  6.86D-02 DF= -1.74D-04 DXR=  8.93D-02 DFR=  8.04D-03 which will be used.
 Gradient too large for Newton-Raphson -- use scaled steepest descent instead.
 Gradient too large for Newton-Raphson -- use scaled steepest descent instead.
     Accept linear search using points  1 and  2.
 Gradient too large for Newton-Raphson -- use scaled steepest descent instead.
     Accept linear search using points  2 and  3.
 Gradient too large for Newton-Raphson -- use scaled steepest descent instead.
     Accept linear search using points  1 and  2.
 Gradient too large for Newton-Raphson -- use scaled steepest descent instead.
     Minimum is close to point  3 DX=  2.49D-02 DF= -2.28D-06 DXR=  1.64D-02 DFR=  2.69D-04 which will be used.
 Gradient too large for Newton-Raphson -- use scaled steepest descent instead.
     Accept linear search using points  1 and  2.
 Gradient too large for Newton-Raphson -- use scaled steepest descent instead.
     Accept linear search using points  2 and  3.
     Minimum is close to point  3 DX= -1.25D-01 DF= -2.63D-05 DXR=  7.92D-02 DFR=  4.72D-03 which will be used.
 Gradient too large for Newton-Raphson -- use scaled steepest descent instead.
     Accept linear search using points  1 and  2.
 Gradient too large for Newton-Raphson -- use scaled steepest descent instead.
 Gradient too large for Newton-Raphson -- use scaled steepest descent instead.
     Minimum is close to point  3 DX= -2.45D-02 DF= -8.08D-06 DXR=  5.15D-02 DFR=  2.66D-03 which will be used.
 Gradient too large for Newton-Raphson -- use scaled steepest descent instead.
 Gradient too large for Newton-Raphson -- use scaled steepest descent instead.
     Accept linear search using points  1 and  2.
 Gradient too large for Newton-Raphson -- use scaled steepest descent instead.
 Gradient too large for Newton-Raphson -- use scaled steepest descent instead.
     Minimum is close to point  3 DX= -2.92D-02 DF= -5.30D-06 DXR=  6.21D-02 DFR=  3.88D-03 which will be used.
 Gradient too large for Newton-Raphson -- use scaled steepest descent instead.
 Gradient too large for Newton-Raphson -- use scaled steepest descent instead.
     Accept linear search using points  1 and  2.
 Gradient too large for Newton-Raphson -- use scaled steepest descent instead.
 Gradient too large for Newton-Raphson -- use scaled steepest descent instead.
     Minimum is close to point  3 DX= -2.56D-02 DF= -1.97D-06 DXR=  5.40D-02 DFR=  2.92D-03 which will be used.
 Gradient too large for Newton-Raphson -- use scaled steepest descent instead.
 Gradient too large for Newton-Raphson -- use scaled steepest descent instead.
     Accept linear search using points  1 and  2.
 Gradient too large for Newton-Raphson -- use scaled steepest descent instead.
 Gradient too large for Newton-Raphson -- use scaled steepest descent instead.
     Minimum is close to point  3 DX= -3.05D-02 DF= -1.80D-06 DXR=  6.50D-02 DFR=  4.24D-03 which will be used.
 Gradient too large for Newton-Raphson -- use scaled steepest descent instead.
 Gradient too large for Newton-Raphson -- use scaled steepest descent instead.
     Accept linear search using points  1 and  2.
 LinEq1:  Iter=  0 NonCon=     1 RMS=4.45D-04 Max=2.93D-02 NDo=     1
 AX will form     1 AO Fock derivatives at one time.
 LinEq1:  Iter=  1 NonCon=     1 RMS=5.92D-05 Max=1.63D-03 NDo=     1
 LinEq1:  Iter=  2 NonCon=     1 RMS=2.29D-05 Max=5.41D-04 NDo=     1
 LinEq1:  Iter=  3 NonCon=     1 RMS=1.05D-05 Max=3.41D-04 NDo=     1
 LinEq1:  Iter=  4 NonCon=     1 RMS=4.34D-06 Max=1.09D-04 NDo=     1
 LinEq1:  Iter=  5 NonCon=     1 RMS=2.56D-06 Max=6.22D-05 NDo=     1
 LinEq1:  Iter=  6 NonCon=     1 RMS=1.20D-06 Max=3.46D-05 NDo=     1
 LinEq1:  Iter=  7 NonCon=     1 RMS=3.96D-07 Max=1.14D-05 NDo=     1
 LinEq1:  Iter=  8 NonCon=     1 RMS=1.38D-07 Max=4.23D-06 NDo=     1
 LinEq1:  Iter=  9 NonCon=     1 RMS=4.34D-08 Max=1.31D-06 NDo=     1
 LinEq1:  Iter= 10 NonCon=     1 RMS=1.83D-08 Max=5.86D-07 NDo=     1
 LinEq1:  Iter= 11 NonCon=     1 RMS=8.87D-09 Max=2.84D-07 NDo=     1
 LinEq1:  Iter= 12 NonCon=     1 RMS=3.08D-09 Max=1.14D-07 NDo=     1
 LinEq1:  Iter= 13 NonCon=     0 RMS=1.25D-09 Max=3.13D-08 NDo=     1
 Linear equations converged to 1.039D-08 1.039D-07 after    13 iterations.
     Accept linear search using points  1 and  2.
 Gradient too large for Newton-Raphson -- use scaled steepest descent instead.
     Accept linear search using points  2 and  3.
 Gradient too large for Newton-Raphson -- use scaled steepest descent instead.
 Gradient too large for Newton-Raphson -- use scaled steepest descent instead.
     Accept linear search using points  1 and  2.
     Minimum is close to point  2 DX= -1.15D-01 DF= -6.59D-05 DXR=  8.98D-02 DFR=  1.28D-02 which will be used.
 Gradient too large for Newton-Raphson -- use scaled steepest descent instead.
     Accept linear search using points  1 and  2.
 Gradient too large for Newton-Raphson -- use scaled steepest descent instead.
     Accept linear search using points  1 and  2.
     Minimum is close to point  2 DX= -5.64D-04 DF= -1.88D-09 DXR=  4.71D-04 DFR=  3.09D-07 which will be used.
 Gradient too large for Newton-Raphson -- use scaled steepest descent instead.
     Minimum is close to point  2 DX=  6.65D-02 DF= -1.50D-05 DXR=  5.25D-02 DFR=  2.76D-03 which will be used.
 Gradient too large for Newton-Raphson -- use scaled steepest descent instead.
     Minimum is close to point  2 DX= -1.83D-04 DF= -1.03D-10 DXR=  1.52D-04 DFR=  2.31D-08 which will be used.
 Gradient too large for Newton-Raphson -- use scaled steepest descent instead.
     Accept linear search using points  1 and  2.
     Minimum is close to point  2 DX= -7.39D-02 DF= -1.96D-05 DXR=  6.56D-02 DFR=  5.73D-03 which will be used.
 Gradient too large for Newton-Raphson -- use scaled steepest descent instead.
     Accept linear search using points  1 and  2.
 Gradient too large for Newton-Raphson -- use scaled steepest descent instead.
     Minimum is close to point  2 DX=  2.59D-02 DF= -1.06D-06 DXR=  2.30D-02 DFR=  5.31D-04 which will be used.
 Gradient too large for Newton-Raphson -- use scaled steepest descent instead.
     Minimum is close to point  2 DX=  1.41D-02 DF= -2.45D-07 DXR=  1.27D-02 DFR=  1.61D-04 which will be used.
 Gradient too large for Newton-Raphson -- use scaled steepest descent instead.
     Minimum is close to point  2 DX=  8.62D-03 DF= -6.92D-08 DXR=  7.78D-03 DFR=  6.05D-05 which will be used.
 Gradient too large for Newton-Raphson -- use scaled steepest descent instead.
     Accept linear search using points  1 and  2.
     Minimum is close to point  2 DX= -1.89D-03 DF= -3.01D-09 DXR=  1.72D-03 DFR=  3.54D-06 which will be used.
 Gradient too large for Newton-Raphson -- use scaled steepest descent instead.
     Accept linear search using points  1 and  2.
     Minimum is close to point  2 DX= -6.07D-03 DF= -2.30D-08 DXR=  5.55D-03 DFR=  3.67D-05 which will be used.
 Gradient too large for Newton-Raphson -- use scaled steepest descent instead.
     Accept linear search using points  1 and  2.
     Minimum is close to point  2 DX= -1.22D-02 DF= -6.85D-08 DXR=  1.12D-02 DFR=  1.50D-04 which will be used.
 Gradient too large for Newton-Raphson -- use scaled steepest descent instead.
     Accept linear search using points  1 and  2.
     Minimum is close to point  2 DX= -1.50D-02 DF= -7.49D-08 DXR=  1.38D-02 DFR=  2.27D-04 which will be used.
 Gradient too large for Newton-Raphson -- use scaled steepest descent instead.
     Accept linear search using points  1 and  2.
     Minimum is close to point  2 DX= -1.92D-02 DF= -8.89D-08 DXR=  1.78D-02 DFR=  3.75D-04 which will be used.
 LinEq1:  Iter=  0 NonCon=     1 RMS=2.13D-04 Max=8.51D-03 NDo=     1
 LinEq1:  Iter=  1 NonCon=     1 RMS=1.60D-04 Max=4.72D-03 NDo=     1
 LinEq1:  Iter=  2 NonCon=     1 RMS=1.16D-05 Max=7.16D-04 NDo=     1
 LinEq1:  Iter=  3 NonCon=     1 RMS=2.08D-06 Max=5.39D-05 NDo=     1
 LinEq1:  Iter=  4 NonCon=     1 RMS=4.52D-07 Max=8.85D-06 NDo=     1
 LinEq1:  Iter=  5 NonCon=     1 RMS=1.85D-07 Max=4.54D-06 NDo=     1
 LinEq1:  Iter=  6 NonCon=     1 RMS=5.69D-08 Max=1.42D-06 NDo=     1
 LinEq1:  Iter=  7 NonCon=     1 RMS=1.75D-08 Max=4.13D-07 NDo=     1
 LinEq1:  Iter=  8 NonCon=     0 RMS=5.12D-09 Max=8.24D-08 NDo=     1
 Linear equations converged to 1.039D-08 1.039D-07 after     8 iterations.
     Accept linear search using points  1 and  2.
     Minimum is close to point  2 DX= -8.16D-02 DF= -4.88D-06 DXR=  8.89D-02 DFR=  8.44D-03 which will be used.
 LinEq1:  Iter=  0 NonCon=     1 RMS=2.41D-05 Max=9.13D-04 NDo=     1
 LinEq1:  Iter=  1 NonCon=     1 RMS=9.36D-06 Max=2.45D-04 NDo=     1
 LinEq1:  Iter=  2 NonCon=     1 RMS=3.53D-06 Max=7.10D-05 NDo=     1
 LinEq1:  Iter=  3 NonCon=     1 RMS=1.57D-06 Max=4.46D-05 NDo=     1
 LinEq1:  Iter=  4 NonCon=     1 RMS=5.08D-07 Max=1.50D-05 NDo=     1
 LinEq1:  Iter=  5 NonCon=     1 RMS=1.44D-07 Max=3.08D-06 NDo=     1
 LinEq1:  Iter=  6 NonCon=     1 RMS=4.59D-08 Max=9.43D-07 NDo=     1
 LinEq1:  Iter=  7 NonCon=     1 RMS=1.51D-08 Max=2.67D-07 NDo=     1
 LinEq1:  Iter=  8 NonCon=     1 RMS=5.09D-09 Max=1.18D-07 NDo=     1
 LinEq1:  Iter=  9 NonCon=     0 RMS=1.51D-09 Max=2.79D-08 NDo=     1
 Linear equations converged to 8.140D-09 8.140D-08 after     9 iterations.
     Minimum is close to point  2 DX=  1.84D-02 DF= -2.30D-09 DXR=  1.80D-02 DFR=  3.25D-04 which will be used.
 LinEq1:  Iter=  0 NonCon=     1 RMS=3.69D-07 Max=1.52D-05 NDo=     1
 LinEq1:  Iter=  1 NonCon=     1 RMS=1.31D-07 Max=3.89D-06 NDo=     1
 LinEq1:  Iter=  2 NonCon=     1 RMS=4.00D-08 Max=8.65D-07 NDo=     1
 LinEq1:  Iter=  3 NonCon=     1 RMS=1.34D-08 Max=3.45D-07 NDo=     1
 LinEq1:  Iter=  4 NonCon=     1 RMS=4.75D-09 Max=1.26D-07 NDo=     1
 LinEq1:  Iter=  5 NonCon=     1 RMS=1.38D-09 Max=3.06D-08 NDo=     1
 LinEq1:  Iter=  6 NonCon=     1 RMS=6.77D-10 Max=1.54D-08 NDo=     1
 LinEq1:  Iter=  7 NonCon=     1 RMS=2.67D-10 Max=5.10D-09 NDo=     1
 LinEq1:  Iter=  8 NonCon=     1 RMS=9.74D-11 Max=2.18D-09 NDo=     1
 LinEq1:  Iter=  9 NonCon=     0 RMS=3.30D-11 Max=5.68D-10 NDo=     1
 Linear equations converged to 1.471D-10 1.471D-09 after     9 iterations.
 SCF Done:  E(UPM6) =   1.44864702587     a.u. after   52 cycles
            Convg  =    0.2578D-06                   155 Fock formations.
              S**2 =  4.3608                  -V/T =  1.0136
 <Sx>= 0.0000 <Sy>= 0.0000 <Sz>= 0.5000 <S**2>= 4.3608 S= 1.6473
 <L.S>= 0.000000000000E+00
 Annihilation of the first spin contaminant:
 S**2 before annihilation     4.3608,   after    14.9533

 **********************************************************************

            Population analysis using the SCF density.

 **********************************************************************

 Orbital symmetries:
 Alpha Orbitals:
       Occupied  (A) (A) (A) (A) (A) (A) (A) (A) (A) (A) (A) (A)
                 (A) (A) (A) (A) (A) (A) (A) (A) (A) (A) (A) (A)
                 (A) (A) (A) (A) (A) (A) (A) (A) (A) (A) (A) (A)
                 (A) (A) (A) (A) (A) (A) (A) (A) (A) (A) (A) (A)
                 (A) (A) (A) (A) (A) (A) (A) (A) (A) (A) (A) (A)
                 (A) (A) (A) (A) (A) (A) (A) (A) (A) (A) (A) (A)
                 (A) (A) (A)
       Virtual   (A) (A) (A) (A) (A) (A) (A) (A) (A) (A) (A) (A)
                 (A) (A) (A) (A) (A) (A) (A) (A) (A) (A) (A) (A)
                 (A) (A) (A) (A) (A) (A) (A) (A) (A) (A) (A) (A)
                 (A) (A) (A) (A) (A) (A) (A) (A) (A) (A) (A) (A)
                 (A) (A) (A) (A) (A) (A) (A) (A) (A) (A) (A) (A)
                 (A) (A) (A) (A) (A) (A) (A) (A) (A) (A) (A) (A)
 Beta  Orbitals:
       Occupied  (A) (A) (A) (A) (A) (A) (A) (A) (A) (A) (A) (A)
                 (A) (A) (A) (A) (A) (A) (A) (A) (A) (A) (A) (A)
                 (A) (A) (A) (A) (A) (A) (A) (A) (A) (A) (A) (A)
                 (A) (A) (A) (A) (A) (A) (A) (A) (A) (A) (A) (A)
                 (A) (A) (A) (A) (A) (A) (A) (A) (A) (A) (A) (A)
                 (A) (A) (A) (A) (A) (A) (A) (A) (A) (A) (A) (A)
                 (A) (A)
       Virtual   (A) (A) (A) (A) (A) (A) (A) (A) (A) (A) (A) (A)
                 (A) (A) (A) (A) (A) (A) (A) (A) (A) (A) (A) (A)
                 (A) (A) (A) (A) (A) (A) (A) (A) (A) (A) (A) (A)
                 (A) (A) (A) (A) (A) (A) (A) (A) (A) (A) (A) (A)
                 (A) (A) (A) (A) (A) (A) (A) (A) (A) (A) (A) (A)
                 (A) (A) (A) (A) (A) (A) (A) (A) (A) (A) (A) (A)
                 (A)
 The electronic state is 2-A.
 Alpha  occ. eigenvalues --   -1.55200  -1.19013  -1.17771  -1.13857  -1.10809
 Alpha  occ. eigenvalues --   -1.08543  -1.06934  -1.05645  -1.04088  -1.01860
 Alpha  occ. eigenvalues --   -1.00697  -0.96553  -0.95895  -0.93181  -0.91278
 Alpha  occ. eigenvalues --   -0.89764  -0.86833  -0.84037  -0.83558  -0.81991
 Alpha  occ. eigenvalues --   -0.80495  -0.80334  -0.75423  -0.74962  -0.73164
 Alpha  occ. eigenvalues --   -0.71486  -0.68821  -0.66856  -0.65372  -0.62656
 Alpha  occ. eigenvalues --   -0.62436  -0.61228  -0.60619  -0.59953  -0.58874
 Alpha  occ. eigenvalues --   -0.58590  -0.57795  -0.56718  -0.56132  -0.54988
 Alpha  occ. eigenvalues --   -0.54087  -0.53570  -0.53408  -0.52659  -0.51835
 Alpha  occ. eigenvalues --   -0.51595  -0.50921  -0.50771  -0.50296  -0.50042
 Alpha  occ. eigenvalues --   -0.48669  -0.48444  -0.48146  -0.47525  -0.46548
 Alpha  occ. eigenvalues --   -0.45829  -0.45385  -0.45004  -0.44901  -0.43677
 Alpha  occ. eigenvalues --   -0.41899  -0.41747  -0.40856  -0.38799  -0.37456
 Alpha  occ. eigenvalues --   -0.37011  -0.36645  -0.35623  -0.35342  -0.32766
 Alpha  occ. eigenvalues --   -0.30543  -0.26976  -0.26373  -0.24189  -0.23233
 Alpha virt. eigenvalues --   -0.05175  -0.04067  -0.02940  -0.01701  -0.01194
 Alpha virt. eigenvalues --   -0.00653   0.00137   0.01595   0.02416   0.02599
 Alpha virt. eigenvalues --    0.02798   0.03819   0.05356   0.06371   0.06641
 Alpha virt. eigenvalues --    0.07907   0.08228   0.09057   0.09120   0.09953
 Alpha virt. eigenvalues --    0.10385   0.11564   0.11901   0.12618   0.12929
 Alpha virt. eigenvalues --    0.13033   0.13491   0.13860   0.14024   0.14197
 Alpha virt. eigenvalues --    0.14403   0.14682   0.14838   0.14974   0.15037
 Alpha virt. eigenvalues --    0.15423   0.15582   0.15814   0.16296   0.16337
 Alpha virt. eigenvalues --    0.16462   0.16615   0.16859   0.16928   0.16974
 Alpha virt. eigenvalues --    0.17359   0.17499   0.17986   0.18288   0.18458
 Alpha virt. eigenvalues --    0.18634   0.18707   0.19200   0.19643   0.19690
 Alpha virt. eigenvalues --    0.19931   0.20007   0.20149   0.20239   0.20547
 Alpha virt. eigenvalues --    0.20632   0.20758   0.20767   0.20987   0.21025
 Alpha virt. eigenvalues --    0.21165   0.21641   0.22059   0.22625   1.34074
 Alpha virt. eigenvalues --    1.36452   1.37953
  Beta  occ. eigenvalues --   -1.55342  -1.19119  -1.17493  -1.13818  -1.10780
  Beta  occ. eigenvalues --   -1.08531  -1.06789  -1.05627  -1.04054  -1.01839
  Beta  occ. eigenvalues --   -1.00704  -0.96501  -0.95868  -0.93158  -0.91241
  Beta  occ. eigenvalues --   -0.89826  -0.86838  -0.84053  -0.83389  -0.81934
  Beta  occ. eigenvalues --   -0.80498  -0.80343  -0.75470  -0.74968  -0.73231
  Beta  occ. eigenvalues --   -0.71414  -0.68611  -0.66851  -0.65366  -0.62693
  Beta  occ. eigenvalues --   -0.62395  -0.61388  -0.60643  -0.59926  -0.59018
  Beta  occ. eigenvalues --   -0.58493  -0.57826  -0.57017  -0.56074  -0.55085
  Beta  occ. eigenvalues --   -0.53907  -0.53477  -0.53404  -0.52606  -0.51867
  Beta  occ. eigenvalues --   -0.51589  -0.51427  -0.50850  -0.50367  -0.50124
  Beta  occ. eigenvalues --   -0.48610  -0.48478  -0.48042  -0.47325  -0.46452
  Beta  occ. eigenvalues --   -0.45747  -0.45533  -0.45281  -0.44882  -0.43946
  Beta  occ. eigenvalues --   -0.41984  -0.41753  -0.40891  -0.39013  -0.37438
  Beta  occ. eigenvalues --   -0.36845  -0.36592  -0.35642  -0.35334  -0.33240
  Beta  occ. eigenvalues --   -0.32311  -0.29822  -0.25073  -0.24435
  Beta virt. eigenvalues --   -0.11132  -0.09641  -0.05554  -0.02914  -0.01479
  Beta virt. eigenvalues --   -0.01140  -0.00803  -0.00341   0.01622   0.02207
  Beta virt. eigenvalues --    0.02516   0.03527   0.04136   0.05037   0.06570
  Beta virt. eigenvalues --    0.06710   0.07816   0.08217   0.09114   0.09399
  Beta virt. eigenvalues --    0.09696   0.10293   0.11587   0.11838   0.12654
  Beta virt. eigenvalues --    0.12941   0.13031   0.13418   0.13818   0.14097
  Beta virt. eigenvalues --    0.14193   0.14404   0.14727   0.14803   0.14976
  Beta virt. eigenvalues --    0.15004   0.15445   0.15596   0.15821   0.16218
  Beta virt. eigenvalues --    0.16324   0.16490   0.16660   0.16787   0.16927
  Beta virt. eigenvalues --    0.17024   0.17303   0.17489   0.18015   0.18308
  Beta virt. eigenvalues --    0.18457   0.18577   0.18738   0.19201   0.19608
  Beta virt. eigenvalues --    0.19697   0.19841   0.20214   0.20298   0.20349
  Beta virt. eigenvalues --    0.20408   0.20550   0.20793   0.20862   0.21048
  Beta virt. eigenvalues --    0.21096   0.21154   0.21734   0.21770   0.22545
  Beta virt. eigenvalues --    1.35332   1.37236   1.38571
          Condensed to atoms (all electrons):
               1          2          3          4          5          6
     1  C    4.125817   0.000000   0.000000   0.000000   0.000000   0.000000
     2  C    0.000000   4.185451   0.000000   0.000000   0.000000   0.000000
     3  C    0.000000   0.000000   3.934587   0.000000   0.000000   0.000000
     4  C    0.000000   0.000000   0.000000   3.966137   0.000000   0.000000
     5  C    0.000000   0.000000   0.000000   0.000000   4.123848   0.000000
     6  C    0.000000   0.000000   0.000000   0.000000   0.000000   4.187196
     7  C    0.000000   0.000000   0.000000   0.000000   0.000000   0.000000
     8  C    0.000000   0.000000   0.000000   0.000000   0.000000   0.000000
     9  C    0.000000   0.000000   0.000000   0.000000   0.000000   0.000000
    10  C    0.000000   0.000000   0.000000   0.000000   0.000000   0.000000
    11  C    0.000000   0.000000   0.000000   0.000000   0.000000   0.000000
    12  C    0.000000   0.000000   0.000000   0.000000   0.000000   0.000000
    13  C    0.000000   0.000000   0.000000   0.000000   0.000000   0.000000
    14  C    0.000000   0.000000   0.000000   0.000000   0.000000   0.000000
    15  C    0.000000   0.000000   0.000000   0.000000   0.000000   0.000000
    16  C    0.000000   0.000000   0.000000   0.000000   0.000000   0.000000
    17  C    0.000000   0.000000   0.000000   0.000000   0.000000   0.000000
    18  C    0.000000   0.000000   0.000000   0.000000   0.000000   0.000000
    19  C    0.000000   0.000000   0.000000   0.000000   0.000000   0.000000
    20  C    0.000000   0.000000   0.000000   0.000000   0.000000   0.000000
    21  C    0.000000   0.000000   0.000000   0.000000   0.000000   0.000000
    22  C    0.000000   0.000000   0.000000   0.000000   0.000000   0.000000
    23  C    0.000000   0.000000   0.000000   0.000000   0.000000   0.000000
    24  C    0.000000   0.000000   0.000000   0.000000   0.000000   0.000000
    25  C    0.000000   0.000000   0.000000   0.000000   0.000000   0.000000
    26  C    0.000000   0.000000   0.000000   0.000000   0.000000   0.000000
    27  C    0.000000   0.000000   0.000000   0.000000   0.000000   0.000000
    28  C    0.000000   0.000000   0.000000   0.000000   0.000000   0.000000
    29  C    0.000000   0.000000   0.000000   0.000000   0.000000   0.000000
    30  H    0.000000   0.000000   0.000000   0.000000   0.000000   0.000000
    31  H    0.000000   0.000000   0.000000   0.000000   0.000000   0.000000
    32  H    0.000000   0.000000   0.000000   0.000000   0.000000   0.000000
    33  H    0.000000   0.000000   0.000000   0.000000   0.000000   0.000000
    34  H    0.000000   0.000000   0.000000   0.000000   0.000000   0.000000
    35  H    0.000000   0.000000   0.000000   0.000000   0.000000   0.000000
    36  H    0.000000   0.000000   0.000000   0.000000   0.000000   0.000000
    37  H    0.000000   0.000000   0.000000   0.000000   0.000000   0.000000
    38  H    0.000000   0.000000   0.000000   0.000000   0.000000   0.000000
    39  H    0.000000   0.000000   0.000000   0.000000   0.000000   0.000000
    40  H    0.000000   0.000000   0.000000   0.000000   0.000000   0.000000
    41  H    0.000000   0.000000   0.000000   0.000000   0.000000   0.000000
    42  H    0.000000   0.000000   0.000000   0.000000   0.000000   0.000000
    43  H    0.000000   0.000000   0.000000   0.000000   0.000000   0.000000
    44  Co   0.000000   0.000000   0.000000   0.000000   0.000000   0.000000
    45  C    0.000000   0.000000   0.000000   0.000000   0.000000   0.000000
    46  O    0.000000   0.000000   0.000000   0.000000   0.000000   0.000000
               7          8          9         10         11         12
     1  C    0.000000   0.000000   0.000000   0.000000   0.000000   0.000000
     2  C    0.000000   0.000000   0.000000   0.000000   0.000000   0.000000
     3  C    0.000000   0.000000   0.000000   0.000000   0.000000   0.000000
     4  C    0.000000   0.000000   0.000000   0.000000   0.000000   0.000000
     5  C    0.000000   0.000000   0.000000   0.000000   0.000000   0.000000
     6  C    0.000000   0.000000   0.000000   0.000000   0.000000   0.000000
     7  C    4.160728   0.000000   0.000000   0.000000   0.000000   0.000000
     8  C    0.000000   4.210013   0.000000   0.000000   0.000000   0.000000
     9  C    0.000000   0.000000   4.172291   0.000000   0.000000   0.000000
    10  C    0.000000   0.000000   0.000000   4.009897   0.000000   0.000000
    11  C    0.000000   0.000000   0.000000   0.000000   3.938319   0.000000
    12  C    0.000000   0.000000   0.000000   0.000000   0.000000   4.134109
    13  C    0.000000   0.000000   0.000000   0.000000   0.000000   0.000000
    14  C    0.000000   0.000000   0.000000   0.000000   0.000000   0.000000
    15  C    0.000000   0.000000   0.000000   0.000000   0.000000   0.000000
    16  C    0.000000   0.000000   0.000000   0.000000   0.000000   0.000000
[...]
 0.00001681,-0.00000960,0.00041643,0.00002028,-0.00007264,0.00001964,0.
 00006410,-0.00000494,0.00007959,-0.00002347,0.00002696,-0.02533178,0.0
 1473280,0.00626485,-0.00007359,-0.00001264,-0.00003605,0.00003223,-0.0
 0001489,-0.00000477,0.00045611,0.00055293,-0.00027160,0.00004708,0.000
 08430,0.00000926,0.00001419,0.00002995,0.00000361,-0.00000684,0.000042
 27,-0.00000274,-0.00001437,0.00001860,-0.00000464,-0.00001386,0.000013
 45,-0.00000734,-0.00001849,0.00000015,-0.00000866,-0.00001449,-0.00001
 319,-0.00000659,-0.00001405,-0.00002134,-0.00000333,-0.00000672,-0.000
 04104,-0.00000349,0.00001575,-0.00003809,-0.00000511,0.00004843,-0.000
 07793,0.00000435,0.00045318,-0.00052090,-0.00028586,0.26282478,-0.0000
 0038,-0.00000827,-0.00000132,-0.00003340,-0.00000044,0.00000452,-0.000
 01230,-0.00009492,-0.00000536,-0.00102815,-0.00234838,-0.00005945,-0.0
 0058933,-0.03358799,0.00033837,-0.00051496,-0.00002558,0.00011006,-0.0
 2858939,-0.00752235,0.00501196,-0.00000048,0.00000034,0.00000175,-0.00
 000007,0.00000103,0.00000024,-0.00000233,0.00000119,0.00000272,0.00000
 118,-0.00000146,0.00000062,-0.00000003,0.00000012,0.00000012,0.0000072
 8,-0.00000731,-0.00000814,-0.00000043,0.00000178,-0.00000078,-0.000000
 16,0.00000075,-0.00000014,-0.00000591,0.00000019,0.00001294,-0.0000122
 0,-0.00000753,0.00000168,-0.00000106,-0.00000104,-0.00000113,0.0010017
 6,-0.00232332,-0.00036250,0.00001693,-0.00007735,0.00001000,0.00000131
 ,-0.00001282,-0.00000011,0.00000124,-0.00000239,0.00000010,-0.00000047
 ,-0.00000059,0.00000023,0.00000643,-0.00012159,-0.00000881,-0.00000309
 ,-0.00000763,0.00000339,0.00000629,-0.00000317,0.00000219,0.02835385,-
 0.00714575,-0.00575105,0.00050772,-0.00001578,-0.00010564,0.00003407,-
 0.00000293,-0.00001006,0.00089158,-0.00032609,-0.00014686,0.00002889,0
 .00006010,-0.00001154,0.00000495,0.00000954,-0.00000063,0.00000059,0.0
 0000577,0.00000001,-0.00000123,0.00000183,-0.00000051,-0.00000026,0.00
 000034,-0.00000028,-0.00000006,0.00000024,-0.00000008,0.00000032,0.000
 00023,0.00000015,0.00000116,0.00000174,-0.00000003,-0.00000090,0.00000
 507,0.00000051,-0.00000490,0.00001034,0.00000164,-0.00002893,0.0000584
 0,0.00000848,-0.00088364,-0.00034081,0.00018766,0.00084920,0.05382322,
 -0.00000044,-0.00000346,0.00000581,-0.00000388,-0.00000399,0.00000511,
 -0.00003537,0.00002547,-0.00018669,0.00101435,-0.00011481,0.00460941,0
 .03234706,0.00042464,-0.04674822,-0.00000471,0.00003225,-0.00026201,0.
 00490844,0.00235161,0.00493079,-0.00000182,-0.00000578,-0.00000863,-0.
 00000143,-0.00000226,-0.00000287,-0.00000847,0.00000068,0.00000556,-0.
 00000309,-0.00000044,-0.00000216,-0.00000356,0.00000046,-0.00000339,0.
 00003804,-0.00005101,-0.00001311,-0.00000596,-0.00000834,-0.00000736,-
 0.00000145,0.00000239,-0.00000299,-0.00006353,0.00006155,-0.00048756,0
 .00005671,0.00004729,0.00003559,-0.00000137,0.00000573,-0.00000338,0.0
 0111212,-0.00034425,0.00485819,-0.00003617,-0.00005492,-0.00021254,0.0
 0000113,0.00000463,0.00000211,-0.00002289,-0.00001468,0.00001818,-0.00
 000057,0.00000043,-0.00000009,-0.00009459,0.00003179,0.00009072,-0.000
 01428,-0.00001514,-0.00001660,-0.00001015,-0.00000052,-0.00000889,0.00
 668892,-0.00319561,0.00438426,0.00000306,0.00000240,-0.00025877,-0.000
 00274,0.00000969,0.00001248,-0.00028293,-0.00008520,-0.00103360,0.0000
 0574,-0.00000948,0.00008939,-0.00000176,-0.00000547,0.00000812,0.00000
 223,-0.00000853,0.00000279,0.00000230,-0.00000520,0.00000496,0.0000020
 6,-0.00000422,0.00000350,0.00000444,-0.00000004,0.00000393,0.00000211,
 0.00000398,0.00000322,0.00000276,0.00000493,0.00000416,0.00000215,0.00
 000796,0.00000330,-0.00000314,0.00000762,0.00000896,0.00000096,0.00000
 862,0.00008461,-0.00031332,0.00011884,-0.00093796,-0.04526267,0.000772
 62,0.03097912,0.00111688,0.00064063,-0.00021936,-0.00006774,0.00049032
 ,0.00015205,-0.00167427,-0.00072400,0.00009266,-0.00008572,0.00014616,
 0.00007867,-0.00012699,0.00003070,0.00003431,-0.00071457,0.00079966,0.
 00016537,-0.00018570,0.00000754,0.00003956,-0.00021570,0.00005629,0.00
 049234,-0.00101823,-0.00200055,-0.00072321,0.00183880,0.00354312,0.000
 79984,-0.01122057,-0.00595770,-0.00757365,-0.00052800,-0.00032953,-0.0
 0041826,-0.02723184,0.02220002,0.02850585,-0.05067260,0.00654248,-0.04
 872059,0.00014445,0.00246217,-0.00078485,0.00009186,0.00038095,0.00069
 915,-0.02426588,-0.02325786,0.01892845,0.00033202,0.00077737,0.0001455
 5,-0.00021640,-0.00012893,0.00008560,-0.00183882,0.00039825,0.00015021
 ,0.00082872,-0.00074954,-0.00023896,-0.01049582,0.01170684,0.00579100,
 -0.01121166,0.00505422,-0.00867393,-0.00052134,-0.00014415,0.00031407,
 -0.00804312,-0.01087581,0.00129938,0.00072692,-0.00159579,0.00027402,-
 0.00011230,-0.00010309,0.00000545,-0.00048401,-0.00075049,0.00031623,0
 .00010774,-0.00027685,0.00003315,0.00004067,0.00006361,-0.00000108,-0.
 00004636,0.00011363,0.00003884,0.00002421,0.00003451,0.00005764,-0.000
 14942,0.00000159,0.00004982,-0.00017426,0.00010141,0.00003260,-0.00038
 767,-0.00003809,-0.00012915,0.00001487,-0.00001428,-0.00002670,-0.0003
 4052,0.00003835,-0.00015957,-0.00015777,-0.00018425,-0.00003108,-0.000
 16876,-0.00004206,0.00008667,0.00009067,-0.00013922,0.00005617,-0.0000
 5710,-0.00011454,0.00004733,0.00004503,-0.00004982,-0.00000482,0.00007
 716,-0.00000100,-0.00000937,0.15016577,-0.00100027,-0.00258505,-0.0002
 5299,0.00014751,-0.00039016,-0.00019410,0.00136686,0.00119722,-0.00035
 854,-0.00001893,0.00012275,-0.00001524,-0.00000738,-0.00005760,-0.0000
 0303,0.00020558,-0.00037587,-0.00004465,0.00007458,0.00008031,-0.00002
 705,-0.00005400,0.00043119,0.00108542,-0.00068298,-0.00018058,-0.00040
 406,0.00313319,-0.01605879,-0.00639670,-0.00602059,-0.00131090,-0.0040
 2396,0.00007475,0.00047088,0.00003056,0.03087942,-0.03732680,-0.034956
 76,0.00117054,-0.00269343,0.00428982,0.00045104,-0.00110293,0.00016254
 ,0.00005684,0.00081288,0.00032515,-0.02724798,-0.04398562,0.02881451,0
 .00023944,-0.00031220,0.00078471,0.00010426,-0.00006733,-0.00000525,-0
 .00134942,0.00080950,-0.00036136,0.00133266,-0.00237389,0.00025279,0.0
 0739755,-0.00448218,-0.00396167,0.00830955,0.00070293,0.00429953,0.000
 15154,-0.00009562,0.00015840,-0.00637485,-0.00567923,0.00125741,-0.004
 46307,-0.01437017,0.00148336,-0.00012262,0.00008458,-0.00001111,-0.000
 45922,-0.00018785,0.00020258,-0.00011254,-0.00037950,-0.00000685,0.000
 00048,-0.00002146,0.00001152,-0.00004544,0.00001064,0.00006763,0.00003
 181,0.00006325,0.00008457,-0.00034425,-0.00032790,0.00013052,-0.000205
 90,-0.00012817,0.00029272,0.00024534,0.00014229,0.00008523,-0.00013616
 ,-0.00000254,-0.00003372,-0.00015782,-0.00009477,0.00000375,-0.0001635
 0,-0.00026774,0.00006252,0.00030181,-0.00033210,-0.00009146,-0.0000182
 9,-0.00001668,-0.00008789,0.00007340,0.00001950,-0.00000952,-0.0000000
 3,-0.00000868,-0.00000071,-0.00000573,0.00000106,0.00000848,0.00314755
 ,0.14207130,-0.00132799,-0.00197641,0.00192472,0.00039659,-0.00033316,
 0.00005653,0.00145674,0.00072518,0.00219611,-0.00003133,0.00002479,0.0
 0002928,0.00020736,-0.00010023,-0.00002882,0.00058702,-0.00089378,-0.0
 0011902,0.00026265,-0.00006274,-0.00001814,0.00005531,0.00060123,0.000
 04066,-0.00193196,-0.00216159,0.00203261,0.00395501,-0.00997309,-0.002
 11364,-0.01161892,-0.00417468,-0.00484213,-0.00062757,-0.00014053,-0.0
 0015969,0.02027286,-0.01580638,-0.03827452,-0.02746973,0.00800547,-0.0
 5572295,-0.00151988,0.00285455,0.00199530,-0.00090208,-0.00048429,-0.0
 0014887,-0.00178393,-0.00259462,-0.01305380,-0.00059245,-0.00007431,-0
 .00053606,0.00014458,-0.00007847,0.00002075,0.00150083,-0.00032021,0.0
 0007174,-0.00170989,0.00169558,-0.00025728,0.00686585,-0.00819306,-0.0
 0239809,-0.01249352,0.00397149,-0.00613190,0.00058051,0.00000744,-0.00
 002143,0.00319665,0.00604959,0.00065647,0.00445829,0.00654614,0.000950
 00,0.00009314,0.00014697,0.00002077,0.00035926,0.00082699,-0.00020075,
 0.00050528,0.00036428,0.00000256,-0.00014080,-0.00018767,0.00001222,-0
 .00008441,-0.00029500,0.00001659,-0.00016039,-0.00034621,0.00008018,0.
 00049120,-0.00003571,0.00000116,0.00019613,-0.00043493,0.00007526,-0.0
 0015600,-0.00050287,-0.00019387,0.00069174,-0.00004826,-0.00020663,-0.
 00008736,0.00046748,-0.00014841,0.00018342,0.00037927,0.00004009,0.000
 45876,0.00007172,-0.00008781,-0.00023921,0.00040502,-0.00029435,-0.000
 06616,0.00031144,-0.00003795,-0.00014378,0.00019937,0.00001504,-0.0002
 4856,-0.00000087,0.00003352,0.01977707,0.02256637,0.11900197,-0.000509
 36,-0.00029423,-0.00021913,0.00005973,-0.00000700,-0.00000951,0.000154
 29,0.00022421,0.00003805,0.00001147,-0.00006842,-0.00000275,-0.0000093
 2,0.00006578,-0.00000208,0.00006957,-0.00015802,-0.00002003,-0.0000334
 8,-0.00001647,0.00002581,-0.00002144,0.00031260,0.00009705,-0.00025079
 ,0.00029098,0.00013890,0.00171907,-0.00044157,0.00019477,0.00069052,-0
 .00097719,0.00110837,-0.00004793,-0.00002201,-0.00000175,-0.00408732,0
 .00256102,0.00121474,0.00063362,0.00083254,-0.00245417,-0.00008013,-0.
 00014338,-0.00013878,-0.00100638,0.00029413,0.00091535,-0.01761683,-0.
 00751496,-0.01654899,-0.00260107,-0.00043028,-0.00028050,-0.00009624,0
 .00008729,0.00003046,-0.00146419,-0.00054521,0.00038632,0.00037238,0.0
 0009006,-0.00058734,-0.00106288,-0.00127474,0.00002820,0.00082491,0.00
 148294,0.00005221,-0.00021944,0.00026381,-0.00035789,-0.00412530,0.005
 57404,0.01781884,0.00245332,0.00293754,-0.00712443,0.00010377,-0.00005
 398,-0.00001258,0.00009626,-0.00015717,-0.00030229,-0.00011629,-0.0000
 3723,-0.00002175,-0.00000915,-0.00000385,0.00002111,0.00000784,0.00000
 465,0.00012371,0.00002565,0.00007879,0.00019663,0.00000015,-0.00002503
 ,0.00001745,-0.00005463,0.00018298,0.00010282,0.00000738,0.00004667,0.
 00004467,-0.00003448,0.00000485,-0.00001971,0.00006764,-0.00006511,-0.
 00005962,-0.00002489,0.00003473,-0.00003037,0.00014026,-0.00002813,-0.
 00000294,-0.00002917,0.00005349,0.00002474,0.00000239,0.00004581,-0.00
 002750,-0.00001808,0.00002014,0.00000817,-0.00001671,0.00000243,0.0000
 0484,-0.00192560,-0.01010785,-0.00213690,0.11160918,0.00025000,-0.0000
 9825,0.00018664,-0.00015572,-0.00010243,0.00000784,0.00039307,0.000104
 97,-0.00027723,-0.00006982,-0.00001711,-0.00004599,-0.00002382,-0.0001
 1989,-0.00000766,-0.00022276,0.00000607,0.00001220,0.00004293,0.000032
 48,-0.00001842,0.00051054,0.00020540,0.00027119,-0.00001052,-0.0004962
 1,-0.00008876,-0.00129718,0.00050135,0.00080510,-0.00064614,0.00134439
 ,0.00056848,-0.00000475,0.00004717,0.00001250,0.00210780,0.00234369,0.
 00094760,0.00293267,0.00053160,0.00305691,-0.00005176,0.00038143,-0.00
 031254,0.00106206,-0.00242957,0.00073581,-0.00713742,-0.03345639,-0.03
 166328,-0.00031262,-0.00126239,0.00138269,0.00026774,0.00001397,-0.000
 00066,-0.00030998,0.00109279,-0.00096596,0.00059032,-0.00120010,-0.000
 74112,0.00078125,0.00073151,-0.00047020,-0.00040570,-0.00130585,-0.000
 24460,-0.00022545,-0.00002216,0.00003803,-0.00166227,0.00697643,0.0011
 6745,0.00852884,0.00310120,0.01646512,-0.00018315,-0.00002561,-0.00002
 147,-0.00023998,-0.00002253,-0.00002577,-0.00010186,-0.00015403,-0.000
 04555,0.00000451,0.00004046,0.00003771,0.00000119,0.00005613,0.0001355
 3,0.00000640,-0.00002779,0.00038691,-0.00001062,0.00002346,0.00039031,
 0.00043603,0.00001216,-0.00045411,-0.00007473,-0.00009163,0.00000390,0
 .00008366,0.00000101,0.00006105,-0.00001638,0.00012943,-0.00009274,0.0
 0004305,-0.00000245,-0.00004818,-0.00001981,0.00003552,-0.00005469,0.0
 0001177,-0.00000478,-0.00000514,0.00001652,-0.00000029,0.00004514,-0.0
 0000214,0.00001491,0.00001458,0.00001013,0.00000177,0.00001588,-0.0110
 9332,-0.01208702,-0.00604200,0.16330311,0.34939035,-0.00028464,-0.0003
 4043,-0.00015305,0.00001140,-0.00007641,-0.00004887,0.00017023,0.00030
 397,0.00002710,-0.00032446,-0.00016155,0.00004109,0.00008034,-0.000430
 99,-0.00003978,0.00011338,-0.00005910,-0.00008974,0.00023377,0.0001907
 1,-0.00007679,0.00002656,0.00012267,0.00080608,-0.00017462,-0.00059329
 ,-0.00021100,0.00139088,-0.00021694,-0.00007743,-0.00094391,0.00152394
 ,-0.00064166,-0.00008009,0.00001659,-0.00007674,-0.00323380,0.00195991
 ,0.00084559,0.00256273,-0.00267058,0.00180110,-0.00027819,0.00061237,-
 0.00016444,0.00004702,-0.00328947,-0.00055939,-0.00053262,-0.00291200,
 -0.18159703,-0.00430714,-0.00243660,-0.00139198,0.00095989,0.00004284,
 -0.00012619,0.00011377,0.00261365,-0.00080890,-0.00133973,-0.00106872,
 -0.00090226,0.00016096,-0.00089444,-0.00037270,-0.00028121,-0.00037727
 ,-0.00042390,-0.00026741,-0.00004579,0.00037685,0.02460414,-0.00616071
 ,-0.02696685,-0.01390680,0.01954832,-0.02815446,-0.00058652,0.00028527
 ,0.00003764,-0.00025859,-0.00012585,-0.00009811,0.00193335,-0.00017738
 ,-0.00071790,0.00001157,0.00003135,0.00005316,-0.00004293,0.00011998,0
 .00012186,0.00007320,0.00009040,0.00029100,-0.00019414,-0.00006557,0.0
 0013887,-0.00001493,0.00031677,0.00052342,-0.00006470,-0.00015424,-0.0
 0004441,0.00014667,0.00000595,0.00007816,-0.00009412,0.00017950,0.0000
 4582,0.00008482,0.00011801,-0.00003480,0.00014942,0.00000532,0.0000328
 0,-0.00003948,0.00009272,0.00003445,0.00002059,0.00003372,0.00003373,-
 0.00001434,0.00000596,0.00002467,0.00000744,0.00000764,0.00002797,-0.0
 0858669,-0.01172189,-0.00203904,0.21237690,0.42031719,0.82024750,0.000
 20306,0.00008754,0.00004438,-0.00001029,0.00000174,0.00000315,-0.00008
 126,-0.00013324,0.00000624,-0.00002197,0.00002357,-0.00000498,0.000009
 58,-0.00002850,0.00000529,-0.00002117,0.00005436,0.00001538,0.00002264
 ,0.00002317,0.00000729,0.00000258,-0.00013679,-0.00003786,0.00010021,-
 0.00014262,-0.00007846,-0.00048837,0.00016956,0.00003096,-0.00050802,0
 .00052996,-0.00048710,0.00002760,0.00003489,0.00000248,0.00125332,-0.0
 0148396,-0.00118033,-0.00038494,-0.00131614,0.00047452,0.00002155,0.00
 004004,0.00005936,0.00015268,-0.00026019,0.00002888,0.00389681,0.00330
 086,-0.00573050,0.00071796,0.00052112,-0.00005429,0.00008701,-0.000026
 76,-0.00003842,0.00003720,0.00029401,0.00022731,0.00002278,-0.00014770
 ,0.00018375,0.00024062,0.00056547,0.00009495,-0.00020086,-0.00070536,0
 .00000973,0.00002118,-0.00004190,0.00001619,-0.00190627,-0.00043170,0.
 00163709,-0.00179221,-0.00059418,-0.00252258,-0.00005080,0.00004628,0.
 00004334,-0.00004845,0.00005477,0.00010979,0.00011741,-0.00008747,0.00
 018315,-0.00000514,-0.00001647,-0.00002648,-0.00002076,-0.00002654,-0.
 00007844,-0.00003439,-0.00005601,-0.00012733,-0.00003222,-0.00003591,-
 0.00001810,-0.00008047,-0.00004292,0.00006934,0.00000497,-0.00003220,-
 0.00002498,0.00002094,-0.00000199,0.00001146,-0.00003730,0.00002953,0.
 00002283,0.00000654,-0.00001415,0.00001336,-0.00004767,0.00000899,0.00
 000546,0.00000240,-0.00001000,-0.00000794,-0.00000966,-0.00001166,-0.0
 0000066,0.00000162,-0.00000816,-0.00001091,-0.00000204,-0.00000181,-0.
 00001143,-0.00131947,0.00020777,-0.00122608,-0.08359925,-0.15709178,-0
 .20940844,0.08374473,-0.00002845,0.00002717,-0.00012211,0.00007300,0.0
 0003567,-0.00000070,-0.00023406,-0.00010549,0.00014538,0.00003877,0.00
 000015,0.00000675,0.00000119,0.00007580,0.00001288,0.00007791,0.000030
 10,0.00001248,-0.00003103,0.00000427,0.00002426,-0.00010378,-0.0002329
 5,-0.00012077,0.00003476,0.00012287,-0.00003648,0.00059142,-0.00036059
 ,-0.00029231,-0.00024608,0.00012115,-0.00030839,0.00004343,0.00003934,
 0.00000806,-0.00138018,-0.00233501,-0.00159313,-0.00189312,-0.00217452
 ,-0.00236941,-0.00001258,-0.00018495,0.00012029,-0.00000905,0.00075962
 ,-0.00040789,0.00405956,0.00872293,-0.01209354,0.00014392,0.00044628,-
 0.00021675,-0.00010059,0.00001519,-0.00002595,-0.00036880,-0.00029833,
 0.00042688,0.00030329,-0.00017466,0.00089172,-0.00039186,-0.00003853,0
 .00027214,0.00031303,-0.00004901,0.00035500,0.00005832,-0.00000502,0.0
 0006136,0.00002274,-0.00239852,-0.00180054,-0.00120556,-0.00292881,0.0
 0030525,0.00008393,0.00002599,0.00002863,0.00008610,-0.00001647,0.0001
 6306,-0.00006212,-0.00001952,0.00029773,-0.00000801,-0.00003558,-0.000
 03782,-0.00001778,-0.00005370,-0.00010985,-0.00001598,-0.00003785,-0.0
 0024219,-0.00004083,-0.00009707,-0.00025652,-0.00007564,-0.00003322,0.
 00000616,0.00004192,-0.00001750,-0.00001263,-0.00000250,-0.00000315,-0
 .00000831,-0.00001791,-0.00002807,0.00003841,-0.00001620,-0.00001096,0
 .00003088,0.00000006,-0.00002394,0.00003201,-0.00001131,0.00000834,0.0
 0000215,-0.00001752,-0.00000563,-0.00003338,-0.00000085,-0.00001658,-0
 .00001767,-0.00000414,-0.00000174,-0.00001749,-0.00017654,0.00027836,-
 0.00096374,-0.15637557,-0.31422491,-0.41456643,0.15686475,0.31521469,0
 .00019101,0.00014239,-0.00001031,0.00000005,0.00003562,0.00002545,-0.0
 0015902,-0.00021727,0.00000013,0.00007473,0.00005275,-0.00001095,-0.00
 000288,0.00009011,0.00001620,-0.00002901,0.00005516,0.00004957,-0.0000
 4207,-0.00002863,0.00002991,-0.00004898,-0.00016130,-0.00025834,0.0000
 4858,0.00024926,-0.00000345,-0.00034978,-0.00000706,0.00000533,0.00013
 790,-0.00031491,0.00010638,0.00004338,-0.00000218,0.00003341,0.0011662
 1,-0.00280280,-0.00140748,-0.00288490,-0.00049991,-0.00191606,0.000070
 85,-0.00034197,0.00005555,0.00023645,0.00073970,-0.00004576,-0.0078651
 9,-0.01772378,-0.06063985,0.00078240,0.00099143,0.00026683,-0.00016479
 ,-0.00004011,-0.00001232,-0.00005355,-0.00037522,-0.00023468,0.0004067
 1,0.00028997,-0.00006589,-0.00008495,0.00067065,0.00018613,0.00048667,
 0.00024347,0.00020259,0.00011609,-0.00001821,0.00004161,-0.00230596,-0
 .00101494,-0.00085984,-0.00038814,-0.00326588,-0.00058585,0.00011020,-
 0.00003015,0.00002203,0.00004292,0.00003415,0.00021347,-0.00024042,0.0
 0019948,0.00004719,-0.00001442,-0.00003040,-0.00003971,-0.00001531,-0.
 00005518,-0.00008840,-0.00003638,-0.00006599,-0.00014462,0.00002473,-0
 .00007153,-0.00011767,-0.00008414,-0.00010734,0.00001729,0.00005742,0.
 00003766,0.00001044,-0.00004278,-0.00000443,-0.00002310,0.00003223,-0.
 00005923,0.00000016,-0.00003503,-0.00005025,0.00001885,-0.00006551,-0.
 00000266,-0.00000164,0.00000899,-0.00002886,-0.00001414,-0.00002090,-0
 .00001167,-0.00002672,-0.00000057,-0.00000382,-0.00002144,-0.00001434,
 -0.00000418,-0.00001852,-0.00224412,-0.00349129,-0.00224318,-0.2046481
 2,-0.40541696,-0.57977721,0.21779063,0.43241205,0.64723841||-0.0000118
 7,0.00000512,0.00000119,0.00001014,0.00000945,0.00000039,0.00000243,-0
 .00001394,-0.00000292,-0.00000380,-0.00000155,0.00000077,-0.00000038,-
 0.00000666,-0.00000006,-0.00000585,0.00000357,0.00000114,0.00000435,0.
 00000331,-0.00000077,-0.00000175,-0.00000297,0.00000035,-0.00000946,0.
 00001169,-0.00000605,0.00000336,-0.00001123,-0.00000370,0.00001479,0.0
 0000661,-0.00000436,-0.00000020,-0.00001874,0.00000057,0.00003987,-0.0
 0003551,-0.00003216,0.00000911,-0.00000814,0.00002235,0.00001319,0.000
 01162,0.00000400,-0.00001072,-0.00000215,0.00000032,-0.00002611,-0.000
 06104,0.00003029,0.00001811,0.00000449,0.00000508,0.00000125,-0.000009
 94,0.00000009,0.00000817,-0.00000500,0.00000123,0.00001927,0.00000525,
 0.00000119,-0.00000847,0.00000539,0.00000042,-0.00002287,-0.00000669,-
 0.00000832,0.00000965,0.00000308,-0.00000242,0.00001820,0.00000039,-0.
 00000560,-0.00002016,0.00000453,-0.00000630,-0.00000049,0.00000652,-0.
 00000050,-0.00000659,0.00000850,-0.00000008,-0.00001402,0.00000956,-0.
 00000108,0.00000038,-0.00000113,-0.00000041,0.00000214,-0.00000041,0.0
 0000120,0.00000342,0.00000031,0.00000191,-0.00000439,0.00000078,-0.000
 00173,-0.00000503,0.00000181,-0.00000125,-0.00000235,-0.00000180,0.000
 00108,-0.00000013,0.00000243,-0.00000067,0.00000198,-0.00000241,-0.000
 00036,-0.00000051,-0.00000046,0.00000300,0.00000194,0.00000002,-0.0000
 0050,-0.00000107,-0.00000120,0.00000087,0.00000037,-0.00000137,-0.0000
 0068,-0.00000064,-0.00000088,0.00000012,0.00000057,0.00000120,0.000000
 07,-0.00001499,0.00009552,0.00001623,-0.00001889,-0.00001691,0.0000029
 5,0.00000806,0.00000897,-0.00001689|||@


 SUCCESS IS NEVER CERTAIN,
 FAILURE IS NEVER FINAL.
 Job cpu time:       0 days  0 hours  0 minutes 14.0 seconds.
 File lengths (MBytes):  RWF=    881 Int=      0 D2E=      0 Chk=      5 Scr=      1
 Normal termination of Gaussian 09 at Thu Mar 12 10:33:14 2026.
