 Entering Link 1 = C:\Gaussian\G09W\l1.exe PID=     16300.
  
 Copyright (c) 1988,1990,1992,1993,1995,1998,2003,2009,2013,
            Gaussian, Inc.  All Rights Reserved.
  
 This is part of the Gaussian(R) 09 program.  It is based on
 the Gaussian(R) 03 system (copyright 2003, Gaussian, Inc.),
 the Gaussian(R) 98 system (copyright 1998, Gaussian, Inc.),
 the Gaussian(R) 94 system (copyright 1995, Gaussian, Inc.),
 the Gaussian 92(TM) system (copyright 1992, Gaussian, Inc.),
 the Gaussian 90(TM) system (copyright 1990, Gaussian, Inc.),
 the Gaussian 88(TM) system (copyright 1988, Gaussian, Inc.),
 the Gaussian 86(TM) system (copyright 1986, Carnegie Mellon
 University), and the Gaussian 82(TM) system (copyright 1983,
 Carnegie Mellon University). Gaussian is a federally registered
 trademark of Gaussian, Inc.
  
 This software contains proprietary and confidential information,
 including trade secrets, belonging to Gaussian, Inc.
  
 This software is provided under written license and may be
 used, copied, transmitted, or stored only in accord with that
 written license.
  
 The following legend is applicable only to US Government
 contracts under FAR:
  
                    RESTRICTED RIGHTS LEGEND
  
 Use, reproduction and disclosure by the US Government is
 subject to restrictions as set forth in subparagraphs (a)
 and (c) of the Commercial Computer Software - Restricted
 Rights clause in FAR 52.227-19.
  
 Gaussian, Inc.
 340 Quinnipiac St., Bldg. 40, Wallingford CT 06492
  
  
 ---------------------------------------------------------------
 Warning -- This program may not be used in any manner that
 competes with the business of Gaussian, Inc. or will provide
 assistance to any competitor of Gaussian, Inc.  The licensee
 of this program is prohibited from giving any competitor of
 Gaussian, Inc. access to this program.  By using this program,
 the user acknowledges that Gaussian, Inc. is engaged in the
 business of creating and licensing software in the field of
 computational chemistry and represents and warrants to the
 licensee that it is not a competitor of Gaussian, Inc. and that
 it will not use this program in any manner prohibited above.
 ---------------------------------------------------------------
  

 Cite this work as:
 Gaussian 09, Revision D.01,
 M. J. Frisch, G. W. Trucks, H. B. Schlegel, G. E. Scuseria, 
 M. A. Robb, J. R. Cheeseman, G. Scalmani, V. Barone, B. Mennucci, 
 G. A. Petersson, H. Nakatsuji, M. Caricato, X. Li, H. P. Hratchian, 
 A. F. Izmaylov, J. Bloino, G. Zheng, J. L. Sonnenberg, M. Hada, 
 M. Ehara, K. Toyota, R. Fukuda, J. Hasegawa, M. Ishida, T. Nakajima, 
 Y. Honda, O. Kitao, H. Nakai, T. Vreven, J. A. Montgomery, Jr., 
 J. E. Peralta, F. Ogliaro, M. Bearpark, J. J. Heyd, E. Brothers, 
 K. N. Kudin, V. N. Staroverov, T. Keith, R. Kobayashi, J. Normand, 
 K. Raghavachari, A. Rendell, J. C. Burant, S. S. Iyengar, J. Tomasi, 
 M. Cossi, N. Rega, J. M. Millam, M. Klene, J. E. Knox, J. B. Cross, 
 V. Bakken, C. Adamo, J. Jaramillo, R. Gomperts, R. E. Stratmann, 
 O. Yazyev, A. J. Austin, R. Cammi, C. Pomelli, J. W. Ochterski, 
 R. L. Martin, K. Morokuma, V. G. Zakrzewski, G. A. Voth, 
 P. Salvador, J. J. Dannenberg, S. Dapprich, A. D. Daniels, 
 O. Farkas, J. B. Foresman, J. V. Ortiz, J. Cioslowski, 
 and D. J. Fox, Gaussian, Inc., Wallingford CT, 2013.
 
 ******************************************
 Gaussian 09:  IA32W-G09RevD.01 24-Apr-2013
                11-Mar-2026 
 ******************************************
 %chk=C:\Users\User\Desktop\IMRG\ECE+ML\Co_Gr_NS.chk
 ---------------------------------------
 # opt freq pm6 scf=qc geom=connectivity
 ---------------------------------------
 1/14=-1,18=20,19=15,26=1,38=1,57=2/1,3;
 2/9=110,12=2,17=6,18=5,40=1/2;
 3/5=2,16=1,25=1,41=3900000,71=1/1,2,3;
 4/35=1/1;
 5/5=2,8=3,35=1,38=5/8;
 6/7=2,8=2,9=2,10=2,28=1/1;
 7//1,2,3,16;
 1/14=-1,18=20,19=15,26=1/3(2);
 2/9=110/2;
 99//99;
 2/9=110/2;
 3/5=2,16=1,25=1,41=3900000,71=1,135=20/1,2,3;
 4/5=5,16=3,35=1/1;
 5/5=2,8=3,35=1,38=5/8;
 7//1,2,3,16;
 1/14=-1,18=20,19=15,26=1/3(-5);
 2/9=110/2;
 6/7=2,8=2,9=2,10=2,19=2,28=1/1;
 99/9=1/99;
 --------
 Co_Gr_NS
 --------
 Symbolic Z-matrix:
 Charge =  0 Multiplicity = 2
 C                    -1.48734   1.25527   0. 
 C                    -0.11458   1.26757   0.00021 
 C                     0.63784   2.49562   0.00024 
 C                     2.76155   3.73782  -0.0001 
 C                     4.87637   4.98541  -0.00058 
 C                     2.0603    2.51615  -0.00001 
 C                     4.19236   3.77104  -0.00038 
 C                    -3.68033   2.52318  -0.00036 
 C                    -5.85442   3.76459  -0.00032 
 C                    -2.22717   2.49171  -0.00016 
 C                    -4.4314    3.73294  -0.00038 
 C                    -6.52317   4.98925  -0.00022 
 C                    -1.49723   3.66543   0.00004 
 C                    -3.77063   4.98776  -0.00006 
 C                    -5.83173   6.21539  -0.00016 
 C                     0.61876   4.98443   0.00024 
 C                    -1.48853   6.30241   0.00019 
 C                    -3.64606   7.47395  -0.00004 
 C                     2.76334   6.23383  -0.00007 
 C                     0.64426   7.4887    0.0001 
 C                    -1.48605   8.7395   -0.00011 
 C                    -0.07268   3.72258   0.00025 
 C                    -4.42338   6.2256   -0.00018 
 C                     2.03942   4.98572   0.00009 
 C                    -0.08682   6.24592   0.00026 
 C                    -2.24783   7.50962   0.00012 
 C                     4.18329   6.20584  -0.00024 
 C                     2.05117   7.46407  -0.0001 
 C                    -0.10808   8.71832  -0.00011 
 H                     4.73683   7.14171  -0.00013 
 H                     2.60821   8.39816  -0.00027 
 H                     0.45062   9.65387  -0.00038 
 H                    -2.02415   9.68484  -0.0001 
 H                    -4.21082   8.4023   -0.00019 
 H                    -6.39162   7.1481   -0.0001 
 H                    -7.61353   5.00188  -0.00006 
 H                    -6.41745   2.83421  -0.00027 
 H                    -4.20834   1.57407  -0.00036 
 H                    -2.035     0.31468   0.00008 
 H                     0.44259   0.33017   0.00001 
 H                     2.60785   1.57708  -0.00018 
 H                     4.74181   2.8329   -0.00058 
 H                     5.96597   4.99136  -0.0008 
 Co                   -2.25175   4.98582   0.00002 
 

 GradGradGradGradGradGradGradGradGradGradGradGradGradGradGradGradGradGrad
 Berny optimization.
 Initialization pass.
                           ----------------------------
                           !    Initial Parameters    !
                           ! (Angstroms and Degrees)  !
 --------------------------                            --------------------------
 ! Name  Definition              Value          Derivative Info.                !
 --------------------------------------------------------------------------------
 ! R1    R(1,2)                  1.3728         estimate D2E/DX2                !
 ! R2    R(1,10)                 1.4409         estimate D2E/DX2                !
 ! R3    R(1,39)                 1.0884         estimate D2E/DX2                !
 ! R4    R(2,3)                  1.4402         estimate D2E/DX2                !
 ! R5    R(2,40)                 1.0905         estimate D2E/DX2                !
 ! R6    R(3,6)                  1.4226         estimate D2E/DX2                !
 ! R7    R(3,22)                 1.4178         estimate D2E/DX2                !
 ! R8    R(4,6)                  1.4086         estimate D2E/DX2                !
 ! R9    R(4,7)                  1.4312         estimate D2E/DX2                !
 ! R10   R(4,24)                 1.4418         estimate D2E/DX2                !
 ! R11   R(5,7)                  1.3938         estimate D2E/DX2                !
 ! R12   R(5,27)                 1.4035         estimate D2E/DX2                !
 ! R13   R(5,43)                 1.0896         estimate D2E/DX2                !
 ! R14   R(6,41)                 1.087          estimate D2E/DX2                !
 ! R15   R(7,42)                 1.0872         estimate D2E/DX2                !
 ! R16   R(8,10)                 1.4535         estimate D2E/DX2                !
 ! R17   R(8,11)                 1.4239         estimate D2E/DX2                !
 ! R18   R(8,38)                 1.0861         estimate D2E/DX2                !
 ! R19   R(9,11)                 1.4234         estimate D2E/DX2                !
 ! R20   R(9,12)                 1.3954         estimate D2E/DX2                !
 ! R21   R(9,37)                 1.0875         estimate D2E/DX2                !
 ! R22   R(10,13)                1.3822         estimate D2E/DX2                !
 ! R23   R(11,14)                1.4182         estimate D2E/DX2                !
 ! R24   R(12,15)                1.4077         estimate D2E/DX2                !
 ! R25   R(12,36)                1.0904         estimate D2E/DX2                !
 ! R26   R(13,22)                1.4257         estimate D2E/DX2                !
 ! R27   R(13,44)                1.5208         estimate D2E/DX2                !
 ! R28   R(14,23)                1.3994         estimate D2E/DX2                !
 ! R29   R(14,44)                1.5189         estimate D2E/DX2                !
 ! R30   R(15,23)                1.4084         estimate D2E/DX2                !
 ! R31   R(15,35)                1.0879         estimate D2E/DX2                !
 ! R32   R(16,22)                1.4389         estimate D2E/DX2                !
 ! R33   R(16,24)                1.4207         estimate D2E/DX2                !
 ! R34   R(16,25)                1.4454         estimate D2E/DX2                !
 ! R35   R(17,25)                1.4028         estimate D2E/DX2                !
 ! R36   R(17,26)                1.4261         estimate D2E/DX2                !
 ! R37   R(17,44)                1.5218         estimate D2E/DX2                !
 ! R38   R(18,23)                1.4706         estimate D2E/DX2                !
 ! R39   R(18,26)                1.3987         estimate D2E/DX2                !
 ! R40   R(18,34)                1.0866         estimate D2E/DX2                !
 ! R41   R(19,24)                1.4429         estimate D2E/DX2                !
 ! R42   R(19,27)                1.4202         estimate D2E/DX2                !
 ! R43   R(19,28)                1.4215         estimate D2E/DX2                !
 ! R44   R(20,25)                1.4419         estimate D2E/DX2                !
 ! R45   R(20,28)                1.4071         estimate D2E/DX2                !
 ! R46   R(20,29)                1.4415         estimate D2E/DX2                !
 ! R47   R(21,26)                1.4467         estimate D2E/DX2                !
 ! R48   R(21,29)                1.3781         estimate D2E/DX2                !
 ! R49   R(21,33)                1.0878         estimate D2E/DX2                !
 ! R50   R(27,30)                1.0873         estimate D2E/DX2                !
 ! R51   R(28,31)                1.0876         estimate D2E/DX2                !
 ! R52   R(29,32)                1.0897         estimate D2E/DX2                !
 ! A1    A(2,1,10)             120.3811         estimate D2E/DX2                !
 ! A2    A(2,1,39)             120.7234         estimate D2E/DX2                !
 ! A3    A(10,1,39)            118.8954         estimate D2E/DX2                !
 ! A4    A(1,2,3)              122.0091         estimate D2E/DX2                !
 ! A5    A(1,2,40)             120.2126         estimate D2E/DX2                !
 ! A6    A(3,2,40)             117.7783         estimate D2E/DX2                !
 ! A7    A(2,3,6)              122.323          estimate D2E/DX2                !
 ! A8    A(2,3,22)             118.4295         estimate D2E/DX2                !
 ! A9    A(6,3,22)             119.2474         estimate D2E/DX2                !
 ! A10   A(6,4,7)              121.1867         estimate D2E/DX2                !
 ! A11   A(6,4,24)             120.0864         estimate D2E/DX2                !
 ! A12   A(7,4,24)             118.7269         estimate D2E/DX2                !
 ! A13   A(7,5,27)             121.017          estimate D2E/DX2                !
 ! A14   A(7,5,43)             119.7036         estimate D2E/DX2                !
 ! A15   A(27,5,43)            119.2794         estimate D2E/DX2                !
 ! A16   A(3,6,4)              120.6839         estimate D2E/DX2                !
 ! A17   A(3,6,41)             119.4183         estimate D2E/DX2                !
 ! A18   A(4,6,41)             119.8978         estimate D2E/DX2                !
 ! A19   A(4,7,5)              120.7208         estimate D2E/DX2                !
 ! A20   A(4,7,42)             119.0266         estimate D2E/DX2                !
 ! A21   A(5,7,42)             120.2526         estimate D2E/DX2                !
 ! A22   A(10,8,11)            123.0746         estimate D2E/DX2                !
 ! A23   A(10,8,38)            117.8469         estimate D2E/DX2                !
 ! A24   A(11,8,38)            119.0785         estimate D2E/DX2                !
 ! A25   A(11,9,12)            119.9113         estimate D2E/DX2                !
 ! A26   A(11,9,37)            119.9067         estimate D2E/DX2                !
 ! A27   A(12,9,37)            120.182          estimate D2E/DX2                !
 ! A28   A(1,10,8)             122.1353         estimate D2E/DX2                !
 ! A29   A(1,10,13)            117.2279         estimate D2E/DX2                !
 ! A30   A(8,10,13)            120.6368         estimate D2E/DX2                !
 ! A31   A(8,11,9)             123.1078         estimate D2E/DX2                !
 ! A32   A(8,11,14)            120.3955         estimate D2E/DX2                !
 ! A33   A(9,11,14)            116.4967         estimate D2E/DX2                !
 ! A34   A(9,12,15)            121.9432         estimate D2E/DX2                !
 ! A35   A(9,12,36)            119.3009         estimate D2E/DX2                !
 ! A36   A(15,12,36)           118.7559         estimate D2E/DX2                !
 ! A37   A(10,13,22)           124.1752         estimate D2E/DX2                !
 ! A38   A(10,13,44)           118.3771         estimate D2E/DX2                !
 ! A39   A(22,13,44)           117.4477         estimate D2E/DX2                !
 ! A40   A(11,14,23)           124.4256         estimate D2E/DX2                !
 ! A41   A(11,14,44)           117.6975         estimate D2E/DX2                !
 ! A42   A(23,14,44)           117.8769         estimate D2E/DX2                !
 ! A43   A(12,15,23)           119.8349         estimate D2E/DX2                !
 ! A44   A(12,15,35)           119.6049         estimate D2E/DX2                !
 ! A45   A(23,15,35)           120.5602         estimate D2E/DX2                !
 ! A46   A(22,16,24)           118.7733         estimate D2E/DX2                !
 ! A47   A(22,16,25)           122.0594         estimate D2E/DX2                !
 ! A48   A(24,16,25)           119.1674         estimate D2E/DX2                !
 ! A49   A(25,17,26)           124.4765         estimate D2E/DX2                !
 ! A50   A(25,17,44)           117.7927         estimate D2E/DX2                !
 ! A51   A(26,17,44)           117.7308         estimate D2E/DX2                !
 ! A52   A(23,18,26)           123.3713         estimate D2E/DX2                !
 ! A53   A(23,18,34)           116.7761         estimate D2E/DX2                !
 ! A54   A(26,18,34)           119.8525         estimate D2E/DX2                !
 ! A55   A(24,19,27)           118.9848         estimate D2E/DX2                !
 ! A56   A(24,19,28)           119.8195         estimate D2E/DX2                !
 ! A57   A(27,19,28)           121.1957         estimate D2E/DX2                !
 ! A58   A(25,20,28)           119.4641         estimate D2E/DX2                !
 ! A59   A(25,20,29)           118.073          estimate D2E/DX2                !
 ! A60   A(28,20,29)           122.4629         estimate D2E/DX2                !
 ! A61   A(26,21,29)           120.8936         estimate D2E/DX2                !
 ! A62   A(26,21,33)           118.5771         estimate D2E/DX2                !
 ! A63   A(29,21,33)           120.5293         estimate D2E/DX2                !
 ! A64   A(3,22,13)            117.777          estimate D2E/DX2                !
 ! A65   A(3,22,16)            121.2041         estimate D2E/DX2                !
 ! A66   A(13,22,16)           121.0189         estimate D2E/DX2                !
 ! A67   A(14,23,15)           117.3883         estimate D2E/DX2                !
 ! A68   A(14,23,18)           120.2865         estimate D2E/DX2                !
 ! A69   A(15,23,18)           122.3252         estimate D2E/DX2                !
 ! A70   A(4,24,16)            120.005          estimate D2E/DX2                !
 ! A71   A(4,24,19)            119.8289         estimate D2E/DX2                !
 ! A72   A(16,24,19)           120.1662         estimate D2E/DX2                !
 ! A73   A(16,25,17)           121.5273         estimate D2E/DX2                !
 ! A74   A(16,25,20)           120.3138         estimate D2E/DX2                !
 ! A75   A(17,25,20)           118.159          estimate D2E/DX2                !
 ! A76   A(17,26,18)           120.707          estimate D2E/DX2                !
 ! A77   A(17,26,21)           116.0575         estimate D2E/DX2                !
 ! A78   A(18,26,21)           123.2355         estimate D2E/DX2                !
 ! A79   A(5,27,19)            120.7216         estimate D2E/DX2                !
 ! A80   A(5,27,30)            119.8045         estimate D2E/DX2                !
 ! A81   A(19,27,30)           119.4739         estimate D2E/DX2                !
 ! A82   A(19,28,20)           121.0692         estimate D2E/DX2                !
 ! A83   A(19,28,31)           119.1239         estimate D2E/DX2                !
 ! A84   A(20,28,31)           119.8069         estimate D2E/DX2                !
 ! A85   A(20,29,21)           122.3405         estimate D2E/DX2                !
 ! A86   A(20,29,32)           117.6945         estimate D2E/DX2                !
 ! A87   A(21,29,32)           119.965          estimate D2E/DX2                !
 ! A88   A(13,44,14)           119.8184         estimate D2E/DX2                !
 ! A89   A(13,44,17)           120.1541         estimate D2E/DX2                !
 ! A90   A(14,44,17)           120.0275         estimate D2E/DX2                !
 ! D1    D(10,1,2,3)            -0.0025         estimate D2E/DX2                !
 ! D2    D(10,1,2,40)         -179.9806         estimate D2E/DX2                !
 ! D3    D(39,1,2,3)          -179.9941         estimate D2E/DX2                !
 ! D4    D(39,1,2,40)            0.0278         estimate D2E/DX2                !
 ! D5    D(2,1,10,8)          -179.9988         estimate D2E/DX2                !
 ! D6    D(2,1,10,13)           -0.0059         estimate D2E/DX2                !
 ! D7    D(39,1,10,8)           -0.0071         estimate D2E/DX2                !
 ! D8    D(39,1,10,13)         179.9859         estimate D2E/DX2                !
 ! D9    D(1,2,3,6)           -179.9775         estimate D2E/DX2                !
 ! D10   D(1,2,3,22)             0.0102         estimate D2E/DX2                !
 ! D11   D(40,2,3,6)             0.0012         estimate D2E/DX2                !
 ! D12   D(40,2,3,22)          179.9889         estimate D2E/DX2                !
 ! D13   D(2,3,6,4)            179.9947         estimate D2E/DX2                !
 ! D14   D(2,3,6,41)            -0.0032         estimate D2E/DX2                !
 ! D15   D(22,3,6,4)             0.0071         estimate D2E/DX2                !
 ! D16   D(22,3,6,41)         -179.9908         estimate D2E/DX2                !
 ! D17   D(2,3,22,13)           -0.0093         estimate D2E/DX2                !
 ! D18   D(2,3,22,16)         -179.9984         estimate D2E/DX2                !
 ! D19   D(6,3,22,13)          179.9788         estimate D2E/DX2                !
 ! D20   D(6,3,22,16)           -0.0104         estimate D2E/DX2                !
 ! D21   D(7,4,6,3)           -179.9983         estimate D2E/DX2                !
 ! D22   D(7,4,6,41)            -0.0004         estimate D2E/DX2                !
 ! D23   D(24,4,6,3)             0.0005         estimate D2E/DX2                !
 ! D24   D(24,4,6,41)          179.9984         estimate D2E/DX2                !
 ! D25   D(6,4,7,5)            179.9946         estimate D2E/DX2                !
 ! D26   D(6,4,7,42)             0.0023         estimate D2E/DX2                !
 ! D27   D(24,4,7,5)            -0.0043         estimate D2E/DX2                !
 ! D28   D(24,4,7,42)         -179.9966         estimate D2E/DX2                !
 ! D29   D(6,4,24,16)           -0.0051         estimate D2E/DX2                !
 ! D30   D(6,4,24,19)         -179.9968         estimate D2E/DX2                !
 ! D31   D(7,4,24,16)          179.9938         estimate D2E/DX2                !
 ! D32   D(7,4,24,19)            0.0021         estimate D2E/DX2                !
 ! D33   D(27,5,7,4)             0.0119         estimate D2E/DX2                !
 ! D34   D(27,5,7,42)         -179.9959         estimate D2E/DX2                !
 ! D35   D(43,5,7,4)          -179.9999         estimate D2E/DX2                !
 ! D36   D(43,5,7,42)           -0.0077         estimate D2E/DX2                !
 ! D37   D(7,5,27,19)           -0.0173         estimate D2E/DX2                !
 ! D38   D(7,5,27,30)          179.9838         estimate D2E/DX2                !
 ! D39   D(43,5,27,19)         179.9944         estimate D2E/DX2                !
 ! D40   D(43,5,27,30)          -0.0044         estimate D2E/DX2                !
 ! D41   D(11,8,10,1)          179.9932         estimate D2E/DX2                !
 ! D42   D(11,8,10,13)           0.0005         estimate D2E/DX2                !
 ! D43   D(38,8,10,1)            0.002          estimate D2E/DX2                !
 ! D44   D(38,8,10,13)        -179.9907         estimate D2E/DX2                !
 ! D45   D(10,8,11,9)         -179.9875         estimate D2E/DX2                !
 ! D46   D(10,8,11,14)          -0.0059         estimate D2E/DX2                !
 ! D47   D(38,8,11,9)            0.0036         estimate D2E/DX2                !
 ! D48   D(38,8,11,14)         179.9852         estimate D2E/DX2                !
 ! D49   D(12,9,11,8)          179.9943         estimate D2E/DX2                !
 ! D50   D(12,9,11,14)           0.012          estimate D2E/DX2                !
 ! D51   D(37,9,11,8)           -0.0011         estimate D2E/DX2                !
 ! D52   D(37,9,11,14)        -179.9834         estimate D2E/DX2                !
 ! D53   D(11,9,12,15)          -0.0008         estimate D2E/DX2                !
 ! D54   D(11,9,12,36)        -179.9935         estimate D2E/DX2                !
 ! D55   D(37,9,12,15)         179.9946         estimate D2E/DX2                !
 ! D56   D(37,9,12,36)           0.0019         estimate D2E/DX2                !
 ! D57   D(1,10,13,22)           0.0067         estimate D2E/DX2                !
 ! D58   D(1,10,13,44)        -179.9942         estimate D2E/DX2                !
 ! D59   D(8,10,13,22)         179.9997         estimate D2E/DX2                !
 ! D60   D(8,10,13,44)          -0.0012         estimate D2E/DX2                !
 ! D61   D(8,11,14,23)         179.9937         estimate D2E/DX2                !
 ! D62   D(8,11,14,44)           0.0113         estimate D2E/DX2                !
 ! D63   D(9,11,14,23)          -0.0235         estimate D2E/DX2                !
 ! D64   D(9,11,14,44)         179.9941         estimate D2E/DX2                !
 ! D65   D(9,12,15,23)          -0.0008         estimate D2E/DX2                !
 ! D66   D(9,12,15,35)         179.9989         estimate D2E/DX2                !
 ! D67   D(36,12,15,23)        179.9919         estimate D2E/DX2                !
 ! D68   D(36,12,15,35)         -0.0083         estimate D2E/DX2                !
 ! D69   D(10,13,22,3)           0.001          estimate D2E/DX2                !
 ! D70   D(10,13,22,16)        179.9902         estimate D2E/DX2                !
 ! D71   D(44,13,22,3)        -179.9981         estimate D2E/DX2                !
 ! D72   D(44,13,22,16)         -0.0089         estimate D2E/DX2                !
 ! D73   D(10,13,44,14)          0.0069         estimate D2E/DX2                !
 ! D74   D(10,13,44,17)       -179.9981         estimate D2E/DX2                !
 ! D75   D(22,13,44,14)       -179.9939         estimate D2E/DX2                !
 ! D76   D(22,13,44,17)          0.001          estimate D2E/DX2                !
 ! D77   D(11,14,23,15)          0.0221         estimate D2E/DX2                !
 ! D78   D(11,14,23,18)       -179.9904         estimate D2E/DX2                !
 ! D79   D(44,14,23,15)       -179.9955         estimate D2E/DX2                !
 ! D80   D(44,14,23,18)         -0.008          estimate D2E/DX2                !
 ! D81   D(11,14,44,13)         -0.012          estimate D2E/DX2                !
 ! D82   D(11,14,44,17)        179.993          estimate D2E/DX2                !
 ! D83   D(23,14,44,13)       -179.9956         estimate D2E/DX2                !
 ! D84   D(23,14,44,17)          0.0095         estimate D2E/DX2                !
 ! D85   D(12,15,23,14)         -0.0092         estimate D2E/DX2                !
 ! D86   D(12,15,23,18)       -179.9964         estimate D2E/DX2                !
 ! D87   D(35,15,23,14)        179.991          estimate D2E/DX2                !
 ! D88   D(35,15,23,18)          0.0039         estimate D2E/DX2                !
 ! D89   D(24,16,22,3)           0.0059         estimate D2E/DX2                !
 ! D90   D(24,16,22,13)       -179.9829         estimate D2E/DX2                !
 ! D91   D(25,16,22,3)        -179.9999         estimate D2E/DX2                !
 ! D92   D(25,16,22,13)          0.0113         estimate D2E/DX2                !
 ! D93   D(22,16,24,4)           0.0019         estimate D2E/DX2                !
 ! D94   D(22,16,24,19)        179.9936         estimate D2E/DX2                !
 ! D95   D(25,16,24,4)        -179.9925         estimate D2E/DX2                !
 ! D96   D(25,16,24,19)         -0.0008         estimate D2E/DX2                !
 ! D97   D(22,16,25,17)         -0.005          estimate D2E/DX2                !
 ! D98   D(22,16,25,20)       -179.9929         estimate D2E/DX2                !
 ! D99   D(24,16,25,17)        179.9893         estimate D2E/DX2                !
 ! D100  D(24,16,25,20)          0.0013         estimate D2E/DX2                !
 ! D101  D(26,17,25,16)       -179.9962         estimate D2E/DX2                !
 ! D102  D(26,17,25,20)         -0.008          estimate D2E/DX2                !
 ! D103  D(44,17,25,16)         -0.003          estimate D2E/DX2                !
 ! D104  D(44,17,25,20)        179.9852         estimate D2E/DX2                !
 ! D105  D(25,17,26,18)        179.9954         estimate D2E/DX2                !
 ! D106  D(25,17,26,21)          0.0108         estimate D2E/DX2                !
 ! D107  D(44,17,26,18)          0.0021         estimate D2E/DX2                !
 ! D108  D(44,17,26,21)       -179.9825         estimate D2E/DX2                !
 ! D109  D(25,17,44,13)          0.0049         estimate D2E/DX2                !
 ! D110  D(25,17,44,14)        179.9998         estimate D2E/DX2                !
 ! D111  D(26,17,44,13)        179.9986         estimate D2E/DX2                !
 ! D112  D(26,17,44,14)         -0.0065         estimate D2E/DX2                !
 ! D113  D(26,18,23,14)          0.0039         estimate D2E/DX2                !
 ! D114  D(26,18,23,15)        179.9907         estimate D2E/DX2                !
 ! D115  D(34,18,23,14)        179.9976         estimate D2E/DX2                !
 ! D116  D(34,18,23,15)         -0.0156         estimate D2E/DX2                !
 ! D117  D(23,18,26,17)         -0.0007         estimate D2E/DX2                !
 ! D118  D(23,18,26,21)        179.9827         estimate D2E/DX2                !
 ! D119  D(34,18,26,17)       -179.9942         estimate D2E/DX2                !
 ! D120  D(34,18,26,21)         -0.0107         estimate D2E/DX2                !
 ! D121  D(27,19,24,4)          -0.0072         estimate D2E/DX2                !
 ! D122  D(27,19,24,16)       -179.999          estimate D2E/DX2                !
 ! D123  D(28,19,24,4)         179.9902         estimate D2E/DX2                !
 ! D124  D(28,19,24,16)         -0.0015         estimate D2E/DX2                !
 ! D125  D(24,19,27,5)           0.0148         estimate D2E/DX2                !
 ! D126  D(24,19,27,30)       -179.9864         estimate D2E/DX2                !
 ! D127  D(28,19,27,5)        -179.9826         estimate D2E/DX2                !
 ! D128  D(28,19,27,30)          0.0163         estimate D2E/DX2                !
 ! D129  D(24,19,28,20)          0.0035         estimate D2E/DX2                !
 ! D130  D(24,19,28,31)       -179.9967         estimate D2E/DX2                !
 ! D131  D(27,19,28,20)       -179.9991         estimate D2E/DX2                !
 ! D132  D(27,19,28,31)          0.0007         estimate D2E/DX2                !
 ! D133  D(28,20,25,16)          0.0006         estimate D2E/DX2                !
 ! D134  D(28,20,25,17)       -179.9877         estimate D2E/DX2                !
 ! D135  D(29,20,25,16)        179.9894         estimate D2E/DX2                !
 ! D136  D(29,20,25,17)          0.0011         estimate D2E/DX2                !
 ! D137  D(25,20,28,19)         -0.003          estimate D2E/DX2                !
 ! D138  D(25,20,28,31)        179.9972         estimate D2E/DX2                !
 ! D139  D(29,20,28,19)       -179.9913         estimate D2E/DX2                !
 ! D140  D(29,20,28,31)          0.0089         estimate D2E/DX2                !
 ! D141  D(25,20,29,21)          0.0025         estimate D2E/DX2                !
 ! D142  D(25,20,29,32)       -179.9913         estimate D2E/DX2                !
 ! D143  D(28,20,29,21)        179.991          estimate D2E/DX2                !
 ! D144  D(28,20,29,32)         -0.0029         estimate D2E/DX2                !
 ! D145  D(29,21,26,17)         -0.0068         estimate D2E/DX2                !
 ! D146  D(29,21,26,18)       -179.9909         estimate D2E/DX2                !
 ! D147  D(33,21,26,17)       -179.9966         estimate D2E/DX2                !
 ! D148  D(33,21,26,18)          0.0193         estimate D2E/DX2                !
 ! D149  D(26,21,29,20)          0.0005         estimate D2E/DX2                !
 ! D150  D(26,21,29,32)        179.9942         estimate D2E/DX2                !
 ! D151  D(33,21,29,20)        179.9901         estimate D2E/DX2                !
 ! D152  D(33,21,29,32)         -0.0162         estimate D2E/DX2                !
 --------------------------------------------------------------------------------
 Trust Radius=3.00D-01 FncErr=1.00D-07 GrdErr=1.00D-07
 Number of steps in this run=    264 maximum allowed number of steps=    264.
 GradGradGradGradGradGradGradGradGradGradGradGradGradGradGradGradGradGrad

                          Input orientation:                          
 ---------------------------------------------------------------------
 Center     Atomic      Atomic             Coordinates (Angstroms)
 Number     Number       Type             X           Y           Z
 ---------------------------------------------------------------------
      1          6           0       -1.487342    1.255274    0.000000
      2          6           0       -0.114579    1.267573    0.000214
      3          6           0        0.637842    2.495615    0.000237
      4          6           0        2.761554    3.737816   -0.000096
      5          6           0        4.876369    4.985412   -0.000577
      6          6           0        2.060297    2.516154   -0.000014
      7          6           0        4.192364    3.771038   -0.000385
      8          6           0       -3.680332    2.523182   -0.000361
      9          6           0       -5.854424    3.764586   -0.000316
     10          6           0       -2.227169    2.491707   -0.000158
     11          6           0       -4.431403    3.732940   -0.000377
     12          6           0       -6.523170    4.989254   -0.000217
     13          6           0       -1.497229    3.665426    0.000042
     14          6           0       -3.770635    4.987756   -0.000065
     15          6           0       -5.831731    6.215386   -0.000158
     16          6           0        0.618765    4.984426    0.000243
     17          6           0       -1.488529    6.302410    0.000188
     18          6           0       -3.646057    7.473946   -0.000044
     19          6           0        2.763344    6.233835   -0.000066
     20          6           0        0.644264    7.488696    0.000097
     21          6           0       -1.486048    8.739497   -0.000106
     22          6           0       -0.072682    3.722583    0.000254
     23          6           0       -4.423380    6.225598   -0.000181
     24          6           0        2.039423    4.985716    0.000088
     25          6           0       -0.086819    6.245918    0.000262
     26          6           0       -2.247828    7.509622    0.000125
     27          6           0        4.183286    6.205843   -0.000242
     28          6           0        2.051167    7.464069   -0.000096
     29          6           0       -0.108077    8.718323   -0.000112
     30          1           0        4.736826    7.141709   -0.000134
     31          1           0        2.608212    8.398162   -0.000269
     32          1           0        0.450622    9.653867   -0.000382
     33          1           0       -2.024149    9.684844   -0.000104
     34          1           0       -4.210816    8.402296   -0.000186
     35          1           0       -6.391623    7.148101   -0.000098
     36          1           0       -7.613530    5.001882   -0.000063
     37          1           0       -6.417453    2.834207   -0.000272
     38          1           0       -4.208336    1.574068   -0.000359
     39          1           0       -2.035005    0.314677    0.000084
     40          1           0        0.442586    0.330166    0.000014
     41          1           0        2.607852    1.577080   -0.000179
     42          1           0        4.741811    2.832903   -0.000582
     43          1           0        5.965971    4.991361   -0.000799
     44         27           0       -2.251750    4.985817    0.000017
 ---------------------------------------------------------------------
                    Distance matrix (angstroms):
                    1          2          3          4          5
     1  C    0.000000
     2  C    1.372818   0.000000
     3  C    2.460661   1.440217   0.000000
     4  C    4.920988   3.791337   2.460328   0.000000
     5  C    7.376364   6.223494   4.915709   2.455390   0.000000
     6  C    3.765044   2.507795   1.422603   1.408623   3.745330
     7  C    6.211934   4.981675   3.776417   1.431196   1.393760
     8  C    2.533140   3.780364   4.318263   6.555397   8.903916
     9  C    5.036670   6.259464   6.615119   8.616019  10.800015
    10  C    1.440871   2.441627   2.865014   5.141998   7.528533
    11  C    3.847899   4.971218   5.218067   7.192959   9.391662
    12  C    6.269144   7.410867   7.582765   9.368681  11.399540
    13  C    2.410172   2.767927   2.434540   4.259398   6.508849
    14  C    4.375483   5.215986   5.064132   6.650702   8.647004
    15  C    6.593666   7.560866   7.462713   8.943316  10.778509
    16  C    4.282786   3.788507   2.488884   2.479028   4.257604
    17  C    5.047136   5.218939   4.360406   4.963904   6.499724
    18  C    6.582699   7.140757   6.567768   7.417287   8.878319
    19  C    6.546327   5.739878   4.300238   2.496019   2.454269
    20  C    6.587813   6.267233   4.993085   4.307204   4.917026
    21  C    7.484223   7.596748   6.595223   6.561930   7.387389
    22  C    2.844095   2.455367   1.417849   2.834277   5.107626
    23  C    5.772732   6.568697   6.287188   7.603442   9.382078
    24  C    5.133641   4.297012   2.857452   1.441779   2.836946
    25  C    5.183434   4.978422   3.819674   3.795234   5.120753
    26  C    6.300413   6.596509   5.785098   6.270600   7.558163
    27  C    7.527559   6.546613   5.131857   2.848241   1.403502
    28  C    7.146340   6.564070   5.165562   3.793364   3.758392
    29  C    7.589432   7.450753   6.267256   5.748063   6.227305
    30  H    8.566818   7.618504   6.195794   3.935503   2.160808
    31  H    8.233736   7.632751   6.222734   4.662868   4.097731
    32  H    8.619284   8.405318   7.160700   6.351382   6.432862
    33  H    8.446645   8.631159   7.666238   7.633485   8.348761
    34  H    7.648348   8.226994   7.641883   8.388761   9.708349
    35  H    7.666641   8.601273   8.429650   9.767839  11.473660
    36  H    7.181034   8.377311   8.623602  10.451805  12.489910
    37  H    5.176778   6.494657   7.063415   9.223376  11.496873
    38  H    2.739605   4.105214   4.933020   7.298025   9.704078
    39  H    1.088420   2.143839   3.449725   5.892780   8.341634
    40  H    2.140197   1.090488   2.174234   4.121855   6.428821
    41  H    4.107818   2.739967   2.173625   2.166196   4.094252
    42  H    6.425828   5.102429   4.117806   2.177221   2.156710
    43  H    8.337279   7.130195   5.883681   3.440881   1.089618
    44  Co   3.808053   4.288687   3.814558   5.166306   7.128119
                    6          7          8          9         10
     6  C    0.000000
     7  C    2.473953   0.000000
     8  C    5.740633   7.970978   0.000000
     9  C    8.012576  10.046789   2.503549   0.000000
    10  C    4.287535   6.545768   1.453504   3.844112   0.000000
    11  C    6.604751   8.623851   1.423946   1.423372   2.529685
    12  C    8.932643  10.784559   3.763407   1.395361   4.969242
    13  C    3.738558   5.690573   2.463871   4.358323   1.382183
    14  C    6.333133   8.055417   2.466228   2.416262   2.934714
    15  C    8.715987  10.317816   4.273276   2.450906   5.182534
    16  C    2.858387   3.773979   4.953783   6.587123   3.783251
    17  C    5.189402   6.219356   4.368817   5.049910   3.881629
    18  C    7.559244   8.669047   4.950883   4.316971   5.180343
    19  C    3.783573   2.847361   7.435719   8.964548   6.237687
    20  C    5.170233   5.139065   6.584714   7.490123   5.763248
    21  C    7.162859   7.545194   6.592227   6.620608   6.291593
    22  C    2.450524   4.265321   3.801803   5.781894   2.481304
    23  C    7.469808   8.958565   3.776242   2.846835   4.331892
    24  C    2.469650   2.471962   6.227333   7.987739   4.942053
    25  C    4.303631   4.943322   5.174177   6.278716   4.321481
    26  C    6.595048   7.446683   5.188126   5.199311   5.017958
    27  C    4.256863   2.434822   8.683230  10.330312   7.408693
    28  C    4.947924   4.268865   7.567196   8.728376   6.559615
    29  C    6.570293   6.555106   7.151279   7.586832   6.577333
    30  H    5.344115   3.414361   9.601008  11.116633   8.373753
    31  H    5.907472   4.890788   8.605881   9.648121   7.633290
    32  H    7.316966   6.971965   8.240841   8.627702   7.646378
    33  H    8.250625   8.580101   7.350670   7.051274   7.196001
    34  H    8.600786   9.594894   5.902999   4.920346   6.234575
    35  H    9.637940  11.109695   5.361061   3.425895   6.246974
    36  H    9.988081  11.869882   4.649085   2.150664   5.942547
    37  H    8.483714  10.651096   2.754735   1.087477   4.204258
    38  H    6.339028   8.683227   1.086096   2.740068   2.183365
    39  H    4.649516   7.122257   2.754015   5.146827   2.185495
    40  H    2.719473   5.089246   4.669879   7.172696   3.435091
    41  H    1.087050   2.706313   6.358960   8.740440   4.920769
    42  H    2.700158   1.087194   8.427837  10.637116   6.977328
    43  H    4.623953   2.152875   9.957062  11.883884   8.565968
    44  Co   4.969203   6.557613   2.847002   3.804032   2.494231
                   11         12         13         14         15
    11  C    0.000000
    12  C    2.440044   0.000000
    13  C    2.934951   5.197365   0.000000
    14  C    1.418161   2.752535   2.630006   0.000000
    15  C    2.850168   1.407654   5.028937   2.398999   0.000000
    16  C    5.202924   7.141937   2.493430   4.389401   6.566899
    17  C    3.906749   5.203075   2.636998   2.633690   4.344074
    18  C    3.822551   3.801510   4.372904   2.489309   2.522131
    19  C    7.617012   9.369543   4.974858   6.651736   8.595095
    20  C    6.314120   7.590740   4.382166   5.074055   6.599988
    21  C    5.808677   6.279882   5.074083   4.392596   5.025544
    22  C    4.358734   6.573679   1.425693   3.908391   6.275406
    23  C    2.492671   2.436733   3.888038   1.399403   1.408389
    24  C    6.590982   8.562594   3.775060   5.810059   7.966628
    25  C    5.019011   6.557882   2.940781   3.892746   5.744993
    26  C    4.362491   4.962943   3.916790   2.945972   3.810434
    27  C    8.962595  10.775355   6.222697   8.046651  10.015021
    28  C    7.479642   8.924347   5.198154   6.326571   7.981184
    29  C    6.598879   7.420201   5.240374   5.227950   6.246993
    30  H    9.781418  11.463882   7.137786   8.775899  10.609076
    31  H    8.445146   9.746938   6.265256   7.233295   8.717635
    32  H    7.674083   8.390018   6.297265   6.292186   7.161782
    33  H    6.420283   6.503057   6.042436   5.011272   5.151196
    34  H    4.674564   4.122601   5.459074   3.442796   2.722120
    35  H    3.937739   2.162852   6.007006   3.396567   1.087858
    36  H    3.425806   1.090433   6.260611   3.842921   2.155783
    37  H    2.179934   2.157638   4.989943   3.412245   3.431536
    38  H    2.170366   4.125767   3.424015   3.441635   4.917037
    39  H    4.174595   6.480378   3.393630   4.984985   7.016659
    40  H    5.944294   8.380265   3.858347   6.280475   8.602492
    41  H    7.361986   9.747743   4.605744   7.233105   9.630184
    42  H    9.217263  11.469510   6.294340   8.780953  11.101396
    43  H   10.473252  12.489141   7.580070   9.736606  11.861029
    44  Co   2.514078   4.271421   1.520768   1.518886   3.785248
                   16         17         18         19         20
    16  C    0.000000
    17  C    2.485512   0.000000
    18  C    4.938261   2.455081   0.000000
    19  C    2.481984   4.252426   6.528269   0.000000
    20  C    2.504399   2.440509   4.290347   2.462758   0.000000
    21  C    4.304741   2.437089   2.503449   4.933121   2.470372
    22  C    1.438870   2.942810   5.180901   3.788064   3.833747
    23  C    5.192661   2.935855   1.470579   7.186729   5.222684
    24  C    1.420659   3.765651   6.206124   1.442866   2.865550
    25  C    1.445410   1.402848   3.765133   2.850189   1.441867
    26  C    3.820206   1.426147   1.398684   5.171023   2.892168
    27  C    3.767979   5.672637   7.931374   1.420217   3.764357
    28  C    2.863635   3.725440   5.697232   1.421504   1.407118
    29  C    3.803983   2.782497   3.750437   3.797070   1.441528
    30  H    4.648903   6.281678   8.389465   2.172295   4.107245
    31  H    3.951138   4.601681   6.322188   2.169880   2.164306
    32  H    4.672467   3.872024   4.640564   4.128595   2.173813
    33  H    5.392488   3.424580   2.742016   5.901657   3.455937
    34  H    5.916645   3.438077   1.086640   7.303502   4.940291
    35  H    7.336691   4.975492   2.764834   9.200506   7.044127
    36  H    8.232313   6.261550   4.674606  10.449748   8.624118
    37  H    7.357432   6.026833   5.404425   9.790021   8.457666
    38  H    5.910283   5.454775   5.926611   8.385568   7.650526
    39  H    5.371131   6.012618   7.338298   7.619749   7.658004
    40  H    4.657593   6.276695   8.231075   6.343439   7.161370
    41  H    3.945437   6.253725   8.595604   4.659350   6.229195
    42  H    4.650652   7.131243   9.586220   3.934548   6.202120
    43  H    5.347210   7.568911   9.927452   3.435194   5.878540
    44  Co   2.870516   1.521816   2.852171   5.168048   3.827702
                   21         22         23         24         25
    21  C    0.000000
    22  C    5.212200   0.000000
    23  C    3.866213   5.019328   0.000000
    24  C    5.149740   2.460994   6.580663   0.000000
    25  C    2.859332   2.523375   4.336608   2.471643   0.000000
    26  C    1.446686   4.367256   2.526211   4.975000   2.503379
    27  C    6.209730   4.927458   8.606688   2.466750   4.270293
    28  C    3.760134   4.302262   6.591931   2.478382   2.460666
    29  C    1.378134   4.995866   4.983525   4.306288   2.472497
    30  H    6.424725   5.900999   9.205902   3.453156   4.906118
    31  H    4.108464   5.389641   7.359573   3.459524   3.448963
    32  H    2.141673   5.954324   5.958936   4.931118   3.450066
    33  H    1.087765   6.273498   4.209832   6.212441   3.947082
    34  H    2.745554   6.246909   2.187052   7.123097   4.653743
    35  H    5.157248   7.187711   2.173705   8.703933   6.369026
    36  H    7.177451   7.648594   3.416803   9.652967   7.628827
    37  H    7.693582   6.406663   3.934191   8.726267   7.191432
    38  H    7.665131   4.660445   4.656499   7.118556   6.230015
    39  H    8.442686   3.932497   6.375212   6.198352   6.243000
    40  H    8.627657   3.431325   7.644196   4.921791   5.939393
    41  H    8.249863   3.433431   8.428934   3.455707   5.390668
    42  H    8.583361   4.896006   9.772978   3.455069   5.913066
    43  H    8.341529   6.170505  10.462406   3.926552   6.181438
    44  Co   3.830981   2.518749   2.500606   4.291174   2.504951
                   26         27         28         29         30
    26  C    0.000000
    27  C    6.561941   0.000000
    28  C    4.299236   2.475695   0.000000
    29  C    2.457539   4.972761   2.497095   0.000000
    30  H    6.994338   1.087314   2.704937   5.094978   0.000000
    31  H    4.936662   2.699466   1.087579   2.735092   2.471775
    32  H    3.446653   5.081500   2.712371   1.089672   4.968147
    33  H    2.186692   7.115876   4.641125   2.146042   7.223457
    34  H    2.156430   8.676713   6.331880   4.114893   9.036005
    35  H    4.159535  10.616805   8.448700   6.476770  11.128451
    36  H    5.922796  11.858093   9.973401   8.375188  12.534359
    37  H    6.264605  11.124009   9.651587   8.627343  11.957111
    38  H    6.250952   9.585022   8.594969   8.237264  10.536344
    39  H    7.198092   8.565802   8.234720   8.621736   9.615927
    40  H    7.667001   6.965372   7.313009   8.406212   8.052180
    41  H    7.666335   4.889524   5.913252   7.640264   5.957989
    42  H    8.409921   3.418871   5.356050   7.626243   4.308809
    43  H    8.591166   2.157066   4.630332   7.126310   2.476851
    44  Co   2.523808   6.549668   4.965564   4.304293   7.313554
                   31         32         33         34         35
    31  H    0.000000
    32  H    2.496395   0.000000
    33  H    4.807736   2.474965   0.000000
    34  H    6.819030   4.826535   2.535043   0.000000
    35  H    9.086236   7.286644   5.050732   2.515735   0.000000
    36  H   10.771199   9.309754   7.291866   4.810538   2.469679
    37  H   10.602840   9.678750   8.138325   5.989395   4.313971
    38  H    9.645392   9.326792   8.399724   6.828229   5.986367
    39  H    9.322134   9.664306   9.370173   8.375186   8.104061
    40  H    8.353591   9.323704   9.674439   9.317372   9.653530
    41  H    6.821082   8.359912   9.337627   9.647684  10.584273
    42  H    5.960231   8.058527   9.629502  10.543609  11.940448
    43  H    4.783391   7.222051   9.266650  10.733195  12.544387
    44  Co   5.938294   5.393840   4.704536   3.938308   4.670548
                   36         37         38         39         40
    36  H    0.000000
    37  H    2.475765   0.000000
    38  H    4.831693   2.543256   0.000000
    39  H    7.286277   5.055085   2.511858   0.000000
    40  H    9.312676   7.302763   4.814391   2.477639   0.000000
    41  H   10.779885   9.112436   6.816188   4.811421   2.498633
    42  H   12.544279  11.159264   9.038241   7.229571   4.974639
    43  H   13.579505  12.569904  10.732866   9.267523   7.227345
    44  Co   5.361804   4.688550   3.932971   4.676166   5.379083
                   41         42         43         44
    41  H    0.000000
    42  H    2.476061   0.000000
    43  H    4.788975   2.481433   0.000000
    44  Co   5.935926   7.317441   8.217723   0.000000
 Stoichiometry    C29H14Co(2)
 Framework group  C1[X(C29H14Co)]
 Deg. of freedom   126
 Full point group                 C1      NOp   1
 Largest Abelian subgroup         C1      NOp   1
 Largest concise Abelian subgroup C1      NOp   1
                         Standard orientation:                         
 ---------------------------------------------------------------------
 Center     Atomic      Atomic             Coordinates (Angstroms)
 Number     Number       Type             X           Y           Z
 ---------------------------------------------------------------------
      1          6           0        0.534055   -3.733975   -0.000064
      2          6           0       -0.838709   -3.721813   -0.000278
      3          6           0       -1.591253   -2.493846   -0.000301
      4          6           0       -3.715088   -1.251857    0.000032
      5          6           0       -5.830028   -0.004473    0.000513
      6          6           0       -3.013709   -2.473449   -0.000050
      7          6           0       -5.145902   -1.218779    0.000321
      8          6           0        2.726919   -2.465848    0.000297
      9          6           0        4.900886   -1.224227    0.000252
     10          6           0        1.273759   -2.497468    0.000094
     11          6           0        3.477869   -1.256015    0.000313
     12          6           0        5.569510    0.000508    0.000153
     13          6           0        0.543702   -1.323822   -0.000106
     14          6           0        2.816975   -0.001265    0.000001
     15          6           0        4.877949    1.226571    0.000093
     16          6           0       -1.572424   -0.005033   -0.000307
     17          6           0        0.534738    1.313161   -0.000253
     18          6           0        2.692149    2.484913   -0.000020
     19          6           0       -3.717128    1.244161    0.000002
     20          6           0       -1.598174    2.499234   -0.000161
     21          6           0        0.532014    3.750248    0.000041
     22          6           0       -0.880851   -1.266807   -0.000318
     23          6           0        3.469596    1.236643    0.000117
     24          6           0       -2.993083   -0.003886   -0.000152
     25          6           0       -0.866966    1.256529   -0.000326
     26          6           0        1.293917    2.520449   -0.000189
     27          6           0       -5.137067    1.216028    0.000178
     28          6           0       -3.005074    2.474467    0.000032
     29          6           0       -0.845956    3.728937    0.000047
     30          1           0       -5.690701    2.151838    0.000070
     31          1           0       -3.562213    3.408504    0.000204
     32          1           0       -1.404748    4.664424    0.000318
     33          1           0        1.070020    4.695648    0.000040
     34          1           0        3.256816    3.413319    0.000122
     35          1           0        5.437748    2.159342    0.000034
     36          1           0        6.659869    0.013245   -0.000002
     37          1           0        5.464008   -2.154549    0.000208
     38          1           0        3.255017   -3.414909    0.000295
     39          1           0        1.081812   -4.674517   -0.000148
     40          1           0       -1.395780   -4.659275   -0.000079
     41          1           0       -3.561171   -3.412578    0.000115
     42          1           0       -5.695256   -2.156968    0.000518
     43          1           0       -6.919631    0.001368    0.000734
     44         27           0        1.298091   -0.003356   -0.000081
 ---------------------------------------------------------------------
 Rotational constants (GHZ):      0.3074629      0.1345678      0.0936012
 Standard basis: VSTO-6G (5D, 7F)
 There are   140 symmetry adapted cartesian basis functions of A   symmetry.
 There are   139 symmetry adapted basis functions of A   symmetry.
   139 basis functions,   840 primitive gaussians,   140 cartesian basis functions
    70 alpha electrons       69 beta electrons
       nuclear repulsion energy      1312.3812309235 Hartrees.
 Integral buffers will be    262144 words long.
 Regular integral format.
 Two-electron integral symmetry is turned off.
 Do NDO integrals.
 One-electron integrals computed using PRISM.
 NBasis=   139 RedAO= F EigKep=  0.00D+00  NBF=   139
 NBsUse=   139 1.00D-04 EigRej=  0.00D+00 NBFU=   139
 Simple Huckel Guess.
 Initial guess <Sx>= 0.0000 <Sy>= 0.0000 <Sz>= 0.5000 <S**2>= 0.7500 S= 0.5000
 Keep J ints in memory in canonical form, NReq=2111950.
 Gradient too large for Newton-Raphson -- use scaled steepest descent instead.
     Accept linear search using points  3 and  4.
 Gradient too large for Newton-Raphson -- use scaled steepest descent instead.
     Minimum is close to point  4 DX=  9.28D-02 DF= -2.05D-03 DXR=  8.50D-02 DFR=  7.29D-03 which will be used.
 Gradient too large for Newton-Raphson -- use scaled steepest descent instead.
 Gradient too large for Newton-Raphson -- use scaled steepest descent instead.
     Accept linear search using points  1 and  2.
 Gradient too large for Newton-Raphson -- use scaled steepest descent instead.
     Accept linear search using points  1 and  2.
     Minimum is close to point  2 DX= -3.81D-02 DF= -4.32D-05 DXR=  4.43D-02 DFR=  1.59D-03 which will be used.
 Gradient too large for Newton-Raphson -- use scaled steepest descent instead.
     Accept linear search using points  1 and  2.
 Gradient too large for Newton-Raphson -- use scaled steepest descent instead.
 Gradient too large for Newton-Raphson -- use scaled steepest descent instead.
     Accept linear search using points  1 and  2.
 Gradient too large for Newton-Raphson -- use scaled steepest descent instead.
 Gradient too large for Newton-Raphson -- use scaled steepest descent instead.
     Accept linear search using points  1 and  2.
 Gradient too large for Newton-Raphson -- use scaled steepest descent instead.
     Accept linear search using points  2 and  3.
 Gradient too large for Newton-Raphson -- use scaled steepest descent instead.
     Accept linear search using points  1 and  2.
 Gradient too large for Newton-Raphson -- use scaled steepest descent instead.
     Accept linear search using points  2 and  3.
 Gradient too large for Newton-Raphson -- use scaled steepest descent instead.
     Accept linear search using points  1 and  2.
 Gradient too large for Newton-Raphson -- use scaled steepest descent instead.
     Accept linear search using points  2 and  3.
 Gradient too large for Newton-Raphson -- use scaled steepest descent instead.
     Accept linear search using points  1 and  2.
 Gradient too large for Newton-Raphson -- use scaled steepest descent instead.
     Accept linear search using points  2 and  3.
 Gradient too large for Newton-Raphson -- use scaled steepest descent instead.
     Accept linear search using points  1 and  2.
 Gradient too large for Newton-Raphson -- use scaled steepest descent instead.
     Accept linear search using points  2 and  3.
     Minimum is close to point  3 DX= -8.74D-02 DF= -3.36D-06 DXR=  5.10D-02 DFR=  2.25D-03 which will be used.
 Gradient too large for Newton-Raphson -- use scaled steepest descent instead.
     Accept linear search using points  1 and  2.
 Gradient too large for Newton-Raphson -- use scaled steepest descent instead.
     Accept linear search using points  2 and  3.
     Minimum is close to point  3 DX= -7.54D-02 DF= -1.34D-06 DXR=  4.13D-02 DFR=  1.45D-03 which will be used.
 Gradient too large for Newton-Raphson -- use scaled steepest descent instead.
     Accept linear search using points  1 and  2.
 Gradient too large for Newton-Raphson -- use scaled steepest descent instead.
     Accept linear search using points  2 and  3.
     Minimum is close to point  3 DX= -6.00D-02 DF= -5.21D-07 DXR=  3.09D-02 DFR=  9.63D-04 which will be used.
 Gradient too large for Newton-Raphson -- use scaled steepest descent instead.
     Accept linear search using points  1 and  2.
 LinEq1:  Iter=  0 NonCon=     1 RMS=2.17D-04 Max=6.18D-03 NDo=     1
 AX will form     1 AO Fock derivatives at one time.
 LinEq1:  Iter=  1 NonCon=     1 RMS=4.31D-05 Max=6.80D-04 NDo=     1
 LinEq1:  Iter=  2 NonCon=     1 RMS=2.00D-05 Max=3.51D-04 NDo=     1
 LinEq1:  Iter=  3 NonCon=     1 RMS=8.35D-06 Max=1.63D-04 NDo=     1
 LinEq1:  Iter=  4 NonCon=     1 RMS=2.81D-06 Max=4.34D-05 NDo=     1
 LinEq1:  Iter=  5 NonCon=     1 RMS=1.41D-06 Max=4.03D-05 NDo=     1
 LinEq1:  Iter=  6 NonCon=     1 RMS=4.86D-07 Max=1.05D-05 NDo=     1
 LinEq1:  Iter=  7 NonCon=     1 RMS=1.21D-07 Max=1.67D-06 NDo=     1
 LinEq1:  Iter=  8 NonCon=     1 RMS=4.13D-08 Max=6.57D-07 NDo=     1
 LinEq1:  Iter=  9 NonCon=     1 RMS=1.39D-08 Max=2.54D-07 NDo=     1
 LinEq1:  Iter= 10 NonCon=     1 RMS=5.44D-09 Max=1.02D-07 NDo=     1
 LinEq1:  Iter= 11 NonCon=     0 RMS=2.10D-09 Max=3.88D-08 NDo=     1
 Linear equations converged to 9.829D-09 9.829D-08 after    11 iterations.
     Accept linear search using points  1 and  2.
 LinEq1:  Iter=  0 NonCon=     1 RMS=6.08D-05 Max=1.26D-03 NDo=     1
 LinEq1:  Iter=  1 NonCon=     1 RMS=1.50D-05 Max=3.53D-04 NDo=     1
 LinEq1:  Iter=  2 NonCon=     1 RMS=7.50D-06 Max=1.52D-04 NDo=     1
 LinEq1:  Iter=  3 NonCon=     1 RMS=2.37D-06 Max=5.99D-05 NDo=     1
 LinEq1:  Iter=  4 NonCon=     1 RMS=1.01D-06 Max=2.05D-05 NDo=     1
 LinEq1:  Iter=  5 NonCon=     1 RMS=4.43D-07 Max=8.42D-06 NDo=     1
 LinEq1:  Iter=  6 NonCon=     1 RMS=1.55D-07 Max=3.26D-06 NDo=     1
 LinEq1:  Iter=  7 NonCon=     1 RMS=5.29D-08 Max=8.04D-07 NDo=     1
 LinEq1:  Iter=  8 NonCon=     1 RMS=1.54D-08 Max=3.51D-07 NDo=     1
 LinEq1:  Iter=  9 NonCon=     0 RMS=4.97D-09 Max=9.55D-08 NDo=     1
 Linear equations converged to 9.829D-09 9.829D-08 after     9 iterations.
     Minimum is close to point  2 DX=  1.86D-02 DF= -2.00D-08 DXR=  1.83D-02 DFR=  3.35D-04 which will be used.
 LinEq1:  Iter=  0 NonCon=     1 RMS=4.95D-06 Max=9.84D-05 NDo=     1
 LinEq1:  Iter=  1 NonCon=     1 RMS=2.36D-06 Max=4.42D-05 NDo=     1
 LinEq1:  Iter=  2 NonCon=     1 RMS=8.75D-07 Max=1.66D-05 NDo=     1
 LinEq1:  Iter=  3 NonCon=     1 RMS=3.06D-07 Max=6.01D-06 NDo=     1
 LinEq1:  Iter=  4 NonCon=     1 RMS=1.11D-07 Max=2.07D-06 NDo=     1
 LinEq1:  Iter=  5 NonCon=     1 RMS=4.98D-08 Max=1.18D-06 NDo=     1
 LinEq1:  Iter=  6 NonCon=     1 RMS=2.24D-08 Max=4.40D-07 NDo=     1
 LinEq1:  Iter=  7 NonCon=     1 RMS=7.18D-09 Max=1.25D-07 NDo=     1
 LinEq1:  Iter=  8 NonCon=     1 RMS=2.14D-09 Max=5.38D-08 NDo=     1
 LinEq1:  Iter=  9 NonCon=     0 RMS=7.96D-10 Max=1.57D-08 NDo=     1
 Linear equations converged to 3.209D-09 3.209D-08 after     9 iterations.
     Accept linear search using points  1 and  2.
     Minimum is close to point  2 DX= -9.71D-03 DF= -3.93D-11 DXR=  9.80D-03 DFR=  9.62D-05 which will be used.
 LinEq1:  Iter=  0 NonCon=     1 RMS=4.83D-07 Max=9.64D-06 NDo=     1
 LinEq1:  Iter=  1 NonCon=     1 RMS=2.73D-07 Max=1.01D-05 NDo=     1
 LinEq1:  Iter=  2 NonCon=     1 RMS=6.92D-08 Max=1.19D-06 NDo=     1
 LinEq1:  Iter=  3 NonCon=     1 RMS=2.44D-08 Max=5.53D-07 NDo=     1
 LinEq1:  Iter=  4 NonCon=     1 RMS=6.91D-09 Max=1.36D-07 NDo=     1
 LinEq1:  Iter=  5 NonCon=     1 RMS=3.15D-09 Max=4.72D-08 NDo=     1
 LinEq1:  Iter=  6 NonCon=     1 RMS=1.38D-09 Max=2.24D-08 NDo=     1
 LinEq1:  Iter=  7 NonCon=     1 RMS=4.54D-10 Max=6.77D-09 NDo=     1
 LinEq1:  Iter=  8 NonCon=     1 RMS=1.76D-10 Max=2.94D-09 NDo=     1
 LinEq1:  Iter=  9 NonCon=     0 RMS=8.38D-11 Max=1.82D-09 NDo=     1
 Linear equations converged to 2.558D-10 2.558D-09 after     9 iterations.
 LinEq1:  Iter=  0 NonCon=     1 RMS=2.40D-08 Max=5.22D-07 NDo=     1
 LinEq1:  Iter=  1 NonCon=     1 RMS=1.23D-08 Max=2.42D-07 NDo=     1
 LinEq1:  Iter=  2 NonCon=     1 RMS=4.59D-09 Max=7.79D-08 NDo=     1
 LinEq1:  Iter=  3 NonCon=     1 RMS=1.57D-09 Max=2.49D-08 NDo=     1
 LinEq1:  Iter=  4 NonCon=     1 RMS=6.52D-10 Max=1.18D-08 NDo=     1
 LinEq1:  Iter=  5 NonCon=     1 RMS=3.14D-10 Max=7.34D-09 NDo=     1
 LinEq1:  Iter=  6 NonCon=     1 RMS=9.65D-11 Max=1.79D-09 NDo=     1
 LinEq1:  Iter=  7 NonCon=     1 RMS=3.11D-11 Max=5.88D-10 NDo=     1
 LinEq1:  Iter=  8 NonCon=     1 RMS=8.64D-12 Max=2.61D-10 NDo=     1
 LinEq1:  Iter=  9 NonCon=     0 RMS=4.18D-12 Max=7.67D-11 NDo=     1
 Linear equations converged to 1.878D-11 1.878D-10 after     9 iterations.
 SCF Done:  E(UPM6) =  0.487700310831     a.u. after   30 cycles
            Convg  =    0.1186D-06                   113 Fock formations.
              S**2 =  3.0129                  -V/T =  1.0050
 <Sx>= 0.0000 <Sy>= 0.0000 <Sz>= 0.5000 <S**2>= 3.0129 S= 1.3063
 <L.S>= 0.000000000000E+00
 Annihilation of the first spin contaminant:
 S**2 before annihilation     3.0129,   after     8.0760

 **********************************************************************

            Population analysis using the SCF density.

 **********************************************************************

 Orbital symmetries:
 Alpha Orbitals:
       Occupied  (A) (A) (A) (A) (A) (A) (A) (A) (A) (A) (A) (A)
                 (A) (A) (A) (A) (A) (A) (A) (A) (A) (A) (A) (A)
                 (A) (A) (A) (A) (A) (A) (A) (A) (A) (A) (A) (A)
                 (A) (A) (A) (A) (A) (A) (A) (A) (A) (A) (A) (A)
                 (A) (A) (A) (A) (A) (A) (A) (A) (A) (A) (A) (A)
                 (A) (A) (A) (A) (A) (A) (A) (A) (A) (A)
       Virtual   (A) (A) (A) (A) (A) (A) (A) (A) (A) (A) (A) (A)
                 (A) (A) (A) (A) (A) (A) (A) (A) (A) (A) (A) (A)
                 (A) (A) (A) (A) (A) (A) (A) (A) (A) (A) (A) (A)
                 (A) (A) (A) (A) (A) (A) (A) (A) (A) (A) (A) (A)
                 (A) (A) (A) (A) (A) (A) (A) (A) (A) (A) (A) (A)
                 (A) (A) (A) (A) (A) (A) (A) (A) (A)
 Beta  Orbitals:
       Occupied  (A) (A) (A) (A) (A) (A) (A) (A) (A) (A) (A) (A)
                 (A) (A) (A) (A) (A) (A) (A) (A) (A) (A) (A) (A)
                 (A) (A) (A) (A) (A) (A) (A) (A) (A) (A) (A) (A)
                 (A) (A) (A) (A) (A) (A) (A) (A) (A) (A) (A) (A)
                 (A) (A) (A) (A) (A) (A) (A) (A) (A) (A) (A) (A)
                 (A) (A) (A) (A) (A) (A) (A) (A) (A)
       Virtual   (A) (A) (A) (A) (A) (A) (A) (A) (A) (A) (A) (A)
                 (A) (A) (A) (A) (A) (A) (A) (A) (A) (A) (A) (A)
                 (A) (A) (A) (A) (A) (A) (A) (A) (A) (A) (A) (A)
                 (A) (A) (A) (A) (A) (A) (A) (A) (A) (A) (A) (A)
                 (A) (A) (A) (A) (A) (A) (A) (A) (A) (A) (A) (A)
                 (A) (A) (A) (A) (A) (A) (A) (A) (A) (A)
 The electronic state is 2-A.
 Alpha  occ. eigenvalues --   -1.26367  -1.12777  -1.11715  -1.10856  -1.06805
 Alpha  occ. eigenvalues --   -1.06552  -1.03574  -1.03257  -0.99347  -0.97044
 Alpha  occ. eigenvalues --   -0.95965  -0.95825  -0.92763  -0.90893  -0.88988
 Alpha  occ. eigenvalues --   -0.84600  -0.83537  -0.82050  -0.81583  -0.78478
 Alpha  occ. eigenvalues --   -0.77408  -0.75003  -0.72383  -0.70987  -0.69352
 Alpha  occ. eigenvalues --   -0.66371  -0.65175  -0.62668  -0.61095  -0.60930
 Alpha  occ. eigenvalues --   -0.59910  -0.59494  -0.58912  -0.57370  -0.56149
 Alpha  occ. eigenvalues --   -0.55592  -0.55263  -0.54133  -0.53844  -0.53299
 Alpha  occ. eigenvalues --   -0.53088  -0.52530  -0.51651  -0.51373  -0.50859
 Alpha  occ. eigenvalues --   -0.50171  -0.50068  -0.49597  -0.48910  -0.48590
 Alpha  occ. eigenvalues --   -0.47041  -0.46769  -0.45234  -0.44989  -0.44601
 Alpha  occ. eigenvalues --   -0.42678  -0.42159  -0.41198  -0.40729  -0.40137
 Alpha  occ. eigenvalues --   -0.38121  -0.37831  -0.37546  -0.37415  -0.36088
 Alpha  occ. eigenvalues --   -0.33528  -0.31442  -0.28498  -0.28292  -0.27400
 Alpha virt. eigenvalues --   -0.07324  -0.06843  -0.06734  -0.04090  -0.01907
 Alpha virt. eigenvalues --   -0.01173  -0.00458   0.00267   0.00959   0.01759
 Alpha virt. eigenvalues --    0.02518   0.03451   0.04346   0.06484   0.07494
 Alpha virt. eigenvalues --    0.08055   0.09395   0.10208   0.10478   0.11383
 Alpha virt. eigenvalues --    0.12011   0.12202   0.12539   0.13083   0.13321
 Alpha virt. eigenvalues --    0.13422   0.13827   0.13942   0.14205   0.14458
 Alpha virt. eigenvalues --    0.14667   0.14929   0.15108   0.15365   0.15479
 Alpha virt. eigenvalues --    0.15580   0.15761   0.15839   0.15930   0.16159
 Alpha virt. eigenvalues --    0.16318   0.16560   0.16801   0.16881   0.17021
 Alpha virt. eigenvalues --    0.17291   0.17334   0.17986   0.18095   0.18538
 Alpha virt. eigenvalues --    0.19192   0.19383   0.19694   0.19792   0.20016
 Alpha virt. eigenvalues --    0.20102   0.20153   0.20260   0.20349   0.20391
 Alpha virt. eigenvalues --    0.20479   0.20630   0.20749   0.20830   0.20888
 Alpha virt. eigenvalues --    0.21033   1.36945   1.37013   1.38144
  Beta  occ. eigenvalues --   -1.26355  -1.12723  -1.11690  -1.10815  -1.06793
  Beta  occ. eigenvalues --   -1.06459  -1.03532  -1.03217  -0.99257  -0.96941
  Beta  occ. eigenvalues --   -0.95905  -0.95773  -0.92694  -0.90642  -0.88951
  Beta  occ. eigenvalues --   -0.84400  -0.83480  -0.81997  -0.81547  -0.78405
  Beta  occ. eigenvalues --   -0.77377  -0.74970  -0.72315  -0.70840  -0.69256
  Beta  occ. eigenvalues --   -0.66308  -0.65125  -0.62554  -0.60987  -0.60798
  Beta  occ. eigenvalues --   -0.59767  -0.59350  -0.58846  -0.57395  -0.55927
  Beta  occ. eigenvalues --   -0.55589  -0.55229  -0.53877  -0.53692  -0.53105
  Beta  occ. eigenvalues --   -0.53037  -0.52311  -0.51484  -0.51353  -0.50697
  Beta  occ. eigenvalues --   -0.50214  -0.49596  -0.49423  -0.48852  -0.48401
  Beta  occ. eigenvalues --   -0.47039  -0.45978  -0.45096  -0.44926  -0.44508
  Beta  occ. eigenvalues --   -0.41946  -0.41623  -0.41342  -0.40372  -0.39868
  Beta  occ. eigenvalues --   -0.37967  -0.37473  -0.37452  -0.36461  -0.34812
  Beta  occ. eigenvalues --   -0.32681  -0.28298  -0.28040  -0.27159
  Beta virt. eigenvalues --   -0.08015  -0.07582  -0.06790  -0.04725  -0.02675
  Beta virt. eigenvalues --   -0.01357  -0.01000  -0.00127   0.00351   0.01824
  Beta virt. eigenvalues --    0.02392   0.02434   0.03544   0.05103   0.06880
  Beta virt. eigenvalues --    0.07668   0.08340   0.09802   0.10305   0.10417
  Beta virt. eigenvalues --    0.10964   0.12246   0.12291   0.12628   0.13123
  Beta virt. eigenvalues --    0.13319   0.13473   0.13885   0.14040   0.14216
  Beta virt. eigenvalues --    0.14519   0.14655   0.14906   0.15209   0.15405
  Beta virt. eigenvalues --    0.15455   0.15614   0.15798   0.15863   0.16078
  Beta virt. eigenvalues --    0.16192   0.16420   0.16615   0.16904   0.16930
  Beta virt. eigenvalues --    0.17078   0.17308   0.17493   0.18112   0.18169
  Beta virt. eigenvalues --    0.18625   0.19230   0.19460   0.19521   0.19918
  Beta virt. eigenvalues --    0.20023   0.20198   0.20310   0.20441   0.20478
  Beta virt. eigenvalues --    0.20581   0.20697   0.20733   0.20860   0.20889
  Beta virt. eigenvalues --    0.21119   0.21127   1.36941   1.37025   1.38129
          Condensed to atoms (all electrons):
               1          2          3          4          5          6
     1  C    4.074419   0.000000   0.000000   0.000000   0.000000   0.000000
     2  C    0.000000   4.226671   0.000000   0.000000   0.000000   0.000000
     3  C    0.000000   0.000000   3.908769   0.000000   0.000000   0.000000
     4  C    0.000000   0.000000   0.000000   3.955440   0.000000   0.000000
     5  C    0.000000   0.000000   0.000000   0.000000   4.125135   0.000000
     6  C    0.000000   0.000000   0.000000   0.000000   0.000000   4.199683
     7  C    0.000000   0.000000   0.000000   0.000000   0.000000   0.000000
     8  C    0.000000   0.000000   0.000000   0.000000   0.000000   0.000000
     9  C    0.000000   0.000000   0.000000   0.000000   0.000000   0.000000
    10  C    0.000000   0.000000   0.000000   0.000000   0.000000   0.000000
    11  C    0.000000   0.000000   0.000000   0.000000   0.000000   0.000000
    12  C    0.000000   0.000000   0.000000   0.000000   0.000000   0.000000
    13  C    0.000000   0.000000   0.000000   0.000000   0.000000   0.000000
    14  C    0.000000   0.000000   0.000000   0.000000   0.000000   0.000000
    15  C    0.000000   0.000000   0.000000   0.000000   0.000000   0.000000
    16  C    0.000000   0.000000   0.000000   0.000000   0.000000   0.000000
    17  C    0.000000   0.000000   0.000000   0.000000   0.000000   0.000000
    18  C    0.000000   0.000000   0.000000   0.000000   0.000000   0.000000
    19  C    0.000000   0.000000   0.000000   0.000000   0.000000   0.000000
    20  C    0.000000   0.000000   0.000000   0.000000   0.000000   0.000000
    21  C    0.000000   0.000000   0.000000   0.000000   0.000000   0.000000
    22  C    0.000000   0.000000   0.000000   0.000000   0.000000   0.000000
    23  C    0.000000   0.000000   0.000000   0.000000   0.000000   0.000000
    24  C    0.000000   0.000000   0.000000   0.000000   0.000000   0.000000
    25  C    0.000000   0.000000   0.000000   0.000000   0.000000   0.000000
    26  C    0.000000   0.000000   0.000000   0.000000   0.000000   0.000000
    27  C    0.000000   0.000000   0.000000   0.000000   0.000000   0.000000
    28  C    0.000000   0.000000   0.000000   0.000000   0.000000   0.000000
    29  C    0.000000   0.000000   0.000000   0.000000   0.000000   0.000000
    30  H    0.000000   0.000000   0.000000   0.000000   0.000000   0.000000
    31  H    0.000000   0.000000   0.000000   0.000000   0.000000   0.000000
    32  H    0.000000   0.000000   0.000000   0.000000   0.000000   0.000000
    33  H    0.000000   0.000000   0.000000   0.000000   0.000000   0.000000
    34  H    0.000000   0.000000   0.000000   0.000000   0.000000   0.000000
    35  H    0.000000   0.000000   0.000000   0.000000   0.000000   0.000000
    36  H    0.000000   0.000000   0.000000   0.000000   0.000000   0.000000
    37  H    0.000000   0.000000   0.000000   0.000000   0.000000   0.000000
    38  H    0.000000   0.000000   0.000000   0.000000   0.000000   0.000000
    39  H    0.000000   0.000000   0.000000   0.000000   0.000000   0.000000
    40  H    0.000000   0.000000   0.000000   0.000000   0.000000   0.000000
    41  H    0.000000   0.000000   0.000000   0.000000   0.000000   0.000000
    42  H    0.000000   0.000000   0.000000   0.000000   0.000000   0.000000
    43  H    0.000000   0.000000   0.000000   0.000000   0.000000   0.000000
    44  Co   0.000000   0.000000   0.000000   0.000000   0.000000   0.000000
               7          8          9         10         11         12
     1  C    0.000000   0.000000   0.000000   0.000000   0.000000   0.000000
     2  C    0.000000   0.000000   0.000000   0.000000   0.000000   0.000000
     3  C    0.000000   0.000000   0.000000   0.000000   0.000000   0.000000
     4  C    0.000000   0.000000   0.000000   0.000000   0.000000   0.000000
     5  C    0.000000   0.000000   0.000000   0.000000   0.000000   0.000000
     6  C    0.000000   0.000000   0.000000   0.000000   0.000000   0.000000
     7  C    4.161760   0.000000   0.000000   0.000000   0.000000   0.000000
     8  C    0.000000   4.179369   0.000000   0.000000   0.000000   0.000000
     9  C    0.000000   0.000000   4.101858   0.000000   0.000000   0.000000
    10  C    0.000000   0.000000   0.000000   4.095655   0.000000   0.000000
    11  C    0.000000   0.000000   0.000000   0.000000   4.046298   0.000000
    12  C    0.000000   0.000000   0.000000   0.000000   0.000000   4.187305
    13  C    0.000000   0.000000   0.000000   0.000000   0.000000   0.000000
    14  C    0.000000   0.000000   0.000000   0.000000   0.000000   0.000000
    15  C    0.000000   0.000000   0.000000   0.000000   0.000000   0.000000
    16  C    0.000000   0.000000   0.000000   0.000000   0.000000   0.000000
    17  C    0.000000   0.000000   0.000000   0.000000   0.000000   0.000000
    18  C    0.000000   0.000000   0.000000   0.000000   0.000000   0.000000
    19  C    0.000000   0.000000   0.000000   0.000000   0.000000   0.000000
    20  C    0.000000   0.000000   0.000000   0.000000   0.000000   0.000000
    21  C    0.000000   0.000000   0.000000   0.000000   0.000000   0.000000
    22  C    0.000000   0.000000   0.000000   0.000000   0.000000   0.000000
    23  C    0.000000   0.000000   0.000000   0.000000   0.000000   0.000000
    24  C    0.000000   0.000000   0.000000   0.000000   0.000000   0.000000
    25  C    0.000000   0.000000   0.000000   0.000000   0.000000   0.000000
    26  C    0.000000   0.000000   0.000000   0.000000   0.000000   0.000000
    27  C    0.000000   0.000000   0.000000   0.000000   0.000000   0.000000
    28  C    0.000000   0.000000   0.000000   0.000000   0.000000   0.000000
    29  C    0.000000   0.000000   0.000000   0.000000   0.000000   0.000000
    30  H    0.000000   0.000000   0.000000   0.000000   0.000000   0.000000
    31  H    0.000000   0.000000   0.000000   0.000000   0.000000   0.000000
    32  H    0.000000   0.000000   0.000000   0.000000   0.000000   0.000000
    33  H    0.000000   0.000000   0.000000   0.000000   0.000000   0.000000
    34  H    0.000000   0.000000   0.000000   0.000000   0.000000   0.000000
    35  H    0.000000   0.000000   0.000000   0.000000   0.000000   0.000000
    36  H    0.000000   0.000000   0.000000   0.000000   0.000000   0.000000
    37  H    0.000000   0.000000   0.000000   0.000000   0.000000   0.000000
    38  H    0.000000   0.000000   0.000000   0.000000   0.000000   0.000000
    39  H    0.000000   0.000000   0.000000   0.000000   0.000000   0.000000
    40  H    0.000000   0.000000   0.000000   0.000000   0.000000   0.000000
    41  H    0.000000   0.000000   0.000000   0.000000   0.000000   0.000000
    42  H    0.000000   0.000000   0.000000   0.000000   0.000000   0.000000
    43  H    0.000000   0.000000   0.000000   0.000000   0.000000   0.000000
    44  Co   0.000000   0.000000   0.000000   0.000000   0.000000   0.000000
              13         14         15         16         17         18
     1  C    0.000000   0.000000   0.000000   0.000000   0.000000   0.000000
     2  C    0.000000   0.000000   0.000000   0.000000   0.000000   0.000000
     3  C    0.000000   0.000000   0.000000   0.000000   0.000000   0.000000
     4  C    0.000000   0.000000   0.000000   0.000000   0.000000   0.000000
     5  C    0.000000   0.000000   0.000000   0.000000   0.000000   0.000000
     6  C    0.000000   0.000000   0.000000   0.000000   0.000000   0.000000
     7  C    0.000000   0.000000   0.000000   0.000000   0.000000   0.000000
     8  C    0.000000   0.000000   0.000000   0.000000   0.000000   0.000000
     9  C    0.000000   0.000000   0.000000   0.000000   0.000000   0.000000
    10  C    0.000000   0.000000   0.000000   0.000000   0.000000   0.000000
    11  C    0.000000   0.000000   0.000000   0.000000   0.000000   0.000000
    12  C    0.000000   0.000000   0.000000   0.000000   0.000000   0.000000
    13  C    4.167952   0.000000   0.000000   0.000000   0.000000   0.000000
    14  C    0.000000   4.202215   0.000000   0.000000   0.000000   0.000000
    15  C    0.000000   0.000000   4.099544   0.000000   0.000000   0.000000
    16  C    0.000000   0.000000   0.000000   4.008251   0.000000   0.000000
    17  C    0.000000   0.000000   0.000000   0.000000   4.239964   0.000000
    18  C    0.000000   0.000000   0.000000   0.000000   0.000000   4.189614
    19  C    0.000000   0.000000   0.000000   0.000000   0.000000   0.000000
    20  C    0.000000   0.000000   0.000000   0.000000   0.000000   0.000000
    21  C    0.000000   0.000000   0.000000   0.000000   0.000000   0.000000
    22  C    0.000000   0.000000   0.000000   0.000000   0.000000   0.000000
    23  C    0.000000   0.000000   0.000000   0.000000   0.000000   0.000000
    24  C    0.000000   0.000000   0.000000   0.000000   0.000000   0.000000
    25  C    0.000000   0.000000   0.000000   0.000000   0.000000   0.000000
    26  C    0.000000   0.000000   0.000000   0.000000   0.000000   0.000000
    27  C    0.000000   0.000000   0.000000   0.000000   0.000000   0.000000
    28  C    0.000000   0.000000   0.000000   0.000000   0.000000   0.000000
    29  C    0.000000   0.000000   0.000000   0.000000   0.000000   0.000000
    30  H    0.000000   0.000000   0.000000   0.000000   0.000000   0.000000
    31  H    0.000000   0.000000   0.000000   0.000000   0.000000   0.000000
    32  H    0.000000   0.000000   0.000000   0.000000   0.000000   0.000000
    33  H    0.000000   0.000000   0.000000   0.000000   0.000000   0.000000
    34  H    0.000000   0.000000   0.000000   0.000000   0.000000   0.000000
    35  H    0.000000   0.000000   0.000000   0.000000   0.000000   0.000000
    36  H    0.000000   0.000000   0.000000   0.000000   0.000000   0.000000
    37  H    0.000000   0.000000   0.000000   0.000000   0.000000   0.000000
    38  H    0.000000   0.000000   0.000000   0.000000   0.000000   0.000000
    39  H    0.000000   0.000000   0.000000   0.000000   0.000000   0.000000
    40  H    0.000000   0.000000   0.000000   0.000000   0.000000   0.000000
    41  H    0.000000   0.000000   0.000000   0.000000   0.000000   0.000000
    42  H    0.000000   0.000000   0.000000   0.000000   0.000000   0.000000
    43  H    0.000000   0.000000   0.000000   0.000000   0.000000   0.000000
    44  Co   0.000000   0.000000   0.000000   0.000000   0.000000   0.000000
              19         20         21         22         23         24
     1  C    0.000000   0.000000   0.000000   0.000000   0.000000   0.000000
     2  C    0.000000   0.000000   0.000000   0.000000   0.000000   0.000000
     3  C    0.000000   0.000000   0.000000   0.000000   0.000000   0.000000
     4  C    0.000000   0.000000   0.000000   0.000000   0.000000   0.000000
     5  C    0.000000   0.000000   0.000000   0.000000   0.000000   0.000000
     6  C    0.000000   0.000000   0.000000   0.000000   0.000000   0.000000
     7  C    0.000000   0.000000   0.000000   0.000000   0.000000   0.000000
     8  C    0.000000   0.000000   0.000000   0.000000   0.000000   0.000000
     9  C    0.000000   0.000000   0.000000   0.000000   0.000000   0.000000
    10  C    0.000000   0.000000   0.000000   0.000000   0.000000   0.000000
    11  C    0.000000   0.000000   0.000000   0.000000   0.000000   0.000000
    12  C    0.000000   0.000000   0.000000   0.000000   0.000000   0.000000
    13  C    0.000000   0.000000   0.000000   0.000000   0.000000   0.000000
    14  C    0.000000   0.000000   0.000000   0.000000   0.000000   0.000000
    15  C    0.000000   0.000000   0.000000   0.000000   0.000000   0.000000
    16  C    0.000000   0.000000   0.000000   0.000000   0.000000   0.000000
    17  C    0.000000   0.000000   0.000000   0.000000   0.000000   0.000000
    18  C    0.000000   0.000000   0.000000   0.000000   0.000000   0.000000
    19  C    3.965556   0.000000   0.000000   0.000000   0.000000   0.000000
[...]
 -0.00000001,-0.00015779,0.,0.,-0.00001612,0.,0.,0.00005125,0.,0.,-0.00
 000739,0.,0.,0.00002423,0.,0.,0.00021188,0.,0.,-0.00000644,0.,0.,-0.00
 001814,0.00000002,0.,-0.00000518,-0.00000002,0.00000001,0.00003405,0.,
 0.,-0.00000596,0.,0.,-0.00000859,0.,0.,-0.00000442,0.,0.,0.00000144,0.
 ,0.,0.00000556,0.,0.,0.00000076,0.,0.,0.00000381,0.,0.,0.00000746,0.,0
 .,0.00000746,0.,0.,0.00000697,0.,0.,0.00002534,0.,0.,0.00031189,-0.000
 00178,-0.00000281,0.02239906,-0.03277145,0.02595906,0.00000017,-0.0812
 4649,0.08129883,-0.00000046,0.00707708,-0.00951337,0.00000009,-0.00011
 100,0.00000789,0.,-0.00001971,-0.00000020,0.,-0.00022737,-0.00082962,0
 .,-0.00000017,0.00006166,0.,-0.00006622,0.00043470,0.,0.00000939,-0.00
 000227,0.,-0.00296845,-0.00043768,0.00000010,-0.00013514,0.00004157,0.
 ,-0.00000202,0.00000700,0.,-0.00037740,0.00035697,-0.00000003,0.000146
 92,-0.00008197,-0.00000003,-0.00000124,0.00000467,0.,0.00024937,-0.000
 23826,-0.00000001,-0.00007372,-0.00023062,-0.00000002,0.00001052,-0.00
 002172,0.,-0.00000834,0.00003252,0.,0.00002367,-0.00003367,0.,-0.00000
 601,-0.00000109,0.,-0.00073053,-0.00155853,0.00000004,0.00002065,-0.00
 002244,0.,-0.00000839,0.00002393,0.,-0.00006582,-0.00001170,0.,0.00002
 748,-0.00001058,0.,-0.00001272,0.00000002,0.,-0.00000605,-0.00001788,0
 .,-0.00001610,-0.00001293,0.,0.00000373,0.00000492,0.,0.00000797,0.000
 00665,0.,0.00000552,0.00000535,0.,0.00000017,0.00000670,0.,-0.00000231
 ,0.00000453,0.,-0.00000439,0.00000348,0.,-0.00000587,0.00000136,0.,-0.
 00000510,0.00000159,0.,0.00002163,0.00004045,0.,-0.00081332,0.00010336
 ,0.,0.11259639,0.01295763,-0.00256493,-0.00000009,0.08173236,-0.169475
 16,0.00000059,0.00288790,-0.03979953,0.00000035,0.00027401,0.00008031,
 0.,0.00004665,0.00004544,0.,-0.00060487,-0.00097967,0.,-0.00004831,-0.
 00002860,0.,-0.00034119,0.00017159,0.,-0.00003813,0.00005195,0.,0.0000
 4757,0.00046846,0.00000008,0.00002523,-0.00015265,0.,-0.00001850,-0.00
 002253,0.,0.00056928,-0.00100337,0.00000006,-0.00039119,0.00011285,0.0
 0000004,0.00000055,-0.00001270,0.,0.00020865,-0.00025362,0.,0.00012578
 ,0.00045248,0.00000004,-0.00000615,0.00004937,0.,0.00000607,-0.0000320
 2,0.,0.00001771,0.00004468,0.,0.00001550,0.00000359,0.,-0.00183929,-0.
 00156237,0.00000006,-0.00002065,0.00006019,-0.00000001,0.00011693,-0.0
 0002955,0.,-0.00002677,-0.00024745,0.,-0.00006328,0.00002314,-0.000000
 02,0.00003602,0.00000085,0.,-0.00001316,0.00002459,0.,0.00001034,0.000
 00456,0.,-0.00001720,-0.00002283,0.,-0.00001437,-0.00001587,0.,-0.0000
 0603,-0.00001293,0.,0.00000040,-0.00001628,0.,0.00000617,-0.00001047,0
 .,0.00001365,-0.00000736,0.,0.00001679,0.00000298,0.,0.00002178,0.0000
 1811,0.,0.00001352,0.00003503,0.,-0.00026472,0.00103340,-0.00000003,-0
 .09467211,0.21319984,0.00000028,-0.00000018,0.00563843,-0.00000045,0.0
 0000062,-0.03959425,-0.00000008,0.00000046,0.00615976,0.,0.,-0.0000137
 6,0.,0.,-0.00000443,0.,0.,-0.00098586,0.,0.,0.00000695,-0.00000001,0.,
 -0.00030255,0.,0.,0.00000465,0.00000012,0.00000001,0.00600324,0.000000
 02,0.,0.00002962,0.,0.,-0.00000851,0.00000006,-0.00000007,-0.00040521,
 -0.00000003,-0.00000006,-0.00024960,0.00000001,0.,0.00002164,-0.000000
 02,0.00000001,-0.00026212,0.00000007,-0.00000003,-0.00026225,0.,0.,-0.
 00000838,0.,0.,0.00002319,0.,0.,0.00001315,0.,0.,0.00000999,0.00000006
 ,0.00000002,0.00321008,0.00000002,0.,0.00002304,0.,0.,-0.00002037,0.,0
 .,0.00008808,-0.00000002,-0.00000002,0.00003257,0.,0.,-0.00000790,0.,0
 .,-0.00000997,0.,0.,-0.00001051,0.,0.,0.00000614,0.,0.,0.00000491,0.,0
 .,0.00000368,0.,0.,0.00000048,0.,0.,0.00000517,0.,0.,0.00000037,0.,0.,
 0.00000264,0.,0.,0.00000784,0.,0.,0.00004124,0.,-0.00000003,-0.0017079
 7,0.00000007,-0.00000096,0.02183483,-0.00004127,0.00014048,0.,-0.00095
 583,0.00010607,0.,-0.03145583,0.02441382,0.00000031,0.00763406,-0.0082
 6558,0.00000003,-0.00013713,0.00005953,0.,-0.08354970,0.08303355,0.000
 00003,-0.00033311,-0.00124223,0.,-0.00006123,0.00002817,0.,-0.00000439
 ,-0.00000523,0.,0.00011476,-0.00007431,0.,0.00001904,0.00001111,0.0000
 0002,0.00001093,-0.00000699,0.,-0.00042995,0.00062365,-0.00000002,0.00
 014435,0.00004981,-0.00000002,0.00000548,0.00001031,0.,0.00003883,-0.0
 0013750,0.00000001,-0.00010416,-0.00025301,-0.00000002,-0.00000636,-0.
 00002282,0.,0.00016092,-0.00022289,0.,-0.00000358,-0.00002223,0.,-0.00
 000117,-0.00001986,0.,-0.00264292,-0.00032795,0.00000008,-0.00002283,-
 0.00002954,0.00000002,-0.00096559,-0.00113743,0.00000007,0.00001935,0.
 00016552,0.,0.00005484,0.00003484,0.00000002,-0.00000317,-0.00001420,0
 .,-0.00005691,-0.00012183,0.,-0.00000834,-0.00001288,0.,0.00001448,0.0
 0003387,0.,0.00002971,0.00000833,0.,0.00000831,0.00001319,0.,-0.000003
 48,0.00001978,0.,-0.00000685,0.00001293,0.,-0.00001110,0.00000835,0.,-
 0.00001219,-0.00000059,0.,-0.00001077,-0.00000904,0.,-0.00001006,-0.00
 000936,0.,0.00001211,-0.00006180,0.,-0.00052121,-0.00061574,0.00000002
 ,0.11372116,0.00013061,-0.00019272,0.,-0.00038860,0.00008447,0.,0.0117
 5763,-0.00071610,-0.00000010,0.00489344,-0.03983998,0.00000021,0.00023
 470,0.00004018,0.,0.08284098,-0.16923445,-0.00000016,-0.00089068,-0.00
 141081,0.00000001,0.00013222,-0.00009713,0.,0.00000877,-0.00000724,0.,
 -0.00021539,0.00004407,0.,-0.00001375,0.00000377,0.,-0.00001512,0.0000
 1398,0.,0.00018717,-0.00036830,0.00000004,-0.00022067,0.00002981,0.,-0
 .00001998,-0.00001434,0.,-0.00019224,0.00009031,0.,0.00019596,0.000461
 05,0.00000004,0.00000501,0.00004136,0.,0.00033055,-0.00029431,0.,-0.00
 000882,0.00003142,0.,0.00001870,0.00002445,0.,-0.00043908,0.00034562,0
 .00000002,0.00000686,0.00001560,0.,-0.00132856,-0.00191503,0.00000006,
 -0.00002165,-0.00017765,0.,-0.00007667,-0.00006196,0.,0.00006484,0.000
 03319,0.,-0.00006547,-0.00003702,0.,-0.00000800,0.00001385,0.,-0.00004
 313,-0.00006267,0.,-0.00000788,-0.00004309,0.,-0.00000763,-0.00001571,
 0.,0.00000358,-0.00002795,0.,0.00001105,-0.00001661,0.,0.00001237,-0.0
 0000958,0.,0.00001576,0.00000114,0.,0.00001587,0.00001855,0.,0.0000129
 4,0.00003306,0.,-0.00002877,0.00008321,0.,-0.00057197,0.00014621,0.,-0
 .09553140,0.21290017,0.00000001,0.,-0.00011065,-0.00000001,0.,-0.00098
 103,0.00000041,-0.00000025,0.00697085,-0.00000008,0.00000035,0.0061733
 9,0.,-0.00000001,0.00000677,0.00000003,-0.00000013,-0.03755806,0.00000
 002,0.00000002,-0.00129264,0.,0.,0.00002309,0.,0.,-0.00000272,0.,0.000
 00002,-0.00003833,0.,0.00000001,0.00001489,0.,0.,-0.00000447,-0.000000
 02,-0.00000002,-0.00036135,-0.00000001,0.,0.00004983,0.,0.,-0.00000927
 ,0.,-0.00000002,0.00004228,0.00000003,0.,0.00000635,0.,0.,-0.00001287,
 0.,0.,-0.00024584,0.,0.,0.00001694,0.,0.,-0.00000795,0.00000010,0.0000
 0004,0.00315040,0.,0.,-0.00002442,0.00000008,0.00000004,0.00429535,-0.
 00000001,0.,-0.00051334,0.,0.,-0.00000088,0.,0.,-0.00003084,0.,0.,-0.0
 0006883,0.,0.,0.00001865,0.,0.,0.00003300,0.,0.,0.00001637,0.,0.,0.000
 00487,0.,0.,0.00000516,0.,0.,0.00000144,0.,0.,0.00000710,0.,0.,0.00000
 348,0.,0.,0.00000365,0.,0.,0.00001053,0.,0.,0.00009371,0.00000002,0.,0
 .00034045,-0.00000053,-0.00000005,0.01944473,-0.00007507,0.00003147,0.
 ,0.00012223,0.00001617,0.,-0.00001546,0.00008236,0.,-0.03100138,0.0248
 1929,0.00000036,0.00710841,-0.00901705,0.00000004,-0.00205667,0.000062
 70,0.00000002,-0.08123436,0.08181143,0.00000013,-0.00006412,0.00003029
 ,0.,-0.00000700,0.00000292,0.,0.00010765,-0.00005349,0.,0.00000925,-0.
 00000054,0.,0.00000959,-0.00000835,0.,-0.00011435,0.00019864,-0.000000
 02,0.00012751,-0.00000605,0.,0.00001184,0.00000711,0.,-0.00025552,0.00
 046425,0.,-0.00007466,-0.00017224,-0.00000002,0.00000127,-0.00001740,0
 .,-0.00001998,-0.00015748,0.,-0.00003740,-0.00001074,0.,-0.00002595,-0
 .00000791,0.,0.00009549,-0.00001765,0.,-0.00001017,-0.00001099,0.,-0.0
 0266067,-0.00051989,0.00000008,-0.00010322,0.00001668,0.,0.00002357,0.
 00001900,0.,-0.00091398,-0.00148670,0.00000008,0.00003101,0.00004219,0
 .,0.00003900,0.00000322,0.,0.00023945,-0.00014219,0.,0.00001376,0.0000
 4150,0.,0.00000365,0.00001667,0.,-0.00000271,0.00002084,0.,-0.00000974
 ,0.00001314,0.,-0.00000900,0.00000747,0.,-0.00001069,-0.00000031,0.,-0
 .00000945,-0.00000901,0.,-0.00000830,-0.00001097,0.,0.00000017,-0.0000
 2817,0.,0.00000630,-0.00003896,0.,-0.00054541,-0.00076114,0.00000002,0
 .11082630,0.00010209,-0.00003601,0.,-0.00007991,-0.00006958,0.,0.00004
 950,-0.00009202,0.,0.01149773,-0.00140653,-0.00000012,0.00484405,-0.04
 080376,0.00000017,-0.00038558,0.00030476,0.,0.08132560,-0.17159324,-0.
 00000037,0.00009403,-0.00005471,0.,0.00000649,-0.00001276,0.,-0.000148
 99,0.00003733,0.,-0.00001720,0.00000873,0.,-0.00001393,0.00001304,0.,0
 .00007651,-0.00025359,0.00000003,-0.00017419,-0.00001568,0.00000002,-0
 .00001818,-0.00001604,0.,0.00007945,0.00008941,0.,0.00012278,0.0003302
 9,0.00000003,-0.00000316,0.00002313,0.,-0.00012329,0.00027098,0.,0.000
 03118,0.00000101,0.,0.00004029,0.00000929,0.,0.00000380,0.00000512,0.,
 0.00002863,0.00001221,0.,-0.00044684,0.00011830,0.00000002,-0.00005064
 ,-0.00003526,0.,-0.00005300,-0.00003884,0.,-0.00143713,-0.00198636,0.0
 0000005,-0.00000517,-0.00006079,0.,-0.00005824,-0.00001017,0.,0.000145
 26,-0.00040334,0.,-0.00003136,-0.00005643,0.,-0.00000502,-0.00002215,0
 .,0.00000366,-0.00003277,0.,0.00001432,-0.00001830,0.,0.00001152,-0.00
 000765,0.,0.00001310,0.00000051,0.,0.00001235,0.00001427,0.,0.00001043
 ,0.00001923,0.,-0.00000007,0.00003685,0.,-0.00008420,0.00008056,0.,-0.
 00055791,0.00015017,0.,-0.09434644,0.21587834,0.,0.,-0.00000377,0.,0.,
 -0.00001451,0.,0.,0.00005326,0.00000045,-0.00000029,0.00623250,-0.0000
 0002,0.00000038,0.00651156,0.00000002,0.,-0.00083548,0.00000011,-0.000
 00040,-0.03855288,0.,0.,-0.00001038,0.,0.,-0.00000118,0.,0.,0.00000374
 ,0.,0.,0.00000174,0.,0.,-0.00000247,0.,0.,0.00000461,0.,0.,-0.00001285
 ,0.,0.,-0.00000066,0.,0.,-0.00013761,0.,0.,-0.00001270,0.,0.,-0.000005
 86,0.,0.,0.00005493,0.,0.,0.00002580,0.,0.,-0.00000496,0.,0.,-0.000007
 31,0.,0.,0.00000067,0.00000008,0.00000003,0.00318857,0.,0.,-0.00004545
 ,0.,0.,-0.00000435,0.00000009,0.00000004,0.00484715,0.,0.,-0.00049742,
 0.,0.,0.00003022,0.,0.,-0.00044336,0.,0.,0.00003018,0.,0.,0.00000605,0
 .,0.,0.00000050,0.,0.,0.00000566,0.,0.,0.00000198,0.,0.,0.00000172,0.,
 0.,0.00000231,0.,0.,0.00000570,0.,0.,0.00000725,0.,0.,0.00003080,0.000
 00001,0.00000001,0.00031673,-0.00000069,0.00000024,0.02033254,-0.00010
 136,0.00003311,0.,0.00011426,0.00003709,0.,-0.00009560,-0.00005789,0.,
 -0.00048024,-0.00101049,0.00000007,-0.21848035,-0.00072300,0.00000197,
 -0.00013656,-0.00005106,0.,-0.02654732,-0.01537204,0.00000045,-0.00008
 520,0.00004718,0.,-0.00001321,0.00001224,0.,0.00015252,-0.00006311,0.,
 0.00002491,0.00000714,0.,0.00001876,-0.00002448,0.,-0.00016016,0.00037
 589,-0.00000003,0.00020343,-0.00001568,-0.00000002,0.00002960,0.000014
 38,0.,-0.00019236,0.00000851,0.,-0.00014294,-0.00040221,-0.00000003,0.
 00000824,-0.00003782,0.,-0.00044381,0.00112085,0.00000005,-0.00004839,
 0.00002624,0.,-0.00003480,-0.00001972,0.,0.00008804,-0.00008439,0.,-0.
 00002476,-0.00001481,0.,0.00044508,-0.00004797,0.,0.00005832,0.0000765
 6,0.,0.00005357,0.00004995,0.,-0.02644678,0.01507536,0.00000029,-0.000
 14447,0.00002161,0.,0.00004012,-0.00001184,0.,0.00050057,0.00051736,-0
 .00000002,0.00004854,0.00007591,0.,0.00001565,0.00003515,0.,-0.0000053
 0,0.00003949,0.,-0.00001634,0.00002558,0.,-0.00001656,0.00001538,0.,-0
 .00001987,-0.00000003,0.,-0.00001600,-0.00001529,0.,-0.00001278,-0.000
 01643,0.,-0.00000533,-0.00004290,0.,0.00001536,-0.00004027,0.,0.000051
 45,-0.00009170,0.,0.00051656,-0.00054602,-0.00000002,0.27137488,0.0000
 1119,-0.00001086,0.,-0.00004381,-0.00000398,0.,-0.00000977,-0.00008998
 ,0.,-0.00101658,-0.00235643,0.00000005,-0.00078138,-0.03349084,-0.0000
 0003,-0.00050559,-0.00002148,0.,-0.02919461,-0.00760078,0.00000041,0.0
 0001697,-0.00000787,0.,0.00000165,0.00000127,0.,-0.00002194,0.00001032
 ,0.,-0.00000200,0.00000515,0.,-0.00000022,0.00000181,0.,0.00001665,-0.
 00001433,0.,-0.00000084,0.00000888,0.,0.00000046,0.00000100,0.,0.00000
 073,0.00000096,0.,-0.00000930,-0.00000986,0.,-0.00000139,-0.00000090,0
 .,0.00097832,-0.00235491,0.00000003,0.00001010,-0.00009793,0.,-0.00000
 063,-0.00000833,0.,-0.00000764,0.00000839,0.,-0.00000491,-0.00000230,0
 .,-0.00000023,-0.00011244,0.,0.00000074,-0.00000179,0.,0.00000290,0.00
 000307,0.,0.02896020,-0.00738530,-0.00000026,0.00052485,-0.00002895,0.
 ,0.00003417,0.00000295,0.,0.00092134,-0.00034378,-0.00000001,0.0000314
 0,0.00005940,0.,0.00000478,0.00000987,0.,0.00000113,0.00000549,0.,-0.0
 0000150,0.00000234,0.,-0.00000032,-0.00000006,0.,0.00000011,0.00000021
 ,0.,0.00000045,0.00000022,0.,0.00000104,0.00000151,0.,-0.00000153,0.00
 000486,0.,-0.00000521,0.00001062,0.,-0.00003245,0.00006133,0.,-0.00090
 679,-0.00034894,0.,0.00103237,0.05407381,0.,0.,0.00001543,0.,0.,-0.000
 00654,0.,0.,-0.00026881,0.00000007,0.00000005,0.00513037,0.00000195,-0
 .00000005,-0.04044264,0.,0.,-0.00021585,0.00000054,0.00000028,0.005723
 96,0.,0.,-0.00000997,0.,0.,-0.00000091,0.,0.,0.00000124,0.,0.,0.000001
 34,0.,0.,-0.00000184,0.,0.,0.00003430,0.,0.,-0.00001048,0.,0.,-0.00000
 049,0.,0.,-0.00043965,0.,0.,0.00002101,0.,0.,-0.00000730,0.00000006,0.
 00000002,0.00462734,0.,0.,-0.00020272,0.,0.,0.00000680,0.,0.,-0.000002
 70,0.,0.,0.00000101,0.,0.,0.00003666,0.,0.,0.00000843,0.,0.,0.00000135
 ,0.00000021,-0.00000011,0.00582033,0.,0.,-0.00025229,0.,0.,0.00000300,
 -0.00000002,0.,-0.00096349,0.,0.,0.00008831,0.,0.,0.00000769,0.,0.,0.0
 0000232,0.,0.,0.00000371,0.,0.,0.00000158,0.,0.,0.00000130,0.,0.,0.000
 00160,0.,0.,0.00000345,0.,0.,0.00000267,0.,0.,0.00000673,0.,0.,0.00010
 712,-0.00000002,0.,-0.00113323,-0.00000277,-0.00000018,0.02228064,-0.0
 0654655,0.00089241,0.00000115,0.00457930,0.00201198,-0.00000005,-0.001
 16818,-0.00361949,0.00000049,0.00069753,0.00108402,0.,0.00003637,0.000
 31507,0.,-0.00156668,-0.00049023,0.00000002,-0.00067920,-0.00026891,0.
 ,-0.00414757,0.00171973,0.00000009,-0.00268673,0.00040436,-0.00000176,
 0.01440719,-0.00725130,0.00000079,-0.01291548,-0.01954755,-0.00000104,
 -0.00130545,-0.00271604,0.,-0.06241668,0.06777617,-0.00001054,-0.18665
 104,0.00002873,0.00003540,0.00268280,0.00262696,-0.00000165,-0.0008291
 9,-0.00018174,-0.00000043,-0.06707379,-0.06840300,-0.00001188,0.001156
 42,0.00041461,0.00000050,-0.00005204,-0.00061457,0.00000002,-0.0019363
 6,0.00170088,0.00000048,-0.00214595,0.00068981,0.00000060,-0.02393438,
 0.01680991,-0.00000007,-0.02051837,0.01800735,-0.00000128,-0.00028227,
 -0.00001534,0.00000010,-0.02335524,-0.01626133,0.00000029,0.01083962,0
 .00500039,0.00000059,-0.00008033,-0.00003456,-0.00000001,-0.00092432,-
 0.00023448,0.00000001,0.00095525,-0.00070346,-0.00000003,-0.00003347,-
 0.00006874,0.,-0.00012523,-0.00004572,-0.00000005,-0.00006540,-0.00009
 115,-0.00000008,0.00044651,0.00014548,-0.00000006,-0.00048240,-0.00018
 371,-0.00000007,-0.00004565,0.00044426,0.00000008,-0.00001418,-0.00000
 967,0.00000032,-0.00003866,-0.00045168,0.00000010,-0.00059839,-0.00003
 242,-0.00000011,0.00046306,-0.00015746,-0.00000006,0.00000831,-0.00006
 485,-0.00000013,-0.00013518,0.00009806,-0.00000004,-0.00003657,0.00007
 634,0.,-0.00008062,0.00000318,0.,0.38660448,-0.00185160,-0.00102760,-0
 .00000112,0.00085428,-0.00038728,-0.00000002,-0.00017304,-0.00093215,-
 0.00000112,-0.00031843,-0.00026378,0.00000003,-0.00002448,-0.00036043,
 0.,0.00043251,0.00092258,0.00000005,0.00043437,0.00008927,0.,0.0014635
 1,0.00000746,0.00000048,0.00167357,-0.00411144,0.00000036,-0.00104124,
 -0.03113299,-0.00000035,-0.02276083,-0.00108336,0.00000084,0.00014098,
 0.00390053,-0.00000003,0.06605500,-0.14370670,0.00002122,-0.00069044,-
 0.02726324,-0.00000146,-0.00234665,-0.00466929,-0.00000034,0.00068903,
 0.00119633,-0.00000003,-0.06681216,-0.14306256,-0.00002497,-0.00195111
 ,-0.00017808,-0.00000009,0.00006969,0.00029117,-0.00000002,-0.00048343
 ,0.00033522,0.00000132,0.00040254,-0.00269255,0.00000107,0.01255562,0.
 00357298,-0.00000131,0.02350223,-0.00310071,-0.00000059,-0.00043164,-0
 .00047134,0.00000002,-0.01446389,0.00379085,0.00000145,0.00394625,-0.0
 2696032,0.00000032,-0.00032725,0.00008965,0.,0.00004267,0.00054677,-0.
 00000008,0.00029639,-0.00065266,0.,-0.00000754,0.00002697,0.,0.0000167
 8,-0.00010220,-0.00000004,-0.00001889,-0.00006728,-0.00000020,0.000098
 06,-0.00028314,-0.00000006,0.00000299,-0.00046017,0.00000016,0.0004263
 7,0.00013018,0.00000009,0.00002609,-0.00003798,0.,-0.00043421,0.000110
 00,-0.00000005,0.00012192,-0.00043850,-0.00000018,-0.00014713,-0.00029
 622,0.00000005,-0.00006563,0.00010941,0.00000023,-0.00003139,-0.000138
 11,0.,0.00003151,-0.00002666,0.,0.00003602,-0.00001634,0.,0.00113008,0
 .37873737,0.00000052,-0.00000004,-0.00035891,-0.00000036,0.00000016,0.
 00001310,0.00000036,-0.00000005,-0.00021147,0.00000003,-0.00000003,0.0
 0012684,-0.00000006,0.,0.00000221,-0.00000017,0.00000002,-0.00006759,-
 0.00000007,0.00000001,-0.00002162,0.00000052,-0.00000083,-0.00069503,0
 .00000053,0.00000015,-0.00083187,-0.00000099,0.00000042,0.00066612,-0.
 00000020,0.00000126,0.00086375,0.00000062,0.00000082,0.00003769,-0.000
 00335,0.00000921,0.02407554,0.00001938,-0.00000137,0.02630486,-0.00000
 100,-0.00000111,-0.00053140,0.00000057,-0.00000007,0.00058485,-0.00000
 456,-0.00001118,0.02373120,-0.00000089,-0.00000027,-0.00084802,0.,0.00
 000005,0.00009959,-0.00000011,0.00000022,-0.00021427,0.00000035,-0.000
 00036,-0.00057996,0.00000004,-0.00000034,0.00013228,0.00000230,0.00000
 024,0.00070964,-0.00000019,0.00000001,0.00023043,-0.00000014,0.0000003
 2,0.00007825,0.00000009,-0.00000090,0.00142987,-0.00000005,0.,-0.00002
 219,0.00000002,-0.00000013,-0.00001224,-0.00000012,-0.00000032,0.00003
 361,0.00000006,0.00000006,0.00003308,0.00000007,0.00000010,0.00008619,
 0.00000008,0.00000017,0.00027109,-0.00000010,0.00000010,0.00025476,-0.
 00000006,0.00000005,0.00037536,-0.00000002,0.00000013,0.00012262,-0.00
 000025,0.,0.00034856,-0.00000007,-0.00000013,0.00026228,-0.00000003,-0
 .00000008,0.00040592,-0.00000009,-0.00000009,0.00016870,0.00000008,-0.
 00000018,0.00030472,0.00000006,-0.00000008,0.00010637,0.00000006,-0.00
 000006,0.00003022,0.00000009,0.,0.00001961,-0.00001296,0.00000405,-0.0
 7751327||0.00052983,-0.00023465,0.00000013,-0.00044978,-0.00021264,-0.
 00000045,-0.00014345,0.00028819,0.00000023,-0.00012751,-0.00002487,0.0
 0000009,0.00007349,-0.00011247,0.,0.00028857,-0.00007016,-0.00000008,0
 .00017290,0.00004788,-0.00000009,0.00062379,-0.00016215,-0.00000028,0.
 00013100,-0.00002181,0.00000016,-0.00058710,0.00047249,-0.00000005,-0.
 00013680,0.00040963,-0.00000041,0.00000463,-0.00008367,-0.00000004,-0.
 00028031,-0.00042032,-0.00000648,-0.00061132,-0.00040011,-0.00000543,0
 .00025483,0.00001196,0.00000026,-0.00012011,-0.00006042,-0.00000039,-0
 .00004808,0.00025621,-0.00000527,-0.00003805,-0.00037444,-0.00000052,-
 0.00001571,-0.00002071,0.00000002,-0.00025455,0.00015604,0.00000006,-0
 .00020070,-0.00011658,0.00000004,0.00027343,0.00013853,0.00000010,0.00
 000573,0.00035494,-0.00000053,-0.00000568,-0.00000374,-0.00000002,0.00
 009918,-0.00015451,-0.00000008,0.00006520,0.00004609,-0.00000023,0.000
 00537,0.00007844,-0.00000009,0.00021268,0.00005227,-0.00000013,0.00014
 956,-0.00003302,-0.00000021,0.00000454,0.00001765,0.00000004,-0.000065
 86,-0.00000175,0.00000005,-0.00003079,-0.00002295,0.00000009,0.0000517
 6,0.00000777,-0.00000002,-0.00003193,0.00014796,0.00000017,-0.00004472
 ,-0.00004158,-0.00000006,0.00000058,0.00001412,-0.00000009,-0.00004224
 ,0.00000602,0.00000002,-0.00012679,-0.00006013,0.00000008,-0.00004233,
 0.00005113,0.00000006,0.00005947,0.00001339,0.00000016,-0.00005437,-0.
 00001784,0.00000003,-0.00001730,-0.00002735,0.,-0.00000167,0.00001133,
 0.00000006,0.00047058,0.00009583,0.00001909|||@


 NO HUMAN INVESTIGATION CAN BECOME REAL SCIENCE
 WITHOUT GOING THROUGH MATHEMATICAL PEOPLE.
 -- LEONARDO DA VINCI, IN "PENSIERI" CA. 1492
 Job cpu time:       0 days  0 hours  0 minutes 13.0 seconds.
 File lengths (MBytes):  RWF=    774 Int=      0 D2E=      0 Chk=      5 Scr=      1
 Normal termination of Gaussian 09 at Wed Mar 11 11:15:09 2026.
