 Entering Link 1 = C:\Gaussian\G09W\l1.exe PID=     24636.
  
 Copyright (c) 1988,1990,1992,1993,1995,1998,2003,2009,2013,
            Gaussian, Inc.  All Rights Reserved.
  
 This is part of the Gaussian(R) 09 program.  It is based on
 the Gaussian(R) 03 system (copyright 2003, Gaussian, Inc.),
 the Gaussian(R) 98 system (copyright 1998, Gaussian, Inc.),
 the Gaussian(R) 94 system (copyright 1995, Gaussian, Inc.),
 the Gaussian 92(TM) system (copyright 1992, Gaussian, Inc.),
 the Gaussian 90(TM) system (copyright 1990, Gaussian, Inc.),
 the Gaussian 88(TM) system (copyright 1988, Gaussian, Inc.),
 the Gaussian 86(TM) system (copyright 1986, Carnegie Mellon
 University), and the Gaussian 82(TM) system (copyright 1983,
 Carnegie Mellon University). Gaussian is a federally registered
 trademark of Gaussian, Inc.
  
 This software contains proprietary and confidential information,
 including trade secrets, belonging to Gaussian, Inc.
  
 This software is provided under written license and may be
 used, copied, transmitted, or stored only in accord with that
 written license.
  
 The following legend is applicable only to US Government
 contracts under FAR:
  
                    RESTRICTED RIGHTS LEGEND
  
 Use, reproduction and disclosure by the US Government is
 subject to restrictions as set forth in subparagraphs (a)
 and (c) of the Commercial Computer Software - Restricted
 Rights clause in FAR 52.227-19.
  
 Gaussian, Inc.
 340 Quinnipiac St., Bldg. 40, Wallingford CT 06492
  
  
 ---------------------------------------------------------------
 Warning -- This program may not be used in any manner that
 competes with the business of Gaussian, Inc. or will provide
 assistance to any competitor of Gaussian, Inc.  The licensee
 of this program is prohibited from giving any competitor of
 Gaussian, Inc. access to this program.  By using this program,
 the user acknowledges that Gaussian, Inc. is engaged in the
 business of creating and licensing software in the field of
 computational chemistry and represents and warrants to the
 licensee that it is not a competitor of Gaussian, Inc. and that
 it will not use this program in any manner prohibited above.
 ---------------------------------------------------------------
  

 Cite this work as:
 Gaussian 09, Revision D.01,
 M. J. Frisch, G. W. Trucks, H. B. Schlegel, G. E. Scuseria, 
 M. A. Robb, J. R. Cheeseman, G. Scalmani, V. Barone, B. Mennucci, 
 G. A. Petersson, H. Nakatsuji, M. Caricato, X. Li, H. P. Hratchian, 
 A. F. Izmaylov, J. Bloino, G. Zheng, J. L. Sonnenberg, M. Hada, 
 M. Ehara, K. Toyota, R. Fukuda, J. Hasegawa, M. Ishida, T. Nakajima, 
 Y. Honda, O. Kitao, H. Nakai, T. Vreven, J. A. Montgomery, Jr., 
 J. E. Peralta, F. Ogliaro, M. Bearpark, J. J. Heyd, E. Brothers, 
 K. N. Kudin, V. N. Staroverov, T. Keith, R. Kobayashi, J. Normand, 
 K. Raghavachari, A. Rendell, J. C. Burant, S. S. Iyengar, J. Tomasi, 
 M. Cossi, N. Rega, J. M. Millam, M. Klene, J. E. Knox, J. B. Cross, 
 V. Bakken, C. Adamo, J. Jaramillo, R. Gomperts, R. E. Stratmann, 
 O. Yazyev, A. J. Austin, R. Cammi, C. Pomelli, J. W. Ochterski, 
 R. L. Martin, K. Morokuma, V. G. Zakrzewski, G. A. Voth, 
 P. Salvador, J. J. Dannenberg, S. Dapprich, A. D. Daniels, 
 O. Farkas, J. B. Foresman, J. V. Ortiz, J. Cioslowski, 
 and D. J. Fox, Gaussian, Inc., Wallingford CT, 2013.
 
 ******************************************
 Gaussian 09:  IA32W-G09RevD.01 24-Apr-2013
                12-Mar-2026 
 ******************************************
 %chk=C:\Users\User\Desktop\IMRG\ECE+ML\Cr_Gr_NS_CO.chk
 ---------------------------------------
 # opt freq pm6 scf=qc geom=connectivity
 ---------------------------------------
 1/14=-1,18=20,19=15,26=1,38=1,57=2/1,3;
 2/9=110,12=2,17=6,18=5,40=1/2;
 3/5=2,16=1,25=1,41=3900000,71=1/1,2,3;
 4/35=1/1;
 5/5=2,8=3,35=1,38=5/8;
 6/7=2,8=2,9=2,10=2,28=1/1;
 7//1,2,3,16;
 1/14=-1,18=20,19=15,26=1/3(2);
 2/9=110/2;
 99//99;
 2/9=110/2;
 3/5=2,16=1,25=1,41=3900000,71=1,135=20/1,2,3;
 4/5=5,16=3,35=1/1;
 5/5=2,8=3,35=1,38=5/8;
 7//1,2,3,16;
 1/14=-1,18=20,19=15,26=1/3(-5);
 2/9=110/2;
 6/7=2,8=2,9=2,10=2,19=2,28=1/1;
 99/9=1/99;
 -----------
 Cr_Gr_NS_CO
 -----------
 Symbolic Z-matrix:
 Charge =  0 Multiplicity = 1
 C                    -1.48734   1.25527   0. 
 C                    -0.11458   1.26757   0.00021 
 C                     0.63784   2.49562   0.00024 
 C                     2.76155   3.73782  -0.0001 
 C                     4.87637   4.98541  -0.00058 
 C                     2.0603    2.51615  -0.00001 
 C                     4.19236   3.77104  -0.00038 
 C                    -3.68033   2.52318  -0.00036 
 C                    -5.85442   3.76459  -0.00032 
 C                    -2.22717   2.49171  -0.00016 
 C                    -4.4314    3.73294  -0.00038 
 C                    -6.52317   4.98925  -0.00022 
 C                    -1.49723   3.66543   0.00004 
 C                    -3.77063   4.98776  -0.00006 
 C                    -5.83173   6.21539  -0.00016 
 C                     0.61876   4.98443   0.00024 
 C                    -1.48853   6.30241   0.00019 
 C                    -3.64606   7.47395  -0.00004 
 C                     2.76334   6.23383  -0.00007 
 C                     0.64426   7.4887    0.0001 
 C                    -1.48605   8.7395   -0.00011 
 C                    -0.07268   3.72258   0.00025 
 C                    -4.42338   6.2256   -0.00018 
 C                     2.03942   4.98572   0.00009 
 C                    -0.08682   6.24592   0.00026 
 C                    -2.24783   7.50962   0.00012 
 C                     4.18329   6.20584  -0.00024 
 C                     2.05117   7.46407  -0.0001 
 C                    -0.10808   8.71832  -0.00011 
 H                     4.73683   7.14171  -0.00013 
 H                     2.60821   8.39816  -0.00027 
 H                     0.45062   9.65387  -0.00038 
 H                    -2.02415   9.68484  -0.0001 
 H                    -4.21082   8.4023   -0.00019 
 H                    -6.39162   7.1481   -0.0001 
 H                    -7.61353   5.00188  -0.00006 
 H                    -6.41745   2.83421  -0.00027 
 H                    -4.20834   1.57407  -0.00036 
 H                    -2.035     0.31468   0.00008 
 H                     0.44259   0.33017   0.00001 
 H                     2.60785   1.57708  -0.00018 
 H                     4.74181   2.8329   -0.00058 
 H                     5.96597   4.99136  -0.0008 
 Cr                   -2.25175   4.98582   0.00002 
 C                    -0.97104   5.13234  -0.00007 
 O                    -0.97104   5.13234   1.13956 
 
 Add virtual bond connecting atoms C45        and C17        Dist= 2.42D+00.
 Add virtual bond connecting atoms C45        and C25        Dist= 2.69D+00.
 Add virtual bond connecting atoms C45        and Cr44       Dist= 2.44D+00.

 GradGradGradGradGradGradGradGradGradGradGradGradGradGradGradGradGradGrad
 Berny optimization.
 Initialization pass.
                           ----------------------------
                           !    Initial Parameters    !
                           ! (Angstroms and Degrees)  !
 --------------------------                            --------------------------
 ! Name  Definition              Value          Derivative Info.                !
 --------------------------------------------------------------------------------
 ! R1    R(1,2)                  1.3728         estimate D2E/DX2                !
 ! R2    R(1,10)                 1.4409         estimate D2E/DX2                !
 ! R3    R(1,39)                 1.0884         estimate D2E/DX2                !
 ! R4    R(2,3)                  1.4402         estimate D2E/DX2                !
 ! R5    R(2,40)                 1.0905         estimate D2E/DX2                !
 ! R6    R(3,6)                  1.4226         estimate D2E/DX2                !
 ! R7    R(3,22)                 1.4178         estimate D2E/DX2                !
 ! R8    R(4,6)                  1.4086         estimate D2E/DX2                !
 ! R9    R(4,7)                  1.4312         estimate D2E/DX2                !
 ! R10   R(4,24)                 1.4418         estimate D2E/DX2                !
 ! R11   R(5,7)                  1.3938         estimate D2E/DX2                !
 ! R12   R(5,27)                 1.4035         estimate D2E/DX2                !
 ! R13   R(5,43)                 1.0896         estimate D2E/DX2                !
 ! R14   R(6,41)                 1.087          estimate D2E/DX2                !
 ! R15   R(7,42)                 1.0872         estimate D2E/DX2                !
 ! R16   R(8,10)                 1.4535         estimate D2E/DX2                !
 ! R17   R(8,11)                 1.4239         estimate D2E/DX2                !
 ! R18   R(8,38)                 1.0861         estimate D2E/DX2                !
 ! R19   R(9,11)                 1.4234         estimate D2E/DX2                !
 ! R20   R(9,12)                 1.3954         estimate D2E/DX2                !
 ! R21   R(9,37)                 1.0875         estimate D2E/DX2                !
 ! R22   R(10,13)                1.3822         estimate D2E/DX2                !
 ! R23   R(11,14)                1.4182         estimate D2E/DX2                !
 ! R24   R(12,15)                1.4077         estimate D2E/DX2                !
 ! R25   R(12,36)                1.0904         estimate D2E/DX2                !
 ! R26   R(13,22)                1.4257         estimate D2E/DX2                !
 ! R27   R(13,44)                1.5208         estimate D2E/DX2                !
 ! R28   R(14,23)                1.3994         estimate D2E/DX2                !
 ! R29   R(14,44)                1.5189         estimate D2E/DX2                !
 ! R30   R(15,23)                1.4084         estimate D2E/DX2                !
 ! R31   R(15,35)                1.0879         estimate D2E/DX2                !
 ! R32   R(16,22)                1.4389         estimate D2E/DX2                !
 ! R33   R(16,24)                1.4207         estimate D2E/DX2                !
 ! R34   R(16,25)                1.4454         estimate D2E/DX2                !
 ! R35   R(17,25)                1.4028         estimate D2E/DX2                !
 ! R36   R(17,26)                1.4261         estimate D2E/DX2                !
 ! R37   R(17,44)                1.5218         estimate D2E/DX2                !
 ! R38   R(17,45)                1.2794         estimate D2E/DX2                !
 ! R39   R(18,23)                1.4706         estimate D2E/DX2                !
 ! R40   R(18,26)                1.3987         estimate D2E/DX2                !
 ! R41   R(18,34)                1.0866         estimate D2E/DX2                !
 ! R42   R(19,24)                1.4429         estimate D2E/DX2                !
 ! R43   R(19,27)                1.4202         estimate D2E/DX2                !
 ! R44   R(19,28)                1.4215         estimate D2E/DX2                !
 ! R45   R(20,25)                1.4419         estimate D2E/DX2                !
 ! R46   R(20,28)                1.4071         estimate D2E/DX2                !
 ! R47   R(20,29)                1.4415         estimate D2E/DX2                !
 ! R48   R(21,26)                1.4467         estimate D2E/DX2                !
 ! R49   R(21,29)                1.3781         estimate D2E/DX2                !
 ! R50   R(21,33)                1.0878         estimate D2E/DX2                !
 ! R51   R(25,45)                1.4219         estimate D2E/DX2                !
 ! R52   R(27,30)                1.0873         estimate D2E/DX2                !
 ! R53   R(28,31)                1.0876         estimate D2E/DX2                !
 ! R54   R(29,32)                1.0897         estimate D2E/DX2                !
 ! R55   R(44,45)                1.2891         estimate D2E/DX2                !
 ! R56   R(45,46)                1.1396         estimate D2E/DX2                !
 ! A1    A(2,1,10)             120.3811         estimate D2E/DX2                !
 ! A2    A(2,1,39)             120.7234         estimate D2E/DX2                !
 ! A3    A(10,1,39)            118.8954         estimate D2E/DX2                !
 ! A4    A(1,2,3)              122.0091         estimate D2E/DX2                !
 ! A5    A(1,2,40)             120.2126         estimate D2E/DX2                !
 ! A6    A(3,2,40)             117.7783         estimate D2E/DX2                !
 ! A7    A(2,3,6)              122.323          estimate D2E/DX2                !
 ! A8    A(2,3,22)             118.4295         estimate D2E/DX2                !
 ! A9    A(6,3,22)             119.2474         estimate D2E/DX2                !
 ! A10   A(6,4,7)              121.1867         estimate D2E/DX2                !
 ! A11   A(6,4,24)             120.0864         estimate D2E/DX2                !
 ! A12   A(7,4,24)             118.7269         estimate D2E/DX2                !
 ! A13   A(7,5,27)             121.017          estimate D2E/DX2                !
 ! A14   A(7,5,43)             119.7036         estimate D2E/DX2                !
 ! A15   A(27,5,43)            119.2794         estimate D2E/DX2                !
 ! A16   A(3,6,4)              120.6839         estimate D2E/DX2                !
 ! A17   A(3,6,41)             119.4183         estimate D2E/DX2                !
 ! A18   A(4,6,41)             119.8978         estimate D2E/DX2                !
 ! A19   A(4,7,5)              120.7208         estimate D2E/DX2                !
 ! A20   A(4,7,42)             119.0266         estimate D2E/DX2                !
 ! A21   A(5,7,42)             120.2526         estimate D2E/DX2                !
 ! A22   A(10,8,11)            123.0746         estimate D2E/DX2                !
 ! A23   A(10,8,38)            117.8469         estimate D2E/DX2                !
 ! A24   A(11,8,38)            119.0785         estimate D2E/DX2                !
 ! A25   A(11,9,12)            119.9113         estimate D2E/DX2                !
 ! A26   A(11,9,37)            119.9067         estimate D2E/DX2                !
 ! A27   A(12,9,37)            120.182          estimate D2E/DX2                !
 ! A28   A(1,10,8)             122.1353         estimate D2E/DX2                !
 ! A29   A(1,10,13)            117.2279         estimate D2E/DX2                !
 ! A30   A(8,10,13)            120.6368         estimate D2E/DX2                !
 ! A31   A(8,11,9)             123.1078         estimate D2E/DX2                !
 ! A32   A(8,11,14)            120.3955         estimate D2E/DX2                !
 ! A33   A(9,11,14)            116.4967         estimate D2E/DX2                !
 ! A34   A(9,12,15)            121.9432         estimate D2E/DX2                !
 ! A35   A(9,12,36)            119.3009         estimate D2E/DX2                !
 ! A36   A(15,12,36)           118.7559         estimate D2E/DX2                !
 ! A37   A(10,13,22)           124.1752         estimate D2E/DX2                !
 ! A38   A(10,13,44)           118.3771         estimate D2E/DX2                !
 ! A39   A(22,13,44)           117.4477         estimate D2E/DX2                !
 ! A40   A(11,14,23)           124.4256         estimate D2E/DX2                !
 ! A41   A(11,14,44)           117.6975         estimate D2E/DX2                !
 ! A42   A(23,14,44)           117.8769         estimate D2E/DX2                !
 ! A43   A(12,15,23)           119.8349         estimate D2E/DX2                !
 ! A44   A(12,15,35)           119.6049         estimate D2E/DX2                !
 ! A45   A(23,15,35)           120.5602         estimate D2E/DX2                !
 ! A46   A(22,16,24)           118.7733         estimate D2E/DX2                !
 ! A47   A(22,16,25)           122.0594         estimate D2E/DX2                !
 ! A48   A(24,16,25)           119.1674         estimate D2E/DX2                !
 ! A49   A(25,17,26)           124.4765         estimate D2E/DX2                !
 ! A50   A(25,17,44)           117.7927         estimate D2E/DX2                !
 ! A51   A(26,17,44)           117.7308         estimate D2E/DX2                !
 ! A52   A(23,18,26)           123.3713         estimate D2E/DX2                !
 ! A53   A(23,18,34)           116.7761         estimate D2E/DX2                !
 ! A54   A(26,18,34)           119.8525         estimate D2E/DX2                !
 ! A55   A(24,19,27)           118.9848         estimate D2E/DX2                !
 ! A56   A(24,19,28)           119.8195         estimate D2E/DX2                !
 ! A57   A(27,19,28)           121.1957         estimate D2E/DX2                !
 ! A58   A(25,20,28)           119.4641         estimate D2E/DX2                !
 ! A59   A(25,20,29)           118.073          estimate D2E/DX2                !
 ! A60   A(28,20,29)           122.4629         estimate D2E/DX2                !
 ! A61   A(26,21,29)           120.8936         estimate D2E/DX2                !
 ! A62   A(26,21,33)           118.5771         estimate D2E/DX2                !
 ! A63   A(29,21,33)           120.5293         estimate D2E/DX2                !
 ! A64   A(3,22,13)            117.777          estimate D2E/DX2                !
 ! A65   A(3,22,16)            121.2041         estimate D2E/DX2                !
 ! A66   A(13,22,16)           121.0189         estimate D2E/DX2                !
 ! A67   A(14,23,15)           117.3883         estimate D2E/DX2                !
 ! A68   A(14,23,18)           120.2865         estimate D2E/DX2                !
 ! A69   A(15,23,18)           122.3252         estimate D2E/DX2                !
 ! A70   A(4,24,16)            120.005          estimate D2E/DX2                !
 ! A71   A(4,24,19)            119.8289         estimate D2E/DX2                !
 ! A72   A(16,24,19)           120.1662         estimate D2E/DX2                !
 ! A73   A(16,25,17)           121.5273         estimate D2E/DX2                !
 ! A74   A(16,25,20)           120.3138         estimate D2E/DX2                !
 ! A75   A(16,25,45)            67.67           estimate D2E/DX2                !
 ! A76   A(17,25,20)           118.159          estimate D2E/DX2                !
 ! A77   A(17,26,18)           120.707          estimate D2E/DX2                !
 ! A78   A(17,26,21)           116.0575         estimate D2E/DX2                !
 ! A79   A(18,26,21)           123.2355         estimate D2E/DX2                !
 ! A80   A(5,27,19)            120.7216         estimate D2E/DX2                !
 ! A81   A(5,27,30)            119.8045         estimate D2E/DX2                !
 ! A82   A(19,27,30)           119.4739         estimate D2E/DX2                !
 ! A83   A(19,28,20)           121.0692         estimate D2E/DX2                !
 ! A84   A(19,28,31)           119.1239         estimate D2E/DX2                !
 ! A85   A(20,28,31)           119.8069         estimate D2E/DX2                !
 ! A86   A(20,29,21)           122.3405         estimate D2E/DX2                !
 ! A87   A(20,29,32)           117.6945         estimate D2E/DX2                !
 ! A88   A(21,29,32)           119.965          estimate D2E/DX2                !
 ! A89   A(13,44,14)           119.8184         estimate D2E/DX2                !
 ! A90   A(13,44,17)           120.1541         estimate D2E/DX2                !
 ! A91   A(13,44,45)            66.7812         estimate D2E/DX2                !
 ! A92   A(14,44,17)           120.0275         estimate D2E/DX2                !
 ! A93   A(17,45,46)            89.9886         estimate D2E/DX2                !
 ! A94   A(25,45,44)           134.9771         estimate D2E/DX2                !
 ! A95   A(25,45,46)            89.9868         estimate D2E/DX2                !
 ! A96   A(44,45,46)            89.9964         estimate D2E/DX2                !
 ! A97   L(26,17,45,9,-1)      171.6899         estimate D2E/DX2                !
 ! A98   L(20,25,45,16,-1)     187.9838         estimate D2E/DX2                !
 ! A99   L(14,44,45,13,-1)     186.5997         estimate D2E/DX2                !
 ! A100  L(26,17,45,9,-2)      179.9868         estimate D2E/DX2                !
 ! A101  L(20,25,45,16,-2)     180.022          estimate D2E/DX2                !
 ! A102  L(14,44,45,13,-2)     179.9926         estimate D2E/DX2                !
 ! D1    D(10,1,2,3)            -0.0025         estimate D2E/DX2                !
 ! D2    D(10,1,2,40)         -179.9806         estimate D2E/DX2                !
 ! D3    D(39,1,2,3)          -179.9941         estimate D2E/DX2                !
 ! D4    D(39,1,2,40)            0.0278         estimate D2E/DX2                !
 ! D5    D(2,1,10,8)          -179.9988         estimate D2E/DX2                !
 ! D6    D(2,1,10,13)           -0.0059         estimate D2E/DX2                !
 ! D7    D(39,1,10,8)           -0.0071         estimate D2E/DX2                !
 ! D8    D(39,1,10,13)         179.9859         estimate D2E/DX2                !
 ! D9    D(1,2,3,6)           -179.9775         estimate D2E/DX2                !
 ! D10   D(1,2,3,22)             0.0102         estimate D2E/DX2                !
 ! D11   D(40,2,3,6)             0.0012         estimate D2E/DX2                !
 ! D12   D(40,2,3,22)          179.9889         estimate D2E/DX2                !
 ! D13   D(2,3,6,4)            179.9947         estimate D2E/DX2                !
 ! D14   D(2,3,6,41)            -0.0032         estimate D2E/DX2                !
 ! D15   D(22,3,6,4)             0.0071         estimate D2E/DX2                !
 ! D16   D(22,3,6,41)         -179.9908         estimate D2E/DX2                !
 ! D17   D(2,3,22,13)           -0.0093         estimate D2E/DX2                !
 ! D18   D(2,3,22,16)         -179.9984         estimate D2E/DX2                !
 ! D19   D(6,3,22,13)          179.9788         estimate D2E/DX2                !
 ! D20   D(6,3,22,16)           -0.0104         estimate D2E/DX2                !
 ! D21   D(7,4,6,3)           -179.9983         estimate D2E/DX2                !
 ! D22   D(7,4,6,41)            -0.0004         estimate D2E/DX2                !
 ! D23   D(24,4,6,3)             0.0005         estimate D2E/DX2                !
 ! D24   D(24,4,6,41)          179.9984         estimate D2E/DX2                !
 ! D25   D(6,4,7,5)            179.9946         estimate D2E/DX2                !
 ! D26   D(6,4,7,42)             0.0023         estimate D2E/DX2                !
 ! D27   D(24,4,7,5)            -0.0043         estimate D2E/DX2                !
 ! D28   D(24,4,7,42)         -179.9966         estimate D2E/DX2                !
 ! D29   D(6,4,24,16)           -0.0051         estimate D2E/DX2                !
 ! D30   D(6,4,24,19)         -179.9968         estimate D2E/DX2                !
 ! D31   D(7,4,24,16)          179.9938         estimate D2E/DX2                !
 ! D32   D(7,4,24,19)            0.0021         estimate D2E/DX2                !
 ! D33   D(27,5,7,4)             0.0119         estimate D2E/DX2                !
 ! D34   D(27,5,7,42)         -179.9959         estimate D2E/DX2                !
 ! D35   D(43,5,7,4)          -179.9999         estimate D2E/DX2                !
 ! D36   D(43,5,7,42)           -0.0077         estimate D2E/DX2                !
 ! D37   D(7,5,27,19)           -0.0173         estimate D2E/DX2                !
 ! D38   D(7,5,27,30)          179.9838         estimate D2E/DX2                !
 ! D39   D(43,5,27,19)         179.9944         estimate D2E/DX2                !
 ! D40   D(43,5,27,30)          -0.0044         estimate D2E/DX2                !
 ! D41   D(11,8,10,1)          179.9932         estimate D2E/DX2                !
 ! D42   D(11,8,10,13)           0.0005         estimate D2E/DX2                !
 ! D43   D(38,8,10,1)            0.002          estimate D2E/DX2                !
 ! D44   D(38,8,10,13)        -179.9907         estimate D2E/DX2                !
 ! D45   D(10,8,11,9)         -179.9875         estimate D2E/DX2                !
 ! D46   D(10,8,11,14)          -0.0059         estimate D2E/DX2                !
 ! D47   D(38,8,11,9)            0.0036         estimate D2E/DX2                !
 ! D48   D(38,8,11,14)         179.9852         estimate D2E/DX2                !
 ! D49   D(12,9,11,8)          179.9943         estimate D2E/DX2                !
 ! D50   D(12,9,11,14)           0.012          estimate D2E/DX2                !
 ! D51   D(37,9,11,8)           -0.0011         estimate D2E/DX2                !
 ! D52   D(37,9,11,14)        -179.9834         estimate D2E/DX2                !
 ! D53   D(11,9,12,15)          -0.0008         estimate D2E/DX2                !
 ! D54   D(11,9,12,36)        -179.9935         estimate D2E/DX2                !
 ! D55   D(37,9,12,15)         179.9946         estimate D2E/DX2                !
 ! D56   D(37,9,12,36)           0.0019         estimate D2E/DX2                !
 ! D57   D(1,10,13,22)           0.0067         estimate D2E/DX2                !
 ! D58   D(1,10,13,44)        -179.9942         estimate D2E/DX2                !
 ! D59   D(8,10,13,22)         179.9997         estimate D2E/DX2                !
 ! D60   D(8,10,13,44)          -0.0012         estimate D2E/DX2                !
 ! D61   D(8,11,14,23)         179.9937         estimate D2E/DX2                !
 ! D62   D(8,11,14,44)           0.0113         estimate D2E/DX2                !
 ! D63   D(9,11,14,23)          -0.0235         estimate D2E/DX2                !
 ! D64   D(9,11,14,44)         179.9941         estimate D2E/DX2                !
 ! D65   D(9,12,15,23)          -0.0008         estimate D2E/DX2                !
 ! D66   D(9,12,15,35)         179.9989         estimate D2E/DX2                !
 ! D67   D(36,12,15,23)        179.9919         estimate D2E/DX2                !
 ! D68   D(36,12,15,35)         -0.0083         estimate D2E/DX2                !
 ! D69   D(10,13,22,3)           0.001          estimate D2E/DX2                !
 ! D70   D(10,13,22,16)        179.9902         estimate D2E/DX2                !
 ! D71   D(44,13,22,3)        -179.9981         estimate D2E/DX2                !
 ! D72   D(44,13,22,16)         -0.0089         estimate D2E/DX2                !
 ! D73   D(10,13,44,14)          0.0069         estimate D2E/DX2                !
 ! D74   D(10,13,44,17)       -179.9981         estimate D2E/DX2                !
 ! D75   D(10,13,44,45)       -179.9857         estimate D2E/DX2                !
 ! D76   D(22,13,44,14)       -179.9939         estimate D2E/DX2                !
 ! D77   D(22,13,44,17)          0.001          estimate D2E/DX2                !
 ! D78   D(22,13,44,45)          0.0135         estimate D2E/DX2                !
 ! D79   D(11,14,23,15)          0.0221         estimate D2E/DX2                !
 ! D80   D(11,14,23,18)       -179.9904         estimate D2E/DX2                !
 ! D81   D(44,14,23,15)       -179.9955         estimate D2E/DX2                !
 ! D82   D(44,14,23,18)         -0.008          estimate D2E/DX2                !
 ! D83   D(11,14,44,13)         -0.012          estimate D2E/DX2                !
 ! D84   D(11,14,44,17)        179.993          estimate D2E/DX2                !
 ! D85   D(23,14,44,13)       -179.9956         estimate D2E/DX2                !
 ! D86   D(23,14,44,17)          0.0095         estimate D2E/DX2                !
 ! D87   D(11,14,45,25)       -179.9971         estimate D2E/DX2                !
 ! D88   D(11,14,45,46)        -90.0147         estimate D2E/DX2                !
 ! D89   D(23,14,45,25)          0.0229         estimate D2E/DX2                !
 ! D90   D(23,14,45,46)         90.0053         estimate D2E/DX2                !
 ! D91   D(12,15,23,14)         -0.0092         estimate D2E/DX2                !
 ! D92   D(12,15,23,18)       -179.9964         estimate D2E/DX2                !
 ! D93   D(35,15,23,14)        179.991          estimate D2E/DX2                !
 ! D94   D(35,15,23,18)          0.0039         estimate D2E/DX2                !
 ! D95   D(24,16,22,3)           0.0059         estimate D2E/DX2                !
 ! D96   D(24,16,22,13)       -179.9829         estimate D2E/DX2                !
 ! D97   D(25,16,22,3)        -179.9999         estimate D2E/DX2                !
 ! D98   D(25,16,22,13)          0.0113         estimate D2E/DX2                !
 ! D99   D(22,16,24,4)           0.0019         estimate D2E/DX2                !
 ! D100  D(22,16,24,19)        179.9936         estimate D2E/DX2                !
 ! D101  D(25,16,24,4)        -179.9925         estimate D2E/DX2                !
 ! D102  D(25,16,24,19)         -0.0008         estimate D2E/DX2                !
 ! D103  D(22,16,25,17)         -0.005          estimate D2E/DX2                !
 ! D104  D(22,16,25,20)       -179.9929         estimate D2E/DX2                !
 ! D105  D(22,16,25,45)         -0.0149         estimate D2E/DX2                !
 ! D106  D(24,16,25,17)        179.9893         estimate D2E/DX2                !
 ! D107  D(24,16,25,20)          0.0013         estimate D2E/DX2                !
 ! D108  D(24,16,25,45)        179.9793         estimate D2E/DX2                !
 ! D109  D(26,17,25,16)       -179.9962         estimate D2E/DX2                !
 ! D110  D(26,17,25,20)         -0.008          estimate D2E/DX2                !
 ! D111  D(44,17,25,16)         -0.003          estimate D2E/DX2                !
 ! D112  D(44,17,25,20)        179.9852         estimate D2E/DX2                !
 ! D113  D(25,17,26,18)        179.9954         estimate D2E/DX2                !
 ! D114  D(25,17,26,21)          0.0108         estimate D2E/DX2                !
 ! D115  D(44,17,26,18)          0.0021         estimate D2E/DX2                !
 ! D116  D(44,17,26,21)       -179.9825         estimate D2E/DX2                !
 ! D117  D(28,20,45,44)       -179.9961         estimate D2E/DX2                !
 ! D118  D(28,20,45,46)         90.0116         estimate D2E/DX2                !
 ! D119  D(29,20,45,44)         -0.0182         estimate D2E/DX2                !
 ! D120  D(29,20,45,46)        -90.0105         estimate D2E/DX2                !
 ! D121  D(18,26,45,46)        -90.0098         estimate D2E/DX2                !
 ! D122  D(21,26,45,46)         90.0129         estimate D2E/DX2                !
 ! D123  D(25,17,44,13)          0.0049         estimate D2E/DX2                !
 ! D124  D(25,17,44,14)        179.9998         estimate D2E/DX2                !
 ! D125  D(26,17,44,13)        179.9986         estimate D2E/DX2                !
 ! D126  D(26,17,44,14)         -0.0065         estimate D2E/DX2                !
 ! D127  D(26,18,23,14)          0.0039         estimate D2E/DX2                !
 ! D128  D(26,18,23,15)        179.9907         estimate D2E/DX2                !
 ! D129  D(34,18,23,14)        179.9976         estimate D2E/DX2                !
 ! D130  D(34,18,23,15)         -0.0156         estimate D2E/DX2                !
 ! D131  D(23,18,26,17)         -0.0007         estimate D2E/DX2                !
 ! D132  D(23,18,26,21)        179.9827         estimate D2E/DX2                !
 ! D133  D(34,18,26,17)       -179.9942         estimate D2E/DX2                !
 ! D134  D(34,18,26,21)         -0.0107         estimate D2E/DX2                !
 ! D135  D(27,19,24,4)          -0.0072         estimate D2E/DX2                !
 ! D136  D(27,19,24,16)       -179.999          estimate D2E/DX2                !
 ! D137  D(28,19,24,4)         179.9902         estimate D2E/DX2                !
 ! D138  D(28,19,24,16)         -0.0015         estimate D2E/DX2                !
 ! D139  D(24,19,27,5)           0.0148         estimate D2E/DX2                !
 ! D140  D(24,19,27,30)       -179.9864         estimate D2E/DX2                !
 ! D141  D(28,19,27,5)        -179.9826         estimate D2E/DX2                !
 ! D142  D(28,19,27,30)          0.0163         estimate D2E/DX2                !
 ! D143  D(24,19,28,20)          0.0035         estimate D2E/DX2                !
 ! D144  D(24,19,28,31)       -179.9967         estimate D2E/DX2                !
 ! D145  D(27,19,28,20)       -179.9991         estimate D2E/DX2                !
 ! D146  D(27,19,28,31)          0.0007         estimate D2E/DX2                !
 ! D147  D(28,20,25,16)          0.0006         estimate D2E/DX2                !
 ! D148  D(28,20,25,17)       -179.9877         estimate D2E/DX2                !
 ! D149  D(29,20,25,16)        179.9894         estimate D2E/DX2                !
 ! D150  D(29,20,25,17)          0.0011         estimate D2E/DX2                !
 ! D151  D(25,20,28,19)         -0.003          estimate D2E/DX2                !
 ! D152  D(25,20,28,31)        179.9972         estimate D2E/DX2                !
 ! D153  D(29,20,28,19)       -179.9913         estimate D2E/DX2                !
 ! D154  D(29,20,28,31)          0.0089         estimate D2E/DX2                !
 ! D155  D(25,20,29,21)          0.0025         estimate D2E/DX2                !
 ! D156  D(25,20,29,32)       -179.9913         estimate D2E/DX2                !
 ! D157  D(28,20,29,21)        179.991          estimate D2E/DX2                !
 ! D158  D(28,20,29,32)         -0.0029         estimate D2E/DX2                !
 ! D159  D(29,21,26,17)         -0.0068         estimate D2E/DX2                !
 ! D160  D(29,21,26,18)       -179.9909         estimate D2E/DX2                !
 ! D161  D(33,21,26,17)       -179.9966         estimate D2E/DX2                !
 ! D162  D(33,21,26,18)          0.0193         estimate D2E/DX2                !
 ! D163  D(26,21,29,20)          0.0005         estimate D2E/DX2                !
 ! D164  D(26,21,29,32)        179.9942         estimate D2E/DX2                !
 ! D165  D(33,21,29,20)        179.9901         estimate D2E/DX2                !
 ! D166  D(33,21,29,32)         -0.0162         estimate D2E/DX2                !
 ! D167  D(16,25,45,44)        179.977          estimate D2E/DX2                !
 ! D168  D(16,25,45,46)         89.9954         estimate D2E/DX2                !
 ! D169  D(13,44,45,25)       -179.9751         estimate D2E/DX2                !
 ! D170  D(13,44,45,46)        -89.9974         estimate D2E/DX2                !
 --------------------------------------------------------------------------------
 Trust Radius=3.00D-01 FncErr=1.00D-07 GrdErr=1.00D-07
 Number of steps in this run=    276 maximum allowed number of steps=    276.
 GradGradGradGradGradGradGradGradGradGradGradGradGradGradGradGradGradGrad

                          Input orientation:                          
 ---------------------------------------------------------------------
 Center     Atomic      Atomic             Coordinates (Angstroms)
 Number     Number       Type             X           Y           Z
 ---------------------------------------------------------------------
      1          6           0       -1.487342    1.255274    0.000000
      2          6           0       -0.114579    1.267573    0.000214
      3          6           0        0.637842    2.495615    0.000237
      4          6           0        2.761554    3.737816   -0.000096
      5          6           0        4.876369    4.985412   -0.000577
      6          6           0        2.060297    2.516154   -0.000014
      7          6           0        4.192364    3.771038   -0.000385
      8          6           0       -3.680332    2.523182   -0.000361
      9          6           0       -5.854424    3.764586   -0.000316
     10          6           0       -2.227169    2.491707   -0.000158
     11          6           0       -4.431403    3.732940   -0.000377
     12          6           0       -6.523170    4.989254   -0.000217
     13          6           0       -1.497229    3.665426    0.000042
     14          6           0       -3.770635    4.987756   -0.000065
     15          6           0       -5.831731    6.215386   -0.000158
     16          6           0        0.618765    4.984426    0.000243
     17          6           0       -1.488529    6.302410    0.000188
     18          6           0       -3.646057    7.473946   -0.000044
     19          6           0        2.763344    6.233835   -0.000066
     20          6           0        0.644264    7.488696    0.000097
     21          6           0       -1.486048    8.739497   -0.000106
     22          6           0       -0.072682    3.722583    0.000254
     23          6           0       -4.423380    6.225598   -0.000181
     24          6           0        2.039423    4.985716    0.000088
     25          6           0       -0.086819    6.245918    0.000262
     26          6           0       -2.247828    7.509622    0.000125
     27          6           0        4.183286    6.205843   -0.000242
     28          6           0        2.051167    7.464069   -0.000096
     29          6           0       -0.108077    8.718323   -0.000112
     30          1           0        4.736826    7.141709   -0.000134
     31          1           0        2.608212    8.398162   -0.000269
     32          1           0        0.450622    9.653867   -0.000382
     33          1           0       -2.024149    9.684844   -0.000104
     34          1           0       -4.210816    8.402296   -0.000186
     35          1           0       -6.391623    7.148101   -0.000098
     36          1           0       -7.613530    5.001882   -0.000063
     37          1           0       -6.417453    2.834207   -0.000272
     38          1           0       -4.208336    1.574068   -0.000359
     39          1           0       -2.035005    0.314677    0.000084
     40          1           0        0.442586    0.330166    0.000014
     41          1           0        2.607852    1.577080   -0.000179
     42          1           0        4.741811    2.832903   -0.000582
     43          1           0        5.965971    4.991361   -0.000799
     44         24           0       -2.251750    4.985817    0.000017
     45          6           0       -0.971037    5.132336   -0.000065
     46          8           0       -0.971037    5.132336    1.139563
 ---------------------------------------------------------------------
                    Distance matrix (angstroms):
                    1          2          3          4          5
     1  C    0.000000
     2  C    1.372818   0.000000
     3  C    2.460661   1.440217   0.000000
     4  C    4.920988   3.791337   2.460328   0.000000
     5  C    7.376364   6.223494   4.915709   2.455390   0.000000
     6  C    3.765044   2.507795   1.422603   1.408623   3.745330
     7  C    6.211934   4.981675   3.776417   1.431196   1.393760
     8  C    2.533140   3.780364   4.318263   6.555397   8.903916
     9  C    5.036670   6.259464   6.615119   8.616019  10.800015
    10  C    1.440871   2.441627   2.865014   5.141998   7.528533
    11  C    3.847899   4.971218   5.218067   7.192959   9.391662
    12  C    6.269144   7.410867   7.582765   9.368681  11.399540
    13  C    2.410172   2.767927   2.434540   4.259398   6.508849
    14  C    4.375483   5.215986   5.064132   6.650702   8.647004
    15  C    6.593666   7.560866   7.462713   8.943316  10.778509
    16  C    4.282786   3.788507   2.488884   2.479028   4.257604
    17  C    5.047136   5.218939   4.360406   4.963904   6.499724
    18  C    6.582699   7.140757   6.567768   7.417287   8.878319
    19  C    6.546327   5.739878   4.300238   2.496019   2.454269
    20  C    6.587813   6.267233   4.993085   4.307204   4.917026
    21  C    7.484223   7.596748   6.595223   6.561930   7.387389
    22  C    2.844095   2.455367   1.417849   2.834277   5.107626
    23  C    5.772732   6.568697   6.287188   7.603442   9.382078
    24  C    5.133641   4.297012   2.857452   1.441779   2.836946
    25  C    5.183434   4.978422   3.819674   3.795234   5.120753
    26  C    6.300413   6.596509   5.785098   6.270600   7.558163
    27  C    7.527559   6.546613   5.131857   2.848241   1.403502
    28  C    7.146340   6.564070   5.165562   3.793364   3.758392
    29  C    7.589432   7.450753   6.267256   5.748063   6.227305
    30  H    8.566818   7.618504   6.195794   3.935503   2.160808
    31  H    8.233736   7.632751   6.222734   4.662868   4.097731
    32  H    8.619284   8.405318   7.160700   6.351382   6.432862
    33  H    8.446645   8.631159   7.666238   7.633485   8.348761
    34  H    7.648348   8.226994   7.641883   8.388761   9.708349
    35  H    7.666641   8.601273   8.429650   9.767839  11.473660
    36  H    7.181034   8.377311   8.623602  10.451805  12.489910
    37  H    5.176778   6.494657   7.063415   9.223376  11.496873
    38  H    2.739605   4.105214   4.933020   7.298025   9.704078
    39  H    1.088420   2.143839   3.449725   5.892780   8.341634
    40  H    2.140197   1.090488   2.174234   4.121855   6.428821
    41  H    4.107818   2.739967   2.173625   2.166196   4.094252
    42  H    6.425828   5.102429   4.117806   2.177221   2.156710
    43  H    8.337279   7.130195   5.883681   3.440881   1.089618
    44  Cr   3.808053   4.288687   3.814558   5.166306   7.128119
    45  C    3.911288   3.958524   3.088816   3.984585   5.849251
    46  O    4.073915   4.119227   3.292241   4.144362   5.959334
                    6          7          8          9         10
     6  C    0.000000
     7  C    2.473953   0.000000
     8  C    5.740633   7.970978   0.000000
     9  C    8.012576  10.046789   2.503549   0.000000
    10  C    4.287535   6.545768   1.453504   3.844112   0.000000
    11  C    6.604751   8.623851   1.423946   1.423372   2.529685
    12  C    8.932643  10.784559   3.763407   1.395361   4.969242
    13  C    3.738558   5.690573   2.463871   4.358323   1.382183
    14  C    6.333133   8.055417   2.466228   2.416262   2.934714
    15  C    8.715987  10.317816   4.273276   2.450906   5.182534
    16  C    2.858387   3.773979   4.953783   6.587123   3.783251
    17  C    5.189402   6.219356   4.368817   5.049910   3.881629
    18  C    7.559244   8.669047   4.950883   4.316971   5.180343
    19  C    3.783573   2.847361   7.435719   8.964548   6.237687
    20  C    5.170233   5.139065   6.584714   7.490123   5.763248
    21  C    7.162859   7.545194   6.592227   6.620608   6.291593
    22  C    2.450524   4.265321   3.801803   5.781894   2.481304
    23  C    7.469808   8.958565   3.776242   2.846835   4.331892
    24  C    2.469650   2.471962   6.227333   7.987739   4.942053
    25  C    4.303631   4.943322   5.174177   6.278716   4.321481
    26  C    6.595048   7.446683   5.188126   5.199311   5.017958
    27  C    4.256863   2.434822   8.683230  10.330312   7.408693
    28  C    4.947924   4.268865   7.567196   8.728376   6.559615
    29  C    6.570293   6.555106   7.151279   7.586832   6.577333
    30  H    5.344115   3.414361   9.601008  11.116633   8.373753
    31  H    5.907472   4.890788   8.605881   9.648121   7.633290
    32  H    7.316966   6.971965   8.240841   8.627702   7.646378
    33  H    8.250625   8.580101   7.350670   7.051274   7.196001
    34  H    8.600786   9.594894   5.902999   4.920346   6.234575
    35  H    9.637940  11.109695   5.361061   3.425895   6.246974
    36  H    9.988081  11.869882   4.649085   2.150664   5.942547
    37  H    8.483714  10.651096   2.754735   1.087477   4.204258
    38  H    6.339028   8.683227   1.086096   2.740068   2.183365
    39  H    4.649516   7.122257   2.754015   5.146827   2.185495
    40  H    2.719473   5.089246   4.669879   7.172696   3.435091
    41  H    1.087050   2.706313   6.358960   8.740440   4.920769
    42  H    2.700158   1.087194   8.427837  10.637116   6.977328
    43  H    4.623953   2.152875   9.957062  11.883884   8.565968
    44  Cr   4.969203   6.557613   2.847002   3.804032   2.494231
    45  C    4.004171   5.339835   3.761379   5.071313   2.924173
    46  O    4.163175   5.460157   3.930317   5.197840   3.138432
                   11         12         13         14         15
    11  C    0.000000
    12  C    2.440044   0.000000
    13  C    2.934951   5.197365   0.000000
    14  C    1.418161   2.752535   2.630006   0.000000
    15  C    2.850168   1.407654   5.028937   2.398999   0.000000
    16  C    5.202924   7.141937   2.493430   4.389401   6.566899
    17  C    3.906749   5.203075   2.636998   2.633690   4.344074
    18  C    3.822551   3.801510   4.372904   2.489309   2.522131
    19  C    7.617012   9.369543   4.974858   6.651736   8.595095
    20  C    6.314120   7.590740   4.382166   5.074055   6.599988
    21  C    5.808677   6.279882   5.074083   4.392596   5.025544
    22  C    4.358734   6.573679   1.425693   3.908391   6.275406
    23  C    2.492671   2.436733   3.888038   1.399403   1.408389
    24  C    6.590982   8.562594   3.775060   5.810059   7.966628
    25  C    5.019011   6.557882   2.940781   3.892746   5.744993
    26  C    4.362491   4.962943   3.916790   2.945972   3.810434
    27  C    8.962595  10.775355   6.222697   8.046651  10.015021
    28  C    7.479642   8.924347   5.198154   6.326571   7.981184
    29  C    6.598879   7.420201   5.240374   5.227950   6.246993
    30  H    9.781418  11.463882   7.137786   8.775899  10.609076
    31  H    8.445146   9.746938   6.265256   7.233295   8.717635
    32  H    7.674083   8.390018   6.297265   6.292186   7.161782
    33  H    6.420283   6.503057   6.042436   5.011272   5.151196
    34  H    4.674564   4.122601   5.459074   3.442796   2.722120
    35  H    3.937739   2.162852   6.007006   3.396567   1.087858
    36  H    3.425806   1.090433   6.260611   3.842921   2.155783
    37  H    2.179934   2.157638   4.989943   3.412245   3.431536
    38  H    2.170366   4.125767   3.424015   3.441635   4.917037
    39  H    4.174595   6.480378   3.393630   4.984985   7.016659
    40  H    5.944294   8.380265   3.858347   6.280475   8.602492
    41  H    7.361986   9.747743   4.605744   7.233105   9.630184
    42  H    9.217263  11.469510   6.294340   8.780953  11.101396
    43  H   10.473252  12.489141   7.580070   9.736606  11.861029
    44  Cr   2.514078   4.271421   1.520768   1.518886   3.785248
    45  C    3.732620   5.553977   1.558429   2.803329   4.979895
    46  O    3.902808   5.669723   1.930599   3.026121   5.108651
                   16         17         18         19         20
    16  C    0.000000
    17  C    2.485512   0.000000
    18  C    4.938261   2.455081   0.000000
    19  C    2.481984   4.252426   6.528269   0.000000
    20  C    2.504399   2.440509   4.290347   2.462758   0.000000
    21  C    4.304741   2.437089   2.503449   4.933121   2.470372
    22  C    1.438870   2.942810   5.180901   3.788064   3.833747
    23  C    5.192661   2.935855   1.470579   7.186729   5.222684
    24  C    1.420659   3.765651   6.206124   1.442866   2.865550
    25  C    1.445410   1.402848   3.765133   2.850189   1.441867
    26  C    3.820206   1.426147   1.398684   5.171023   2.892168
    27  C    3.767979   5.672637   7.931374   1.420217   3.764357
    28  C    2.863635   3.725440   5.697232   1.421504   1.407118
    29  C    3.803983   2.782497   3.750437   3.797070   1.441528
    30  H    4.648903   6.281678   8.389465   2.172295   4.107245
    31  H    3.951138   4.601681   6.322188   2.169880   2.164306
    32  H    4.672467   3.872024   4.640564   4.128595   2.173813
    33  H    5.392488   3.424580   2.742016   5.901657   3.455937
    34  H    5.916645   3.438077   1.086640   7.303502   4.940291
    35  H    7.336691   4.975492   2.764834   9.200506   7.044127
    36  H    8.232313   6.261550   4.674606  10.449748   8.624118
    37  H    7.357432   6.026833   5.404425   9.790021   8.457666
    38  H    5.910283   5.454775   5.926611   8.385568   7.650526
    39  H    5.371131   6.012618   7.338298   7.619749   7.658004
    40  H    4.657593   6.276695   8.231075   6.343439   7.161370
    41  H    3.945437   6.253725   8.595604   4.659350   6.229195
    42  H    4.650652   7.131243   9.586220   3.934548   6.202120
    43  H    5.347210   7.568911   9.927452   3.435194   5.878540
    44  Cr   2.870516   1.521816   2.852171   5.168048   3.827702
    45  C    1.596667   1.279403   3.555119   3.893443   2.856856
    46  O    1.961478   1.713198   3.733307   4.056804   3.075713
                   21         22         23         24         25
    21  C    0.000000
    22  C    5.212200   0.000000
    23  C    3.866213   5.019328   0.000000
    24  C    5.149740   2.460994   6.580663   0.000000
    25  C    2.859332   2.523375   4.336608   2.471643   0.000000
    26  C    1.446686   4.367256   2.526211   4.975000   2.503379
    27  C    6.209730   4.927458   8.606688   2.466750   4.270293
    28  C    3.760134   4.302262   6.591931   2.478382   2.460666
    29  C    1.378134   4.995866   4.983525   4.306288   2.472497
    30  H    6.424725   5.900999   9.205902   3.453156   4.906118
    31  H    4.108464   5.389641   7.359573   3.459524   3.448963
    32  H    2.141673   5.954324   5.958936   4.931118   3.450066
    33  H    1.087765   6.273498   4.209832   6.212441   3.947082
    34  H    2.745554   6.246909   2.187052   7.123097   4.653743
    35  H    5.157248   7.187711   2.173705   8.703933   6.369026
    36  H    7.177451   7.648594   3.416803   9.652967   7.628827
    37  H    7.693582   6.406663   3.934191   8.726267   7.191432
    38  H    7.665131   4.660445   4.656499   7.118556   6.230015
    39  H    8.442686   3.932497   6.375212   6.198352   6.243000
    40  H    8.627657   3.431325   7.644196   4.921791   5.939393
    41  H    8.249863   3.433431   8.428934   3.455707   5.390668
    42  H    8.583361   4.896006   9.772978   3.455069   5.913066
    43  H    8.341529   6.170505  10.462406   3.926552   6.181438
    44  Cr   3.830981   2.518749   2.500606   4.291174   2.504951
    45  C    3.643741   1.671659   3.621311   3.014028   1.421937
    46  O    3.817813   2.022986   3.796434   3.222230   1.822063
                   26         27         28         29         30
    26  C    0.000000
    27  C    6.561941   0.000000
    28  C    4.299236   2.475695   0.000000
    29  C    2.457539   4.972761   2.497095   0.000000
    30  H    6.994338   1.087314   2.704937   5.094978   0.000000
    31  H    4.936662   2.699466   1.087579   2.735092   2.471775
    32  H    3.446653   5.081500   2.712371   1.089672   4.968147
    33  H    2.186692   7.115876   4.641125   2.146042   7.223457
    34  H    2.156430   8.676713   6.331880   4.114893   9.036005
    35  H    4.159535  10.616805   8.448700   6.476770  11.128451
    36  H    5.922796  11.858093   9.973401   8.375188  12.534359
    37  H    6.264605  11.124009   9.651587   8.627343  11.957111
    38  H    6.250952   9.585022   8.594969   8.237264  10.536344
    39  H    7.198092   8.565802   8.234720   8.621736   9.615927
    40  H    7.667001   6.965372   7.313009   8.406212   8.052180
    41  H    7.666335   4.889524   5.913252   7.640264   5.957989
    42  H    8.409921   3.418871   5.356050   7.626243   4.308809
    43  H    8.591166   2.157066   4.630332   7.126310   2.476851
    44  Cr   2.523808   6.549668   4.965564   4.304293   7.313554
    45  C    2.698460   5.264927   3.817158   3.688361   6.051221
    46  O    2.929165   5.386892   3.983656   3.860423   6.157612
                   31         32         33         34         35
    31  H    0.000000
    32  H    2.496395   0.000000
    33  H    4.807736   2.474965   0.000000
    34  H    6.819030   4.826535   2.535043   0.000000
    35  H    9.086236   7.286644   5.050732   2.515735   0.000000
    36  H   10.771199   9.309754   7.291866   4.810538   2.469679
    37  H   10.602840   9.678750   8.138325   5.989395   4.313971
    38  H    9.645392   9.326792   8.399724   6.828229   5.986367
    39  H    9.322134   9.664306   9.370173   8.375186   8.104061
    40  H    8.353591   9.323704   9.674439   9.317372   9.653530
    41  H    6.821082   8.359912   9.337627   9.647684  10.584273
    42  H    5.960231   8.058527   9.629502  10.543609  11.940448
    43  H    4.783391   7.222051   9.266650  10.733195  12.544387
    44  Cr   5.938294   5.393840   4.704536   3.938308   4.670548
    45  C    4.845270   4.739763   4.672727   4.603131   5.783258
    46  O    4.977535   4.874918   4.809700   4.742135   5.894480
                   36         37         38         39         40
    36  H    0.000000
    37  H    2.475765   0.000000
    38  H    4.831693   2.543256   0.000000
    39  H    7.286277   5.055085   2.511858   0.000000
    40  H    9.312676   7.302763   4.814391   2.477639   0.000000
    41  H   10.779885   9.112436   6.816188   4.811421   2.498633
    42  H   12.544279  11.159264   9.038241   7.229571   4.974639
    43  H   13.579505  12.569904  10.732866   9.267523   7.227345
    44  Cr   5.361804   4.688550   3.932971   4.676166   5.379083
    45  C    6.643774   5.911416   4.810549   4.933747   5.005912
    46  O    6.740807   6.020305   4.943764   5.063623   5.133978
                   41         42         43         44         45
    41  H    0.000000
    42  H    2.476061   0.000000
    43  H    4.788975   2.481433   0.000000
    44  Cr   5.935926   7.317441   8.217723   0.000000
    45  C    5.044630   6.158248   6.938440   1.289068   0.000000
    46  O    5.171779   6.262903   7.031527   1.720541   1.139629
                   46
    46  O    0.000000
 Stoichiometry    C30H14CrO
 Framework group  C1[X(C30H14CrO)]
 Deg. of freedom   132
 Full point group                 C1      NOp   1
 Largest Abelian subgroup         C1      NOp   1
 Largest concise Abelian subgroup C1      NOp   1
                         Standard orientation:                         
 ---------------------------------------------------------------------
 Center     Atomic      Atomic             Coordinates (Angstroms)
 Number     Number       Type             X           Y           Z
 ---------------------------------------------------------------------
      1          6           0        0.549932    3.742972   -0.035205
      2          6           0       -0.822832    3.730710   -0.034795
      3          6           0       -1.575286    2.502689   -0.036348
      4          6           0       -3.699031    1.260546   -0.038063
      5          6           0       -5.813880    0.013009   -0.039936
      6          6           0       -2.997741    2.482188   -0.036408
      7          6           0       -5.129842    1.227363   -0.038177
      8          6           0        2.742888    2.475007   -0.037651
      9          6           0        4.916946    1.233547   -0.039653
     10          6           0        1.289725    2.506521   -0.037180
     11          6           0        3.493926    1.265231   -0.039450
     12          6           0        5.585659    0.008862   -0.041344
     13          6           0        0.559754    1.332822   -0.038484
     14          6           0        2.833124    0.010433   -0.040764
     15          6           0        4.894187   -1.217251   -0.042866
     16          6           0       -1.556276    0.013880   -0.039773
     17          6           0        0.550983   -1.304159   -0.041969
     18          6           0        2.708479   -2.475752   -0.044148
     19          6           0       -3.700889   -1.235470   -0.041472
     20          6           0       -1.581843   -2.490386   -0.043365
     21          6           0        0.548436   -3.741243   -0.045619
     22          6           0       -0.864795    1.275703   -0.038131
     23          6           0        3.485835   -1.227426   -0.042686
     24          6           0       -2.976934    0.012628   -0.039710
     25          6           0       -0.850726   -1.247630   -0.041600
     26          6           0        1.310249   -2.511390   -0.043813
     27          6           0       -5.120829   -1.207440   -0.041389
     28          6           0       -2.988744   -2.465723   -0.043306
     29          6           0       -0.829535   -3.720033   -0.045383
     30          1           0       -5.674395   -2.143290   -0.042485
     31          1           0       -3.545815   -3.399799   -0.044679
     32          1           0       -1.388259   -4.655560   -0.046855
     33          1           0        1.086511   -4.686604   -0.047003
     34          1           0        3.273213   -3.404116   -0.045657
     35          1           0        5.454054   -2.149980   -0.044178
     36          1           0        6.676019   -0.003796   -0.041375
     37          1           0        5.480000    2.163909   -0.038414
     38          1           0        3.270917    3.424107   -0.036423
     39          1           0        1.097620    4.683553   -0.033910
     40          1           0       -1.379971    4.668131   -0.033618
     41          1           0       -3.545271    3.421277   -0.035194
     42          1           0       -5.679264    2.165512   -0.036997
     43          1           0       -6.903482    0.007089   -0.039997
     44         24           0        1.314239    0.012412   -0.040445
     45          6           0        0.033522   -0.134072   -0.040531
     46          8           0        0.033698   -0.135642    1.099097
 ---------------------------------------------------------------------
 Rotational constants (GHZ):      0.3036648      0.1342671      0.0937934
 Standard basis: VSTO-6G (5D, 7F)
 There are   148 symmetry adapted cartesian basis functions of A   symmetry.
 There are   147 symmetry adapted basis functions of A   symmetry.
   147 basis functions,   888 primitive gaussians,   148 cartesian basis functions
    73 alpha electrons       73 beta electrons
       nuclear repulsion energy      1527.3486150165 Hartrees.
 Integral buffers will be    262144 words long.
 Regular integral format.
 Two-electron integral symmetry is turned off.
 Do NDO integrals.
 One-electron integrals computed using PRISM.
 NBasis=   147 RedAO= F EigKep=  0.00D+00  NBF=   147
 NBsUse=   147 1.00D-04 EigRej=  0.00D+00 NBFU=   147
 Simple Huckel Guess.
 Keep J ints in memory in canonical form, NReq=2119168.
 Gradient too large for Newton-Raphson -- use scaled steepest descent instead.
     Minimum is close to point  5 DX=  4.97D-02 DF= -4.72D-03 DXR=  5.85D-02 DFR=  2.73D-03 which will be used.
 Gradient too large for Newton-Raphson -- use scaled steepest descent instead.
     Accept linear search using points  3 and  4.
 Gradient too large for Newton-Raphson -- use scaled steepest descent instead.
     Minimum is close to point  2 DX=  2.28D-02 DF= -5.78D-05 DXR=  2.48D-02 DFR=  6.13D-04 which will be used.
 Gradient too large for Newton-Raphson -- use scaled steepest descent instead.
 Gradient too large for Newton-Raphson -- use scaled steepest descent instead.
     Accept linear search using points  1 and  2.
     Minimum is close to point  2 DX= -4.61D-02 DF= -4.41D-05 DXR=  4.84D-02 DFR=  2.34D-03 which will be used.
 Gradient too large for Newton-Raphson -- use scaled steepest descent instead.
     Minimum is close to point  2 DX=  3.85D-02 DF= -1.42D-05 DXR=  3.38D-02 DFR=  1.15D-03 which will be used.
 Gradient too large for Newton-Raphson -- use scaled steepest descent instead.
 Gradient too large for Newton-Raphson -- use scaled steepest descent instead.
     Minimum is close to point  2 DX=  1.84D-02 DF= -1.95D-06 DXR=  1.64D-02 DFR=  2.70D-04 which will be used.
 Gradient too large for Newton-Raphson -- use scaled steepest descent instead.
     Minimum is close to point  2 DX=  8.71D-02 DF= -3.19D-05 DXR=  7.34D-02 DFR=  5.41D-03 which will be used.
 Gradient too large for Newton-Raphson -- use scaled steepest descent instead.
     Minimum is close to point  2 DX=  1.19D-01 DF= -4.22D-05 DXR=  9.02D-02 DFR=  8.19D-03 which will be used.
 Gradient too large for Newton-Raphson -- use scaled steepest descent instead.
     Accept linear search using points  1 and  2.
     Minimum is close to point  2 DX= -5.87D-02 DF= -1.46D-05 DXR=  4.73D-02 DFR=  3.36D-03 which will be used.
 Gradient too large for Newton-Raphson -- use scaled steepest descent instead.
     Accept linear search using points  1 and  2.
 Gradient too large for Newton-Raphson -- use scaled steepest descent instead.
     Accept linear search using points  1 and  2.
     Minimum is close to point  2 DX= -4.75D-02 DF= -7.67D-06 DXR=  4.12D-02 DFR=  2.29D-03 which will be used.
 Gradient too large for Newton-Raphson -- use scaled steepest descent instead.
     Accept linear search using points  1 and  2.
     Minimum is close to point  2 DX= -2.80D-02 DF= -2.46D-06 DXR=  2.61D-02 DFR=  8.10D-04 which will be used.
 Gradient too large for Newton-Raphson -- use scaled steepest descent instead.
     Minimum is close to point  2 DX=  7.83D-02 DF= -1.18D-05 DXR=  6.65D-02 DFR=  4.44D-03 which will be used.
 Gradient too large for Newton-Raphson -- use scaled steepest descent instead.
 Gradient too large for Newton-Raphson -- use scaled steepest descent instead.
     Accept linear search using points  1 and  2.
 Gradient too large for Newton-Raphson -- use scaled steepest descent instead.
     Accept linear search using points  1 and  2.
     Minimum is close to point  2 DX= -5.23D-02 DF= -5.46D-06 DXR=  4.55D-02 DFR=  2.79D-03 which will be used.
 Gradient too large for Newton-Raphson -- use scaled steepest descent instead.
     Accept linear search using points  1 and  2.
     Minimum is close to point  2 DX= -2.93D-02 DF= -1.59D-06 DXR=  2.74D-02 DFR=  8.86D-04 which will be used.
 Gradient too large for Newton-Raphson -- use scaled steepest descent instead.
     Minimum is close to point  2 DX=  1.00D-01 DF= -1.13D-05 DXR=  8.34D-02 DFR=  7.00D-03 which will be used.
 Gradient too large for Newton-Raphson -- use scaled steepest descent instead.
 Gradient too large for Newton-Raphson -- use scaled steepest descent instead.
     Accept linear search using points  1 and  2.
 Gradient too large for Newton-Raphson -- use scaled steepest descent instead.
     Accept linear search using points  1 and  2.
     Minimum is close to point  2 DX= -4.52D-02 DF= -2.54D-06 DXR=  3.92D-02 DFR=  2.07D-03 which will be used.
 Gradient too large for Newton-Raphson -- use scaled steepest descent instead.
     Accept linear search using points  1 and  2.
     Minimum is close to point  2 DX= -1.44D-02 DF= -2.40D-07 DXR=  1.33D-02 DFR=  2.10D-04 which will be used.
 Gradient too large for Newton-Raphson -- use scaled steepest descent instead.
 Gradient too large for Newton-Raphson -- use scaled steepest descent instead.
     Accept linear search using points  1 and  2.
     Minimum is close to point  2 DX= -5.37D-02 DF= -2.78D-06 DXR=  4.68D-02 DFR=  2.95D-03 which will be used.
 Gradient too large for Newton-Raphson -- use scaled steepest descent instead.
     Accept linear search using points  1 and  2.
     Minimum is close to point  2 DX= -8.84D-02 DF= -7.12D-06 DXR=  7.95D-02 DFR=  8.36D-03 which will be used.
 Gradient too large for Newton-Raphson -- use scaled steepest descent instead.
     Accept linear search using points  1 and  2.
     Minimum is close to point  2 DX= -5.79D-02 DF= -2.89D-06 DXR=  5.56D-02 DFR=  3.64D-03 which will be used.
 Gradient too large for Newton-Raphson -- use scaled steepest descent instead.
     Minimum is close to point  2 DX=  6.03D-02 DF= -1.90D-06 DXR=  5.20D-02 DFR=  2.71D-03 which will be used.
 Gradient too large for Newton-Raphson -- use scaled steepest descent instead.
 Gradient too large for Newton-Raphson -- use scaled steepest descent instead.
     Accept linear search using points  1 and  2.
     Minimum is close to point  2 DX= -1.04D-01 DF= -6.76D-06 DXR=  9.52D-02 DFR=  1.19D-02 which will be used.
 Gradient too large for Newton-Raphson -- use scaled steepest descent instead.
     Accept linear search using points  1 and  2.
 Gradient too large for Newton-Raphson -- use scaled steepest descent instead.
 Gradient too large for Newton-Raphson -- use scaled steepest descent instead.
     Minimum is close to point  2 DX=  1.42D-02 DF= -6.69D-08 DXR=  1.28D-02 DFR=  1.63D-04 which will be used.
 Gradient too large for Newton-Raphson -- use scaled steepest descent instead.
     Minimum is close to point  2 DX=  7.00D-02 DF= -1.11D-06 DXR=  5.51D-02 DFR=  3.05D-03 which will be used.
 Gradient too large for Newton-Raphson -- use scaled steepest descent instead.
     Accept linear search using points  1 and  2.
     Minimum is close to point  2 DX= -4.48D-05 DF= -6.20D-13 DXR=  3.73D-05 DFR=  1.93D-09 which will be used.
 Gradient too large for Newton-Raphson -- use scaled steepest descent instead.
     Accept linear search using points  1 and  2.
     Minimum is close to point  2 DX= -3.87D-02 DF= -4.21D-07 DXR=  3.33D-02 DFR=  1.50D-03 which will be used.
 Gradient too large for Newton-Raphson -- use scaled steepest descent instead.
     Accept linear search using points  1 and  2.
     Minimum is close to point  2 DX= -7.92D-02 DF= -1.64D-06 DXR=  7.07D-02 DFR=  6.65D-03 which will be used.
 Gradient too large for Newton-Raphson -- use scaled steepest descent instead.
     Accept linear search using points  1 and  2.
     Minimum is close to point  2 DX= -5.40D-02 DF= -6.88D-07 DXR=  5.16D-02 DFR=  3.13D-03 which will be used.
 LinEq1:  Iter=  0 NonCon=     1 RMS=2.30D-04 Max=9.02D-03 NDo=     1
 AX will form     1 AO Fock derivatives at one time.
 LinEq1:  Iter=  1 NonCon=     1 RMS=1.77D-04 Max=4.08D-03 NDo=     1
 LinEq1:  Iter=  2 NonCon=     1 RMS=2.59D-05 Max=3.30D-04 NDo=     1
 LinEq1:  Iter=  3 NonCon=     1 RMS=7.41D-06 Max=1.46D-04 NDo=     1
 LinEq1:  Iter=  4 NonCon=     1 RMS=3.71D-06 Max=5.26D-05 NDo=     1
 LinEq1:  Iter=  5 NonCon=     1 RMS=1.30D-06 Max=2.97D-05 NDo=     1
 LinEq1:  Iter=  6 NonCon=     1 RMS=4.31D-07 Max=6.91D-06 NDo=     1
 LinEq1:  Iter=  7 NonCon=     1 RMS=1.77D-07 Max=7.25D-06 NDo=     1
 LinEq1:  Iter=  8 NonCon=     1 RMS=7.73D-08 Max=1.76D-06 NDo=     1
 LinEq1:  Iter=  9 NonCon=     1 RMS=3.34D-08 Max=9.08D-07 NDo=     1
 LinEq1:  Iter= 10 NonCon=     1 RMS=1.22D-08 Max=2.55D-07 NDo=     1
 LinEq1:  Iter= 11 NonCon=     0 RMS=4.24D-09 Max=8.12D-08 NDo=     1
 Linear equations converged to 1.039D-08 1.039D-07 after    11 iterations.
     Accept linear search using points  1 and  2.
 LinEq1:  Iter=  0 NonCon=     1 RMS=6.34D-05 Max=9.96D-04 NDo=     1
 LinEq1:  Iter=  1 NonCon=     1 RMS=2.96D-05 Max=6.70D-04 NDo=     1
 LinEq1:  Iter=  2 NonCon=     1 RMS=1.23D-05 Max=1.64D-04 NDo=     1
 LinEq1:  Iter=  3 NonCon=     1 RMS=5.96D-06 Max=1.22D-04 NDo=     1
 LinEq1:  Iter=  4 NonCon=     1 RMS=2.42D-06 Max=4.76D-05 NDo=     1
 LinEq1:  Iter=  5 NonCon=     1 RMS=1.04D-06 Max=2.39D-05 NDo=     1
 LinEq1:  Iter=  6 NonCon=     1 RMS=4.33D-07 Max=6.13D-06 NDo=     1
 LinEq1:  Iter=  7 NonCon=     1 RMS=1.67D-07 Max=3.02D-06 NDo=     1
 LinEq1:  Iter=  8 NonCon=     1 RMS=5.31D-08 Max=7.87D-07 NDo=     1
 LinEq1:  Iter=  9 NonCon=     1 RMS=1.80D-08 Max=5.17D-07 NDo=     1
 LinEq1:  Iter= 10 NonCon=     1 RMS=8.45D-09 Max=2.23D-07 NDo=     1
 LinEq1:  Iter= 11 NonCon=     0 RMS=3.48D-09 Max=8.92D-08 NDo=     1
 Linear equations converged to 1.039D-08 1.039D-07 after    11 iterations.
     Minimum is close to point  2 DX=  2.28D-03 DF= -2.24D-10 DXR=  2.27D-03 DFR=  5.17D-06 which will be used.
 LinEq1:  Iter=  0 NonCon=     1 RMS=1.41D-06 Max=3.15D-05 NDo=     1
 LinEq1:  Iter=  1 NonCon=     1 RMS=7.82D-07 Max=2.74D-05 NDo=     1
 LinEq1:  Iter=  2 NonCon=     1 RMS=3.62D-07 Max=1.21D-05 NDo=     1
 LinEq1:  Iter=  3 NonCon=     1 RMS=1.48D-07 Max=2.63D-06 NDo=     1
 LinEq1:  Iter=  4 NonCon=     1 RMS=5.72D-08 Max=8.26D-07 NDo=     1
 LinEq1:  Iter=  5 NonCon=     1 RMS=3.12D-08 Max=7.42D-07 NDo=     1
 LinEq1:  Iter=  6 NonCon=     1 RMS=1.16D-08 Max=1.72D-07 NDo=     1
 LinEq1:  Iter=  7 NonCon=     1 RMS=4.63D-09 Max=1.02D-07 NDo=     1
 LinEq1:  Iter=  8 NonCon=     1 RMS=1.98D-09 Max=5.40D-08 NDo=     1
 LinEq1:  Iter=  9 NonCon=     1 RMS=7.41D-10 Max=1.09D-08 NDo=     1
 LinEq1:  Iter= 10 NonCon=     0 RMS=2.58D-10 Max=6.55D-09 NDo=     1
 Linear equations converged to 7.581D-10 7.581D-09 after    10 iterations.
 LinEq1:  Iter=  0 NonCon=     1 RMS=3.01D-07 Max=7.66D-06 NDo=     1
 LinEq1:  Iter=  1 NonCon=     1 RMS=1.47D-07 Max=3.07D-06 NDo=     1
 LinEq1:  Iter=  2 NonCon=     1 RMS=5.15D-08 Max=1.17D-06 NDo=     1
 LinEq1:  Iter=  3 NonCon=     1 RMS=2.22D-08 Max=3.59D-07 NDo=     1
 LinEq1:  Iter=  4 NonCon=     1 RMS=9.73D-09 Max=1.51D-07 NDo=     1
 LinEq1:  Iter=  5 NonCon=     1 RMS=3.99D-09 Max=7.89D-08 NDo=     1
 LinEq1:  Iter=  6 NonCon=     1 RMS=2.30D-09 Max=5.24D-08 NDo=     1
 LinEq1:  Iter=  7 NonCon=     1 RMS=9.17D-10 Max=2.07D-08 NDo=     1
 LinEq1:  Iter=  8 NonCon=     1 RMS=3.91D-10 Max=1.35D-08 NDo=     1
 LinEq1:  Iter=  9 NonCon=     1 RMS=1.65D-10 Max=5.51D-09 NDo=     1
 LinEq1:  Iter= 10 NonCon=     0 RMS=7.66D-11 Max=1.42D-09 NDo=     1
 Linear equations converged to 1.811D-10 1.811D-09 after    10 iterations.
 LinEq1:  Iter=  0 NonCon=     1 RMS=4.22D-08 Max=7.82D-07 NDo=     1
 LinEq1:  Iter=  1 NonCon=     1 RMS=2.68D-08 Max=1.08D-06 NDo=     1
 LinEq1:  Iter=  2 NonCon=     1 RMS=1.00D-08 Max=3.08D-07 NDo=     1
 LinEq1:  Iter=  3 NonCon=     1 RMS=3.88D-09 Max=5.56D-08 NDo=     1
 LinEq1:  Iter=  4 NonCon=     1 RMS=1.44D-09 Max=3.16D-08 NDo=     1
 LinEq1:  Iter=  5 NonCon=     1 RMS=7.32D-10 Max=1.70D-08 NDo=     1
 LinEq1:  Iter=  6 NonCon=     1 RMS=3.39D-10 Max=7.51D-09 NDo=     1
 LinEq1:  Iter=  7 NonCon=     1 RMS=1.57D-10 Max=2.42D-09 NDo=     1
 LinEq1:  Iter=  8 NonCon=     1 RMS=6.88D-11 Max=1.36D-09 NDo=     1
 LinEq1:  Iter=  9 NonCon=     1 RMS=2.53D-11 Max=5.38D-10 NDo=     1
 LinEq1:  Iter= 10 NonCon=     1 RMS=1.20D-11 Max=2.76D-10 NDo=     1
 LinEq1:  Iter= 11 NonCon=     0 RMS=2.56D-12 Max=4.07D-11 NDo=     1
 Linear equations converged to 2.308D-11 2.308D-10 after    11 iterations.
 SCF Done:  E(RPM6) =   2.31896519595     a.u. after   45 cycles
            Convg  =    0.6365D-06                   135 Fock formations.
              S**2 =  0.0000                  -V/T =  1.0220

 **********************************************************************

            Population analysis using the SCF density.

 **********************************************************************

 Orbital symmetries:
       Occupied  (A) (A) (A) (A) (A) (A) (A) (A) (A) (A) (A) (A)
                 (A) (A) (A) (A) (A) (A) (A) (A) (A) (A) (A) (A)
                 (A) (A) (A) (A) (A) (A) (A) (A) (A) (A) (A) (A)
                 (A) (A) (A) (A) (A) (A) (A) (A) (A) (A) (A) (A)
                 (A) (A) (A) (A) (A) (A) (A) (A) (A) (A) (A) (A)
                 (A) (A) (A) (A) (A) (A) (A) (A) (A) (A) (A) (A)
                 (A)
       Virtual   (A) (A) (A) (A) (A) (A) (A) (A) (A) (A) (A) (A)
                 (A) (A) (A) (A) (A) (A) (A) (A) (A) (A) (A) (A)
                 (A) (A) (A) (A) (A) (A) (A) (A) (A) (A) (A) (A)
                 (A) (A) (A) (A) (A) (A) (A) (A) (A) (A) (A) (A)
                 (A) (A) (A) (A) (A) (A) (A) (A) (A) (A) (A) (A)
                 (A) (A) (A) (A) (A) (A) (A) (A) (A) (A) (A) (A)
                 (A) (A)
 The electronic state is 1-A.
 Alpha  occ. eigenvalues --   -1.59343  -1.22620  -1.15944  -1.12469  -1.10890
 Alpha  occ. eigenvalues --   -1.08214  -1.06991  -1.05248  -1.04031  -1.01341
 Alpha  occ. eigenvalues --   -0.99043  -0.96650  -0.95273  -0.94687  -0.90599
 Alpha  occ. eigenvalues --   -0.89709  -0.85820  -0.82699  -0.82227  -0.80713
 Alpha  occ. eigenvalues --   -0.79926  -0.79237  -0.75163  -0.74891  -0.74023
 Alpha  occ. eigenvalues --   -0.70267  -0.67967  -0.65328  -0.64465  -0.61836
 Alpha  occ. eigenvalues --   -0.61500  -0.60962  -0.59992  -0.59364  -0.58193
 Alpha  occ. eigenvalues --   -0.57873  -0.57249  -0.56874  -0.55166  -0.54780
 Alpha  occ. eigenvalues --   -0.53365  -0.52356  -0.52206  -0.51891  -0.51182
 Alpha  occ. eigenvalues --   -0.50812  -0.50253  -0.49990  -0.49615  -0.48897
 Alpha  occ. eigenvalues --   -0.48446  -0.47685  -0.47179  -0.46434  -0.46066
 Alpha  occ. eigenvalues --   -0.45198  -0.44611  -0.43572  -0.43249  -0.42817
 Alpha  occ. eigenvalues --   -0.41424  -0.40497  -0.39529  -0.39146  -0.38687
 Alpha  occ. eigenvalues --   -0.36100  -0.34766  -0.34151  -0.33414  -0.32176
 Alpha  occ. eigenvalues --   -0.31023  -0.27675  -0.26792
 Alpha virt. eigenvalues --   -0.07545  -0.06836  -0.02738  -0.02024  -0.01037
 Alpha virt. eigenvalues --   -0.00246   0.01435   0.01867   0.02679   0.02806
 Alpha virt. eigenvalues --    0.03397   0.04473   0.05595   0.06497   0.06884
 Alpha virt. eigenvalues --    0.07704   0.08699   0.09153   0.09240   0.10456
 Alpha virt. eigenvalues --    0.10870   0.11214   0.11312   0.12011   0.12356
 Alpha virt. eigenvalues --    0.13375   0.13823   0.14024   0.14491   0.14812
 Alpha virt. eigenvalues --    0.14932   0.15216   0.15385   0.15643   0.15828
 Alpha virt. eigenvalues --    0.16009   0.16306   0.16385   0.16612   0.16979
 Alpha virt. eigenvalues --    0.17051   0.17389   0.17493   0.17674   0.17703
 Alpha virt. eigenvalues --    0.18133   0.18390   0.18530   0.18752   0.18843
 Alpha virt. eigenvalues --    0.19004   0.19290   0.19422   0.19634   0.19795
 Alpha virt. eigenvalues --    0.20282   0.20349   0.20375   0.20680   0.20814
 Alpha virt. eigenvalues --    0.21049   0.21163   0.21414   0.21590   0.21734
 Alpha virt. eigenvalues --    0.22067   0.22325   0.22764   0.22891   0.23066
 Alpha virt. eigenvalues --    0.23434   0.23662   0.23709   0.24041
          Condensed to atoms (all electrons):
               1          2          3          4          5          6
     1  C    4.190739   0.000000   0.000000   0.000000   0.000000   0.000000
     2  C    0.000000   4.138704   0.000000   0.000000   0.000000   0.000000
     3  C    0.000000   0.000000   3.812434   0.000000   0.000000   0.000000
     4  C    0.000000   0.000000   0.000000   3.835540   0.000000   0.000000
     5  C    0.000000   0.000000   0.000000   0.000000   4.016606   0.000000
     6  C    0.000000   0.000000   0.000000   0.000000   0.000000   4.312274
     7  C    0.000000   0.000000   0.000000   0.000000   0.000000   0.000000
     8  C    0.000000   0.000000   0.000000   0.000000   0.000000   0.000000
     9  C    0.000000   0.000000   0.000000   0.000000   0.000000   0.000000
    10  C    0.000000   0.000000   0.000000   0.000000   0.000000   0.000000
    11  C    0.000000   0.000000   0.000000   0.000000   0.000000   0.000000
    12  C    0.000000   0.000000   0.000000   0.000000   0.000000   0.000000
    13  C    0.000000   0.000000   0.000000   0.000000   0.000000   0.000000
    14  C    0.000000   0.000000   0.000000   0.000000   0.000000   0.000000
    15  C    0.000000   0.000000   0.000000   0.000000   0.000000   0.000000
    16  C    0.000000   0.000000   0.000000   0.000000   0.000000   0.000000
    17  C    0.000000   0.000000   0.000000   0.000000   0.000000   0.000000
    18  C    0.000000   0.000000   0.000000   0.000000   0.000000   0.000000
    19  C    0.000000   0.000000   0.000000   0.000000   0.000000   0.000000
    20  C    0.000000   0.000000   0.000000   0.000000   0.000000   0.000000
    21  C    0.000000   0.000000   0.000000   0.000000   0.000000   0.000000
    22  C    0.000000   0.000000   0.000000   0.000000   0.000000   0.000000
    23  C    0.000000   0.000000   0.000000   0.000000   0.000000   0.000000
    24  C    0.000000   0.000000   0.000000   0.000000   0.000000   0.000000
    25  C    0.000000   0.000000   0.000000   0.000000   0.000000   0.000000
    26  C    0.000000   0.000000   0.000000   0.000000   0.000000   0.000000
    27  C    0.000000   0.000000   0.000000   0.000000   0.000000   0.000000
    28  C    0.000000   0.000000   0.000000   0.000000   0.000000   0.000000
    29  C    0.000000   0.000000   0.000000   0.000000   0.000000   0.000000
    30  H    0.000000   0.000000   0.000000   0.000000   0.000000   0.000000
    31  H    0.000000   0.000000   0.000000   0.000000   0.000000   0.000000
    32  H    0.000000   0.000000   0.000000   0.000000   0.000000   0.000000
    33  H    0.000000   0.000000   0.000000   0.000000   0.000000   0.000000
    34  H    0.000000   0.000000   0.000000   0.000000   0.000000   0.000000
    35  H    0.000000   0.000000   0.000000   0.000000   0.000000   0.000000
    36  H    0.000000   0.000000   0.000000   0.000000   0.000000   0.000000
    37  H    0.000000   0.000000   0.000000   0.000000   0.000000   0.000000
    38  H    0.000000   0.000000   0.000000   0.000000   0.000000   0.000000
    39  H    0.000000   0.000000   0.000000   0.000000   0.000000   0.000000
    40  H    0.000000   0.000000   0.000000   0.000000   0.000000   0.000000
    41  H    0.000000   0.000000   0.000000   0.000000   0.000000   0.000000
    42  H    0.000000   0.000000   0.000000   0.000000   0.000000   0.000000
    43  H    0.000000   0.000000   0.000000   0.000000   0.000000   0.000000
    44  Cr   0.000000   0.000000   0.000000   0.000000   0.000000   0.000000
    45  C    0.000000   0.000000   0.000000   0.000000   0.000000   0.000000
    46  O    0.000000   0.000000   0.000000   0.000000   0.000000   0.000000
               7          8          9         10         11         12
     1  C    0.000000   0.000000   0.000000   0.000000   0.000000   0.000000
     2  C    0.000000   0.000000   0.000000   0.000000   0.000000   0.000000
     3  C    0.000000   0.000000   0.000000   0.000000   0.000000   0.000000
     4  C    0.000000   0.000000   0.000000   0.000000   0.000000   0.000000
     5  C    0.000000   0.000000   0.000000   0.000000   0.000000   0.000000
     6  C    0.000000   0.000000   0.000000   0.000000   0.000000   0.000000
     7  C    4.299761   0.000000   0.000000   0.000000   0.000000   0.000000
     8  C    0.000000   4.409340   0.000000   0.000000   0.000000   0.000000
     9  C    0.000000   0.000000   4.302970   0.000000   0.000000   0.000000
    10  C    0.000000   0.000000   0.000000   3.834683   0.000000   0.000000
    11  C    0.000000   0.000000   0.000000   0.000000   3.712035   0.000000
    12  C    0.000000   0.000000   0.000000   0.000000   0.000000   4.000056
    13  C    0.000000   0.000000   0.000000   0.000000   0.000000   0.000000
    14  C    0.000000   0.000000   0.000000   0.000000   0.000000   0.000000
    15  C    0.000000   0.000000   0.000000   0.000000   0.000000   0.000000
    16  C    0.000000   0.000000   0.000000   0.000000   0.000000   0.000000
    17  C    0.000000   0.000000   0.000000   0.000000   0.000000   0.000000
    18  C    0.000000   0.000000   0.000000   0.000000   0.000000   0.000000
    19  C    0.000000   0.000000   0.000000   0.000000   0.000000   0.000000
    20  C    0.000000   0.000000   0.000000   0.000000   0.000000   0.000000
    21  C    0.000000   0.000000   0.000000   0.000000   0.000000   0.000000
    22  C    0.000000   0.000000   0.000000   0.000000   0.000000   0.000000
    23  C    0.000000   0.000000   0.000000   0.000000   0.000000   0.000000
    24  C    0.000000   0.000000   0.000000   0.000000   0.000000   0.000000
    25  C    0.000000   0.000000   0.000000   0.000000   0.000000   0.000000
    26  C    0.000000   0.000000   0.000000   0.000000   0.000000   0.000000
    27  C    0.000000   0.000000   0.000000   0.000000   0.000000   0.000000
    28  C    0.000000   0.000000   0.000000   0.000000   0.000000   0.000000
    29  C    0.000000   0.000000   0.000000   0.000000   0.000000   0.000000
    30  H    0.000000   0.000000   0.000000   0.000000   0.000000   0.000000
    31  H    0.000000   0.000000   0.000000   0.000000   0.000000   0.000000
    32  H    0.000000   0.000000   0.000000   0.000000   0.000000   0.000000
    33  H    0.000000   0.000000   0.000000   0.000000   0.000000   0.000000
    34  H    0.000000   0.000000   0.000000   0.000000   0.000000   0.000000
    35  H    0.000000   0.000000   0.000000   0.000000   0.000000   0.000000
[...]
 .00005394,-0.00004874,0.00004063,0.00071530,-0.00011860,-0.00021484,-0
 .00001255,-0.00002637,-0.00004412,0.00001531,-0.00002488,0.00000561,-0
 .02772955,0.01224826,0.00656433,-0.00012339,-0.00018979,-0.00003048,-0
 .00001204,-0.00003671,0.00001482,0.00034222,0.00050748,-0.00005504,0.0
 0003008,0.00004027,0.00001703,0.00001871,0.00002727,-0.00000552,-0.000
 01029,0.00002260,-0.00001188,-0.00001616,0.00002874,-0.00001122,-0.000
 01704,0.00002458,-0.00000923,-0.00003651,-0.00000341,-0.00000762,-0.00
 001114,-0.00002224,-0.00000112,-0.00001202,-0.00001820,-0.00000285,-0.
 00001225,-0.00002886,-0.00000865,0.00001312,-0.00002551,-0.00000972,0.
 00004827,-0.00010325,-0.00000292,0.00051857,-0.00047907,-0.00039242,0.
 26526493,0.00000987,-0.00001747,-0.00000707,-0.00004009,-0.00000040,-0
 .00000132,0.00007662,-0.00014159,-0.00002536,-0.00105702,-0.00215574,-
 0.00120151,-0.01583079,-0.03534749,0.00333061,-0.00060083,-0.00013428,
 0.00014114,-0.03068082,-0.01090060,0.00255887,0.00001602,-0.00001129,0
 .00000067,0.00001074,-0.00000272,0.00000223,-0.00001554,0.00001026,0.0
 0000311,-0.00000480,0.00001239,0.00000406,0.00000167,0.00001351,-0.000
 00112,-0.00000894,0.00000370,-0.00000059,-0.00001252,0.00000755,-0.000
 00972,-0.00001127,-0.00000818,-0.00000172,-0.00008732,-0.00004030,0.00
 012335,-0.00002393,-0.00000032,-0.00000604,-0.00000496,-0.00000794,0.0
 0000173,0.00064896,-0.00231968,-0.00059435,-0.00005240,-0.00009180,0.0
 0006486,-0.00000071,-0.00001562,0.00000705,0.00001536,0.00009560,0.000
 03069,0.00001378,-0.00000404,0.00000624,0.00013912,0.00007990,-0.00009
 939,0.00003286,0.00002237,-0.00000447,0.00001168,-0.00000222,0.0000013
 8,0.02651870,-0.00410928,-0.00558980,0.00059429,-0.00005517,-0.0000522
 9,0.00003440,-0.00000997,-0.00000019,0.00102270,-0.00024010,-0.0000972
 7,0.00002581,0.00005710,-0.00002994,0.00000645,0.00000834,-0.00000319,
 0.00000072,0.00000549,-0.00000172,-0.00000221,0.00000399,-0.00000143,-
 0.00000135,0.00000191,-0.00000097,-0.00000179,0.,-0.00000036,-0.000000
 65,-0.00000130,-0.00000044,0.00000024,0.00000019,-0.00000065,-0.000000
 99,0.00000266,0.00000115,-0.00000260,0.00000477,0.00000109,-0.00002248
 ,0.00004630,0.00000142,-0.00072677,-0.00045795,0.00029234,0.01998571,0
 .05572688,-0.00003210,0.00000348,0.00001240,0.00000777,0.00000782,-0.0
 0000623,-0.00026797,0.00021649,-0.00021955,0.00125432,-0.00192992,0.00
 603514,0.02427044,0.00311298,-0.04575408,0.00018234,0.00021724,-0.0001
 6240,0.00011109,0.00022288,0.00573993,-0.00001721,0.00001734,-0.000005
 20,0.00002043,-0.00000557,0.00000179,0.00000242,-0.00005062,-0.0000265
 5,-0.00003936,-0.00003782,-0.00002484,-0.00001534,0.00001023,-0.000006
 58,0.00012636,-0.00001595,0.00000204,0.00004151,-0.00000948,0.00005361
 ,0.00000056,-0.00000062,-0.00000215,0.00019581,0.00025799,-0.00072394,
 -0.00007319,-0.00003953,-0.00000392,-0.00001784,-0.00001689,-0.0000019
 7,0.00118153,-0.00037080,0.00398033,-0.00007529,-0.00008459,-0.0000652
 4,-0.00001196,-0.00000053,0.00000030,-0.00009089,-0.00034448,-0.000095
 96,-0.00001323,0.00001951,-0.00001897,-0.00023386,0.00005637,0.0003767
 7,0.00012002,0.00002054,-0.00000138,0.00003192,0.00001363,-0.00000204,
 0.00823556,-0.00276036,0.00435906,0.00018385,-0.00013797,-0.00044777,0
 .00001092,0.00002735,0.00000722,-0.00014935,-0.00001129,-0.00081797,-0
 .00001055,0.00002334,0.00007493,-0.00000740,-0.00000086,0.00000907,0.0
 0000077,0.00000138,-0.00000061,-0.00000201,0.00000268,0.00000229,-0.00
 000124,-0.00000136,0.00000203,0.00000453,0.00000056,0.00000257,-0.0000
 0142,-0.00000042,0.00000099,0.00000059,-0.00000094,0.00000428,0.000001
 16,0.00000333,0.00000387,-0.00000287,0.00000193,0.00000859,-0.00000411
 ,-0.00000617,0.00012050,-0.00055462,0.00029426,-0.00155181,-0.03430853
 ,0.00117901,0.02903457,-0.00640864,0.00241914,-0.00182435,0.00584867,0
 .00232573,0.00042682,-0.00841126,-0.00159101,-0.00042348,-0.00442069,-
 0.00480289,-0.00058987,0.00055020,-0.00427849,-0.00055138,0.00683036,0
 .00448678,0.00039429,0.00362690,0.00260550,-0.00024823,-0.03893738,0.0
 2406674,-0.00194666,-0.02492485,0.01300527,0.00159588,0.05356457,0.005
 95057,0.01161409,0.02710149,-0.05829829,-0.00188904,0.00115868,-0.0261
 5139,0.00325805,-0.08433561,0.04559618,0.04866104,-0.08890323,0.039248
 33,-0.08090596,0.02253147,0.01596512,0.00424592,-0.00645852,-0.0029105
 0,-0.00093650,-0.02812578,-0.03465224,0.04227830,-0.00074920,-0.001361
 31,-0.00152751,0.00365607,0.00221698,-0.00063875,-0.00201838,-0.002992
 34,-0.00062417,-0.00063571,0.00087731,-0.00040649,-0.00983470,0.004388
 32,0.00123174,-0.02925438,0.02547010,-0.02242453,-0.00543531,-0.000616
 76,0.00151336,-0.01473021,-0.01947286,0.00903025,0.00530924,0.00288587
 ,-0.00658483,-0.00380488,0.00171499,0.00118890,-0.00071936,0.00044894,
 0.00026750,0.00004007,-0.00002781,0.00024548,-0.00006261,0.00005161,-0
 .00020658,-0.00007616,-0.00017952,0.00028348,0.00001205,0.00009203,-0.
 00008951,0.00010099,0.00011407,0.00001944,-0.00029051,0.00056114,0.000
 82195,-0.00010239,0.00036892,0.00015073,-0.00024671,-0.00006703,-0.000
 75784,0.00015238,-0.00071307,-0.00049858,0.00004108,-0.00031391,0.0011
 8570,0.00058394,-0.00049654,0.00018233,-0.00010319,0.00034825,0.000254
 62,0.00014824,-0.00028088,0.00016827,-0.00000091,-0.00005308,0.0000331
 3,-0.00006518,0.00000450,-0.00001738,0.25820539,0.00257747,-0.00395934
 ,0.00002399,-0.00330769,-0.00104269,-0.00030573,-0.00007447,0.00487331
 ,0.00121595,-0.00378595,0.00176057,0.00169829,0.00140323,-0.00465564,-
 0.00067863,0.00080169,0.00089759,0.00045621,0.00312746,0.00310847,-0.0
 0052572,0.02068544,-0.01620112,0.00167681,0.00697858,-0.00397130,0.002
 01377,-0.03056604,-0.02048044,-0.01835851,-0.01305085,0.01560163,-0.00
 045794,0.00095295,0.00899354,-0.00094694,0.07316396,-0.12704201,-0.076
 64664,0.01523217,-0.01678893,-0.00101817,-0.00679430,-0.00594900,0.000
 09247,-0.00080749,-0.00899083,0.00145732,-0.00987155,-0.09759005,0.069
 84371,0.00171052,0.00223509,0.00004912,0.00474983,-0.00456949,0.000634
 62,0.00853251,0.00522666,-0.00308523,0.00088058,-0.00041445,0.00002610
 ,0.03112841,0.00536517,-0.00864442,0.01600321,-0.00699324,0.01061100,0
 .00461755,-0.00252376,-0.00182624,-0.04847781,-0.01839532,-0.00047058,
 -0.00066886,-0.00975572,0.00514513,-0.00503846,0.00177146,0.00089104,-
 0.00691345,0.00359280,-0.00034680,0.00028455,-0.00019491,0.00072651,0.
 00020974,0.00029326,-0.00019173,0.00005572,0.00027045,-0.00039303,-0.0
 0000102,-0.00002515,0.00005698,-0.00007691,-0.00007348,0.00012908,0.00
 008918,-0.00034991,0.00013417,0.00071969,-0.00025034,-0.00011509,-0.00
 007954,-0.00003521,-0.00012120,0.00016385,0.00012345,0.00004751,-0.000
 00151,0.00051174,-0.00003756,-0.00005322,-0.00016414,-0.00021704,0.000
 07428,-0.00016707,-0.00013740,0.00019383,-0.00034649,-0.00006556,0.000
 21140,-0.00019412,-0.00004992,-0.00018941,-0.00000420,0.00008242,-0.03
 421905,0.31809380,0.00188163,-0.00207282,0.00169396,-0.00212948,-0.000
 47459,-0.00020821,0.00132854,0.00054929,0.00138435,0.00128980,0.001349
 69,0.00040898,0.00052667,0.00093946,0.00003382,-0.00170318,-0.00012815
 ,-0.00027447,-0.00128056,-0.00008990,0.00005731,0.00956085,-0.00894558
 ,-0.00321733,0.00932581,-0.00282779,0.00456054,-0.01873768,-0.01149467
 ,-0.00487686,-0.01564970,-0.00984711,-0.00599420,-0.00080405,0.0088836
 5,-0.00104964,0.06235331,-0.07915950,-0.10886252,-0.08674214,0.0206401
 6,-0.10827129,-0.00619922,-0.00481197,0.00141777,0.00301112,-0.0024821
 7,-0.00146890,0.01785500,0.05490387,-0.07475938,-0.00101968,-0.0025385
 0,-0.00037410,-0.00078856,-0.00156570,0.00064971,-0.00093024,0.0032913
 2,0.00219021,-0.00036048,-0.00009739,0.00036211,0.01134056,0.00180005,
 0.00571041,-0.00044440,0.00580094,0.00384621,0.00143445,-0.00021508,-0
 .00059480,0.00749665,0.00551284,0.00215942,0.00087161,0.00641709,0.000
 66587,0.00042929,-0.00061196,-0.00042322,-0.00029426,-0.00102822,0.000
 23754,-0.00003806,-0.00024484,0.00019555,0.00019518,0.00018335,0.00002
 970,0.00001470,0.00030213,-0.00051953,0.00005300,-0.00007097,-0.000055
 78,0.00001206,0.00007285,-0.00006400,-0.00018548,0.00002245,-0.0003052
 1,0.00009206,0.00007480,-0.00056233,0.00015369,-0.00009815,-0.00033391
 ,0.00011734,-0.00033246,-0.00008615,-0.00000346,0.00007949,-0.00006318
 ,-0.00015356,-0.00000267,-0.00010873,0.00005880,-0.00006230,-0.0002440
 3,0.00003939,-0.00021619,-0.00005668,0.00016578,-0.00016854,-0.0000348
 9,-0.00008759,-0.00000749,0.00006198,0.02105170,0.03636540,0.32976743,
 0.00072955,-0.00023171,0.00012606,-0.00095519,-0.00060425,-0.00057720,
 -0.00344589,0.00229791,0.00288246,-0.00313482,-0.00555617,-0.00037806,
 -0.00066143,-0.00082049,-0.00000598,0.00312583,0.00076215,-0.00038902,
 0.00136236,0.00031571,-0.00013213,0.00219041,-0.00026757,-0.00022201,0
 .00157489,0.00009423,-0.00016419,-0.00450938,-0.00098765,-0.00195232,-
 0.00217377,0.00059677,-0.00048719,-0.00026792,0.00087699,-0.00007199,-
 0.00200952,0.00182656,0.00061763,-0.00158879,0.00149822,-0.00613451,-0
 .00056236,-0.00137310,0.00008462,-0.10970683,0.06900826,0.04167727,-0.
 02670883,0.02602400,-0.02654946,0.00094784,0.00099322,-0.00003019,-0.0
 0046866,0.00077953,0.00089984,0.00384366,-0.01239045,0.00946816,0.0002
 8578,-0.00023509,0.00004106,0.02001603,0.00326779,-0.00100204,0.000255
 99,-0.00075063,0.00128749,-0.03398505,0.01340682,0.02478605,-0.0509560
 9,0.05685987,-0.04306204,-0.00560010,-0.00029280,-0.00164613,-0.000277
 12,0.00171561,-0.00009381,-0.00038298,-0.00073151,0.00029464,-0.001428
 68,-0.00118898,0.00029783,-0.00010055,-0.00039680,0.00003184,0.0000863
 7,0.00004679,0.00007654,0.00016203,-0.00009498,0.00002565,-0.00008431,
 -0.00011568,0.00003158,-0.00013502,-0.00010653,-0.00003196,-0.00006587
 ,0.00020650,-0.00014980,-0.00003289,-0.00001150,0.00004879,-0.00001115
 ,-0.00016207,-0.00003064,-0.00034916,-0.00053504,-0.00021777,-0.000107
 91,0.00017689,0.00004737,-0.00007161,-0.00030289,0.00000969,-0.0004281
 3,0.00078587,0.00019917,-0.00024776,0.00016980,0.00016436,0.00006572,0
 .00001520,-0.00000737,-0.05445495,-0.02399511,-0.00351812,0.40265236,0
 .00105866,-0.00069030,-0.00022610,-0.00027436,-0.00037657,0.00019229,0
 .00007248,-0.00184242,-0.00353929,0.00059776,0.00287224,0.00011015,0.0
 0041123,0.00193873,0.00017036,-0.00256714,-0.00097839,0.00028847,-0.00
 226131,-0.00047956,0.00026715,0.00527753,-0.00430811,0.00042918,-0.001
 08087,-0.00072715,-0.00029519,-0.00500599,0.00109722,0.00109452,-0.000
 15999,0.00844881,0.00362415,0.00141500,0.00020296,0.00023023,-0.003467
 34,-0.00707541,0.00413740,-0.00509205,-0.00155172,-0.01235391,-0.00120
 829,0.00011940,0.00002702,0.08288747,-0.14437276,-0.06406787,0.0527637
 2,-0.00372582,0.01624737,0.00263336,0.00415274,-0.00054597,-0.00346015
 ,0.00021712,0.00124449,-0.00816169,-0.02166006,0.02178419,0.00012500,0
 .00043442,-0.00032480,-0.00100603,-0.04419435,-0.03254245,0.00135707,-
 0.00395361,0.00316947,0.01253018,0.00551636,-0.00671537,0.01084950,-0.
 19717307,0.09720307,-0.00603084,0.00060612,0.00475952,0.00173612,-0.00
 201213,-0.00053471,0.00142276,-0.00110417,-0.00031075,-0.00040158,0.00
 018774,0.00083011,0.00013281,0.00033644,0.00009832,0.00021341,0.000050
 67,-0.00039593,0.00008522,-0.00010308,0.00003115,0.00004913,-0.0000791
 9,-0.00015993,0.00025266,-0.00082210,-0.00025472,0.00040704,-0.0003731
 6,-0.00009380,-0.00012778,-0.00001653,-0.00007285,0.00020919,0.0004411
 6,0.00021000,0.00011948,0.00048246,-0.00041434,-0.00005287,-0.00000696
 ,-0.00007221,0.00000121,-0.00010762,-0.00009206,0.00031321,-0.00054848
 ,-0.00005240,0.00007612,-0.00013904,-0.00012097,-0.00002835,-0.0000192
 7,0.00002664,0.00907588,-0.00184629,-0.00012371,-0.12392701,0.45989091
 ,0.00001332,0.00027309,-0.00016215,0.00032836,0.00036232,-0.00037776,-
 0.00125202,-0.00416451,0.00411264,0.00202571,0.00030312,0.00335102,0.0
 0011065,-0.00083564,-0.00010651,-0.00053250,0.00127889,0.00023431,0.00
 028364,0.00010565,-0.00043827,-0.00254070,0.00170740,0.00066166,-0.000
 52726,-0.00051964,-0.00070453,0.00357785,0.00135270,0.00120158,0.00036
 636,0.00048866,-0.00102744,0.00038258,-0.00001851,-0.00012024,-0.00327
 156,-0.00910302,-0.00901014,-0.00772262,0.00321571,-0.00322084,-0.0007
 7213,0.00036657,-0.00036792,0.06350842,-0.06843377,-0.09349412,-0.0379
 1528,0.02018833,-0.00881247,-0.00128102,-0.00129483,0.00008210,0.00188
 907,0.00153867,-0.00074849,0.00436270,0.01956775,-0.01024301,0.0001855
 3,-0.00048975,-0.00011904,0.00060452,-0.02980085,-0.00645055,0.0002870
 9,-0.00181525,0.00058310,0.01574932,-0.00782489,-0.00841204,-0.0137914
 8,0.11580665,-0.11658127,0.00026513,0.00227830,0.00461550,-0.00122906,
 -0.00025585,0.00000800,-0.00027764,0.00001882,-0.00133796,0.00087818,0
 .00049943,0.00061417,0.00007444,0.00027888,0.00018986,-0.00001652,0.00
 021307,0.00039569,-0.00007210,0.00029925,0.00003176,-0.00000634,0.0000
 7925,0.00001552,-0.00001423,0.00016360,-0.00046957,-0.00030341,0.00013
 375,0.00006949,-0.00026098,-0.00001072,0.00007209,-0.00019775,-0.00012
 235,-0.00001776,-0.00006366,-0.00027653,-0.00000429,-0.00004169,-0.000
 05981,0.00010085,0.00003461,-0.00018855,0.00006630,0.00017807,-0.00029
 159,-0.00081033,0.00019162,-0.00011035,0.00009247,0.00015704,-0.000001
 65,0.00006156,0.09563007,0.01844050,0.05084866,-0.22743220,-0.07906562
 ,0.59775758,0.00003254,0.00055848,0.00028580,0.00013373,-0.00013977,0.
 00019832,0.00260746,-0.00148971,-0.00126546,0.00116550,0.00252215,0.00
 026516,-0.00048843,0.00161466,0.00025327,-0.00278997,-0.00176974,0.000
 01574,-0.00136644,-0.00092660,0.00015159,0.00063844,0.00004492,0.00082
 907,0.00252673,-0.00212928,-0.00097634,-0.00092598,-0.00028346,-0.0010
 1300,-0.00484319,0.00166155,-0.00221639,-0.00032031,0.00253815,-0.0004
 3748,0.00839384,-0.00310915,-0.00483476,-0.01259918,0.00414657,-0.0019
 5494,-0.00265455,-0.00094392,-0.00093002,-0.01604499,0.01902768,0.0379
 0480,-0.00346796,0.00474663,-0.00267960,-0.00223679,-0.00128616,0.0001
 7427,-0.00118840,-0.00063796,-0.00000340,0.00199190,0.00065837,-0.0014
 8960,-0.00012582,-0.00012703,-0.00005926,-0.01086138,-0.00234918,0.002
 24188,0.00148726,-0.00168550,0.00079061,0.00464764,0.00273665,-0.00187
 999,0.01767392,-0.00876588,0.01549307,0.00219832,-0.00183589,0.0020959
 9,0.00156347,-0.00082261,-0.00027129,0.00011369,0.00017788,-0.00004840
 ,0.00021998,-0.00008537,-0.00015202,-0.00004150,-0.00001142,0.00007201
 ,0.00002364,-0.00004269,0.00008861,-0.00000856,-0.00009358,0.00007707,
 0.00002561,0.00010466,0.00002797,0.00004995,-0.00003294,-0.00007797,-0
 .00021421,-0.00005990,0.00012062,0.00004734,0.00002102,0.00019449,-0.0
 0017911,0.00010662,0.00001970,-0.00007406,-0.00024133,-0.00008169,-0.0
 0008752,-0.00004464,-0.00003007,0.00001263,0.00005788,-0.00004040,0.00
 000797,-0.00001600,-0.00002409,-0.00006266,0.00002438,-0.00004296,0.00
 012961,0.00000451,-0.00003059,0.02404717,-0.00655354,-0.00954350,-0.13
 239193,-0.02173708,0.10843209,0.12323872,-0.00052337,0.00072236,0.0000
 1729,0.00067990,0.00013905,-0.00004917,-0.00005871,-0.00148086,0.00042
 865,0.00045600,0.00023896,0.00037416,0.00001981,-0.00003967,-0.0000121
 8,-0.00015811,-0.00004321,-0.00008172,0.00006009,-0.00000933,-0.000076
 29,-0.00460460,0.00278201,0.00009315,-0.00084171,0.00067647,-0.0005584
 3,0.00456031,0.00129102,0.00073147,0.00259713,-0.00452674,-0.00285546,
 -0.00041720,-0.00126820,0.00007854,0.00073931,-0.00428472,-0.00992854,
 -0.00398364,0.00481175,0.00885498,0.00110405,0.00109413,-0.00036744,0.
 00612246,0.00606256,-0.01610554,-0.00310345,-0.00273268,0.00393828,-0.
 00102001,-0.00141078,0.00035916,0.00014440,-0.00057718,-0.00000536,0.0
 0238836,-0.00074924,0.00017921,-0.00025302,-0.00022582,0.00007145,-0.0
 0204319,-0.00176680,0.00069311,-0.00234883,0.00075806,-0.00193187,0.00
 056607,-0.00130110,-0.00078535,-0.00041132,-0.00660597,0.04464465,0.00
 236704,-0.00031908,-0.00061316,-0.00010413,0.00018680,0.00001319,-0.00
 053507,0.00035779,0.00024899,-0.00024322,-0.00065620,0.00014805,0.0000
 0177,-0.00005038,-0.00002414,0.00000025,0.00000673,-0.00005058,0.00007
 206,-0.00012343,0.00000180,0.00000449,0.00003866,-0.00000901,-0.000030
 41,0.00015772,0.00002432,-0.00018680,0.00001023,0.00012399,0.00007214,
 0.00001566,0.00008369,-0.00001692,-0.00008781,-0.00006609,0.00002347,-
 0.00015007,0.00021046,0.00000065,0.00002712,0.00004890,-0.00003231,0.0
 0005511,0.00006223,-0.00005388,0.00004752,-0.00007888,0.00002557,-0.00
 001073,0.00002398,-0.00001951,-0.00000076,0.00000967,-0.01090473,-0.01
 973904,-0.01747440,-0.00664782,-0.04671472,0.01575262,0.01652459,0.075
 40793,-0.00109432,0.00057006,-0.00026960,0.00114461,0.00011194,0.00008
 362,-0.00150553,-0.00003960,0.00020322,-0.00086714,-0.00077981,-0.0000
 8635,0.00033512,-0.00110297,-0.00020748,0.00171026,0.00105085,0.000314
 61,0.00112929,0.00064374,-0.00012614,-0.00530600,0.00313797,-0.0000860
 7,-0.00368445,0.00185422,0.00013993,0.00676617,0.00036266,0.00252241,0
 .00517767,-0.00510331,0.00138781,-0.00026049,-0.00396460,0.00045970,-0
 .00834376,-0.00664740,-0.00135234,0.00697722,0.00006486,0.00976138,0.0
 0383673,0.00280342,0.00040971,0.02310974,-0.01513453,-0.02735559,-0.00
 201498,0.00234948,-0.00540859,-0.00030374,-0.00014235,-0.00021189,0.00
 031918,0.00104044,-0.00047782,-0.00339032,-0.00214946,-0.00033415,-0.0
 0018151,0.00004149,0.00016879,0.00426972,0.00225534,-0.00263913,-0.004
 15203,0.00323843,-0.00361754,-0.00151223,-0.00246360,0.00132508,0.0078
 8821,0.03338420,-0.04833781,0.00062968,0.00035167,-0.00065627,-0.00071
 844,0.00036650,0.00046841,0.00076536,0.00012748,0.00051348,0.00033411,
 0.00071313,0.00026313,-0.00010784,-0.00012729,-0.00014454,-0.00017658,
 -0.00033713,-0.00004380,-0.00012966,-0.00008910,-0.00008127,0.00001961
 ,-0.00012004,-0.00007410,0.00000489,0.00009246,0.00007889,0.00008379,-
 0.00014999,0.00013078,0.00022573,0.00002523,-0.00008608,0.00005420,0.0
 0010247,-0.00001470,0.00025897,0.00040535,0.00015361,0.00015025,-0.000
 00429,-0.00000084,-0.00008165,0.00026454,0.00003842,-0.00001500,0.0000
 2225,-0.00007409,-0.00005685,0.00010371,-0.00000038,-0.00021625,-0.000
 01141,-0.00001267,-0.12261447,-0.03718692,-0.09344007,0.23119058,0.046
 19336,-0.40213323,-0.13966267,-0.02614551,0.56887653||-0.00001441,0.00
 000094,0.00000439,0.00000515,-0.00000185,0.00000241,0.00001450,0.00001
 303,0.00000055,0.00001508,-0.00000259,-0.00000256,-0.00001206,-0.00000
 399,-0.00000002,-0.00000986,-0.00000828,-0.00000781,-0.00000446,0.0000
 1490,-0.00000242,-0.00000824,0.00000165,-0.00000540,0.00001008,0.00000
 235,0.00000636,0.00000295,-0.00000684,0.00000433,0.00002650,-0.0000349
 9,0.00000373,0.00000726,0.00001778,0.00000008,0.00004834,-0.00000111,-
 0.00000637,0.00010826,0.00001901,0.00003566,-0.00000709,-0.00003513,0.
 00000116,0.00001699,0.00000797,-0.00000412,0.00005635,-0.00000810,0.00
 005212,0.00001752,0.00000272,-0.00000420,-0.00001749,0.00001912,-0.000
 00734,-0.00000524,-0.00001325,-0.00000180,-0.00000725,0.00001283,-0.00
 000248,-0.00007140,0.00001652,-0.00001827,-0.00001436,0.00000346,0.000
 01505,-0.00000244,-0.00000666,0.00000626,-0.00000031,-0.00001580,-0.00
 005505,-0.00001815,-0.00001161,-0.00000131,0.00000328,-0.00000430,0.00
 000556,0.00000456,-0.00004166,0.00001502,-0.00000082,-0.00000328,-0.00
 000146,0.00000373,-0.00000155,-0.00000891,0.00000841,0.00001258,-0.000
 00774,0.00000476,0.00000482,0.00000536,0.00000350,-0.00000366,-0.00000
 258,0.00000097,0.00000818,-0.00000144,0.00000078,0.00001010,0.00000254
 ,-0.00000368,-0.00000547,-0.00000186,-0.00000505,0.00000081,-0.0000030
 0,0.00000881,0.00000602,0.00000424,-0.00000059,0.00000324,-0.00000050,
 -0.00000106,0.00000407,-0.00000591,-0.00000154,-0.00000130,0.00000754,
 -0.00000423,-0.00000541,0.00000668,0.00000455,0.00000654,0.00000128,-0
 .00017246,-0.00002360,-0.00002910,-0.00000675,0.00006027,0.00011975,0.
 00001660,-0.00000850,-0.00011842|||@


 ALL SCIENCE IS EITHER PHYSICS, OR STAMP COLLECTING.
   --ERNEST RUTHERFORD, 1871-1937.
 Job cpu time:       0 days  0 hours  0 minutes 40.0 seconds.
 File lengths (MBytes):  RWF=    467 Int=      0 D2E=      0 Chk=      5 Scr=      1
 Normal termination of Gaussian 09 at Thu Mar 12 11:50:51 2026.
