 Entering Link 1 = C:\Gaussian\G09W\l1.exe PID=     26872.
  
 Copyright (c) 1988,1990,1992,1993,1995,1998,2003,2009,2013,
            Gaussian, Inc.  All Rights Reserved.
  
 This is part of the Gaussian(R) 09 program.  It is based on
 the Gaussian(R) 03 system (copyright 2003, Gaussian, Inc.),
 the Gaussian(R) 98 system (copyright 1998, Gaussian, Inc.),
 the Gaussian(R) 94 system (copyright 1995, Gaussian, Inc.),
 the Gaussian 92(TM) system (copyright 1992, Gaussian, Inc.),
 the Gaussian 90(TM) system (copyright 1990, Gaussian, Inc.),
 the Gaussian 88(TM) system (copyright 1988, Gaussian, Inc.),
 the Gaussian 86(TM) system (copyright 1986, Carnegie Mellon
 University), and the Gaussian 82(TM) system (copyright 1983,
 Carnegie Mellon University). Gaussian is a federally registered
 trademark of Gaussian, Inc.
  
 This software contains proprietary and confidential information,
 including trade secrets, belonging to Gaussian, Inc.
  
 This software is provided under written license and may be
 used, copied, transmitted, or stored only in accord with that
 written license.
  
 The following legend is applicable only to US Government
 contracts under FAR:
  
                    RESTRICTED RIGHTS LEGEND
  
 Use, reproduction and disclosure by the US Government is
 subject to restrictions as set forth in subparagraphs (a)
 and (c) of the Commercial Computer Software - Restricted
 Rights clause in FAR 52.227-19.
  
 Gaussian, Inc.
 340 Quinnipiac St., Bldg. 40, Wallingford CT 06492
  
  
 ---------------------------------------------------------------
 Warning -- This program may not be used in any manner that
 competes with the business of Gaussian, Inc. or will provide
 assistance to any competitor of Gaussian, Inc.  The licensee
 of this program is prohibited from giving any competitor of
 Gaussian, Inc. access to this program.  By using this program,
 the user acknowledges that Gaussian, Inc. is engaged in the
 business of creating and licensing software in the field of
 computational chemistry and represents and warrants to the
 licensee that it is not a competitor of Gaussian, Inc. and that
 it will not use this program in any manner prohibited above.
 ---------------------------------------------------------------
  

 Cite this work as:
 Gaussian 09, Revision D.01,
 M. J. Frisch, G. W. Trucks, H. B. Schlegel, G. E. Scuseria, 
 M. A. Robb, J. R. Cheeseman, G. Scalmani, V. Barone, B. Mennucci, 
 G. A. Petersson, H. Nakatsuji, M. Caricato, X. Li, H. P. Hratchian, 
 A. F. Izmaylov, J. Bloino, G. Zheng, J. L. Sonnenberg, M. Hada, 
 M. Ehara, K. Toyota, R. Fukuda, J. Hasegawa, M. Ishida, T. Nakajima, 
 Y. Honda, O. Kitao, H. Nakai, T. Vreven, J. A. Montgomery, Jr., 
 J. E. Peralta, F. Ogliaro, M. Bearpark, J. J. Heyd, E. Brothers, 
 K. N. Kudin, V. N. Staroverov, T. Keith, R. Kobayashi, J. Normand, 
 K. Raghavachari, A. Rendell, J. C. Burant, S. S. Iyengar, J. Tomasi, 
 M. Cossi, N. Rega, J. M. Millam, M. Klene, J. E. Knox, J. B. Cross, 
 V. Bakken, C. Adamo, J. Jaramillo, R. Gomperts, R. E. Stratmann, 
 O. Yazyev, A. J. Austin, R. Cammi, C. Pomelli, J. W. Ochterski, 
 R. L. Martin, K. Morokuma, V. G. Zakrzewski, G. A. Voth, 
 P. Salvador, J. J. Dannenberg, S. Dapprich, A. D. Daniels, 
 O. Farkas, J. B. Foresman, J. V. Ortiz, J. Cioslowski, 
 and D. J. Fox, Gaussian, Inc., Wallingford CT, 2013.
 
 ******************************************
 Gaussian 09:  IA32W-G09RevD.01 24-Apr-2013
                11-Mar-2026 
 ******************************************
 %chk=C:\Users\User\Desktop\IMRG\ECE+ML\Cr_Gr_NS.chk
 ---------------------------------------
 # opt freq pm6 scf=qc geom=connectivity
 ---------------------------------------
 1/14=-1,18=20,19=15,26=1,38=1,57=2/1,3;
 2/9=110,12=2,17=6,18=5,40=1/2;
 3/5=2,16=1,25=1,41=3900000,71=1/1,2,3;
 4/35=1/1;
 5/5=2,8=3,35=1,38=5/8;
 6/7=2,8=2,9=2,10=2,28=1/1;
 7//1,2,3,16;
 1/14=-1,18=20,19=15,26=1/3(2);
 2/9=110/2;
 99//99;
 2/9=110/2;
 3/5=2,16=1,25=1,41=3900000,71=1,135=20/1,2,3;
 4/5=5,16=3,35=1/1;
 5/5=2,8=3,35=1,38=5/8;
 7//1,2,3,16;
 1/14=-1,18=20,19=15,26=1/3(-5);
 2/9=110/2;
 6/7=2,8=2,9=2,10=2,19=2,28=1/1;
 99/9=1/99;
 --------
 Cr_Gr_NS
 --------
 Symbolic Z-matrix:
 Charge =  0 Multiplicity = 1
 C                    -1.48734   1.25527   0. 
 C                    -0.11458   1.26757   0.00021 
 C                     0.63784   2.49562   0.00024 
 C                     2.76155   3.73782  -0.0001 
 C                     4.87637   4.98541  -0.00058 
 C                     2.0603    2.51615  -0.00001 
 C                     4.19236   3.77104  -0.00038 
 C                    -3.68033   2.52318  -0.00036 
 C                    -5.85442   3.76459  -0.00032 
 C                    -2.22717   2.49171  -0.00016 
 C                    -4.4314    3.73294  -0.00038 
 C                    -6.52317   4.98925  -0.00022 
 C                    -1.49723   3.66543   0.00004 
 C                    -3.77063   4.98776  -0.00006 
 C                    -5.83173   6.21539  -0.00016 
 C                     0.61876   4.98443   0.00024 
 C                    -1.48853   6.30241   0.00019 
 C                    -3.64606   7.47395  -0.00004 
 C                     2.76334   6.23383  -0.00007 
 C                     0.64426   7.4887    0.0001 
 C                    -1.48605   8.7395   -0.00011 
 C                    -0.07268   3.72258   0.00025 
 C                    -4.42338   6.2256   -0.00018 
 C                     2.03942   4.98572   0.00009 
 C                    -0.08682   6.24592   0.00026 
 C                    -2.24783   7.50962   0.00012 
 C                     4.18329   6.20584  -0.00024 
 C                     2.05117   7.46407  -0.0001 
 C                    -0.10808   8.71832  -0.00011 
 H                     4.73683   7.14171  -0.00013 
 H                     2.60821   8.39816  -0.00027 
 H                     0.45062   9.65387  -0.00038 
 H                    -2.02415   9.68484  -0.0001 
 H                    -4.21082   8.4023   -0.00019 
 H                    -6.39162   7.1481   -0.0001 
 H                    -7.61353   5.00188  -0.00006 
 H                    -6.41745   2.83421  -0.00027 
 H                    -4.20834   1.57407  -0.00036 
 H                    -2.035     0.31468   0.00008 
 H                     0.44259   0.33017   0.00001 
 H                     2.60785   1.57708  -0.00018 
 H                     4.74181   2.8329   -0.00058 
 H                     5.96597   4.99136  -0.0008 
 Cr                   -2.25175   4.98582   0.00002 
 

 GradGradGradGradGradGradGradGradGradGradGradGradGradGradGradGradGradGrad
 Berny optimization.
 Initialization pass.
                           ----------------------------
                           !    Initial Parameters    !
                           ! (Angstroms and Degrees)  !
 --------------------------                            --------------------------
 ! Name  Definition              Value          Derivative Info.                !
 --------------------------------------------------------------------------------
 ! R1    R(1,2)                  1.3728         estimate D2E/DX2                !
 ! R2    R(1,10)                 1.4409         estimate D2E/DX2                !
 ! R3    R(1,39)                 1.0884         estimate D2E/DX2                !
 ! R4    R(2,3)                  1.4402         estimate D2E/DX2                !
 ! R5    R(2,40)                 1.0905         estimate D2E/DX2                !
 ! R6    R(3,6)                  1.4226         estimate D2E/DX2                !
 ! R7    R(3,22)                 1.4178         estimate D2E/DX2                !
 ! R8    R(4,6)                  1.4086         estimate D2E/DX2                !
 ! R9    R(4,7)                  1.4312         estimate D2E/DX2                !
 ! R10   R(4,24)                 1.4418         estimate D2E/DX2                !
 ! R11   R(5,7)                  1.3938         estimate D2E/DX2                !
 ! R12   R(5,27)                 1.4035         estimate D2E/DX2                !
 ! R13   R(5,43)                 1.0896         estimate D2E/DX2                !
 ! R14   R(6,41)                 1.087          estimate D2E/DX2                !
 ! R15   R(7,42)                 1.0872         estimate D2E/DX2                !
 ! R16   R(8,10)                 1.4535         estimate D2E/DX2                !
 ! R17   R(8,11)                 1.4239         estimate D2E/DX2                !
 ! R18   R(8,38)                 1.0861         estimate D2E/DX2                !
 ! R19   R(9,11)                 1.4234         estimate D2E/DX2                !
 ! R20   R(9,12)                 1.3954         estimate D2E/DX2                !
 ! R21   R(9,37)                 1.0875         estimate D2E/DX2                !
 ! R22   R(10,13)                1.3822         estimate D2E/DX2                !
 ! R23   R(11,14)                1.4182         estimate D2E/DX2                !
 ! R24   R(12,15)                1.4077         estimate D2E/DX2                !
 ! R25   R(12,36)                1.0904         estimate D2E/DX2                !
 ! R26   R(13,22)                1.4257         estimate D2E/DX2                !
 ! R27   R(13,44)                1.5208         estimate D2E/DX2                !
 ! R28   R(14,23)                1.3994         estimate D2E/DX2                !
 ! R29   R(14,44)                1.5189         estimate D2E/DX2                !
 ! R30   R(15,23)                1.4084         estimate D2E/DX2                !
 ! R31   R(15,35)                1.0879         estimate D2E/DX2                !
 ! R32   R(16,22)                1.4389         estimate D2E/DX2                !
 ! R33   R(16,24)                1.4207         estimate D2E/DX2                !
 ! R34   R(16,25)                1.4454         estimate D2E/DX2                !
 ! R35   R(17,25)                1.4028         estimate D2E/DX2                !
 ! R36   R(17,26)                1.4261         estimate D2E/DX2                !
 ! R37   R(17,44)                1.5218         estimate D2E/DX2                !
 ! R38   R(18,23)                1.4706         estimate D2E/DX2                !
 ! R39   R(18,26)                1.3987         estimate D2E/DX2                !
 ! R40   R(18,34)                1.0866         estimate D2E/DX2                !
 ! R41   R(19,24)                1.4429         estimate D2E/DX2                !
 ! R42   R(19,27)                1.4202         estimate D2E/DX2                !
 ! R43   R(19,28)                1.4215         estimate D2E/DX2                !
 ! R44   R(20,25)                1.4419         estimate D2E/DX2                !
 ! R45   R(20,28)                1.4071         estimate D2E/DX2                !
 ! R46   R(20,29)                1.4415         estimate D2E/DX2                !
 ! R47   R(21,26)                1.4467         estimate D2E/DX2                !
 ! R48   R(21,29)                1.3781         estimate D2E/DX2                !
 ! R49   R(21,33)                1.0878         estimate D2E/DX2                !
 ! R50   R(27,30)                1.0873         estimate D2E/DX2                !
 ! R51   R(28,31)                1.0876         estimate D2E/DX2                !
 ! R52   R(29,32)                1.0897         estimate D2E/DX2                !
 ! A1    A(2,1,10)             120.3811         estimate D2E/DX2                !
 ! A2    A(2,1,39)             120.7234         estimate D2E/DX2                !
 ! A3    A(10,1,39)            118.8954         estimate D2E/DX2                !
 ! A4    A(1,2,3)              122.0091         estimate D2E/DX2                !
 ! A5    A(1,2,40)             120.2126         estimate D2E/DX2                !
 ! A6    A(3,2,40)             117.7783         estimate D2E/DX2                !
 ! A7    A(2,3,6)              122.323          estimate D2E/DX2                !
 ! A8    A(2,3,22)             118.4295         estimate D2E/DX2                !
 ! A9    A(6,3,22)             119.2474         estimate D2E/DX2                !
 ! A10   A(6,4,7)              121.1867         estimate D2E/DX2                !
 ! A11   A(6,4,24)             120.0864         estimate D2E/DX2                !
 ! A12   A(7,4,24)             118.7269         estimate D2E/DX2                !
 ! A13   A(7,5,27)             121.017          estimate D2E/DX2                !
 ! A14   A(7,5,43)             119.7036         estimate D2E/DX2                !
 ! A15   A(27,5,43)            119.2794         estimate D2E/DX2                !
 ! A16   A(3,6,4)              120.6839         estimate D2E/DX2                !
 ! A17   A(3,6,41)             119.4183         estimate D2E/DX2                !
 ! A18   A(4,6,41)             119.8978         estimate D2E/DX2                !
 ! A19   A(4,7,5)              120.7208         estimate D2E/DX2                !
 ! A20   A(4,7,42)             119.0266         estimate D2E/DX2                !
 ! A21   A(5,7,42)             120.2526         estimate D2E/DX2                !
 ! A22   A(10,8,11)            123.0746         estimate D2E/DX2                !
 ! A23   A(10,8,38)            117.8469         estimate D2E/DX2                !
 ! A24   A(11,8,38)            119.0785         estimate D2E/DX2                !
 ! A25   A(11,9,12)            119.9113         estimate D2E/DX2                !
 ! A26   A(11,9,37)            119.9067         estimate D2E/DX2                !
 ! A27   A(12,9,37)            120.182          estimate D2E/DX2                !
 ! A28   A(1,10,8)             122.1353         estimate D2E/DX2                !
 ! A29   A(1,10,13)            117.2279         estimate D2E/DX2                !
 ! A30   A(8,10,13)            120.6368         estimate D2E/DX2                !
 ! A31   A(8,11,9)             123.1078         estimate D2E/DX2                !
 ! A32   A(8,11,14)            120.3955         estimate D2E/DX2                !
 ! A33   A(9,11,14)            116.4967         estimate D2E/DX2                !
 ! A34   A(9,12,15)            121.9432         estimate D2E/DX2                !
 ! A35   A(9,12,36)            119.3009         estimate D2E/DX2                !
 ! A36   A(15,12,36)           118.7559         estimate D2E/DX2                !
 ! A37   A(10,13,22)           124.1752         estimate D2E/DX2                !
 ! A38   A(10,13,44)           118.3771         estimate D2E/DX2                !
 ! A39   A(22,13,44)           117.4477         estimate D2E/DX2                !
 ! A40   A(11,14,23)           124.4256         estimate D2E/DX2                !
 ! A41   A(11,14,44)           117.6975         estimate D2E/DX2                !
 ! A42   A(23,14,44)           117.8769         estimate D2E/DX2                !
 ! A43   A(12,15,23)           119.8349         estimate D2E/DX2                !
 ! A44   A(12,15,35)           119.6049         estimate D2E/DX2                !
 ! A45   A(23,15,35)           120.5602         estimate D2E/DX2                !
 ! A46   A(22,16,24)           118.7733         estimate D2E/DX2                !
 ! A47   A(22,16,25)           122.0594         estimate D2E/DX2                !
 ! A48   A(24,16,25)           119.1674         estimate D2E/DX2                !
 ! A49   A(25,17,26)           124.4765         estimate D2E/DX2                !
 ! A50   A(25,17,44)           117.7927         estimate D2E/DX2                !
 ! A51   A(26,17,44)           117.7308         estimate D2E/DX2                !
 ! A52   A(23,18,26)           123.3713         estimate D2E/DX2                !
 ! A53   A(23,18,34)           116.7761         estimate D2E/DX2                !
 ! A54   A(26,18,34)           119.8525         estimate D2E/DX2                !
 ! A55   A(24,19,27)           118.9848         estimate D2E/DX2                !
 ! A56   A(24,19,28)           119.8195         estimate D2E/DX2                !
 ! A57   A(27,19,28)           121.1957         estimate D2E/DX2                !
 ! A58   A(25,20,28)           119.4641         estimate D2E/DX2                !
 ! A59   A(25,20,29)           118.073          estimate D2E/DX2                !
 ! A60   A(28,20,29)           122.4629         estimate D2E/DX2                !
 ! A61   A(26,21,29)           120.8936         estimate D2E/DX2                !
 ! A62   A(26,21,33)           118.5771         estimate D2E/DX2                !
 ! A63   A(29,21,33)           120.5293         estimate D2E/DX2                !
 ! A64   A(3,22,13)            117.777          estimate D2E/DX2                !
 ! A65   A(3,22,16)            121.2041         estimate D2E/DX2                !
 ! A66   A(13,22,16)           121.0189         estimate D2E/DX2                !
 ! A67   A(14,23,15)           117.3883         estimate D2E/DX2                !
 ! A68   A(14,23,18)           120.2865         estimate D2E/DX2                !
 ! A69   A(15,23,18)           122.3252         estimate D2E/DX2                !
 ! A70   A(4,24,16)            120.005          estimate D2E/DX2                !
 ! A71   A(4,24,19)            119.8289         estimate D2E/DX2                !
 ! A72   A(16,24,19)           120.1662         estimate D2E/DX2                !
 ! A73   A(16,25,17)           121.5273         estimate D2E/DX2                !
 ! A74   A(16,25,20)           120.3138         estimate D2E/DX2                !
 ! A75   A(17,25,20)           118.159          estimate D2E/DX2                !
 ! A76   A(17,26,18)           120.707          estimate D2E/DX2                !
 ! A77   A(17,26,21)           116.0575         estimate D2E/DX2                !
 ! A78   A(18,26,21)           123.2355         estimate D2E/DX2                !
 ! A79   A(5,27,19)            120.7216         estimate D2E/DX2                !
 ! A80   A(5,27,30)            119.8045         estimate D2E/DX2                !
 ! A81   A(19,27,30)           119.4739         estimate D2E/DX2                !
 ! A82   A(19,28,20)           121.0692         estimate D2E/DX2                !
 ! A83   A(19,28,31)           119.1239         estimate D2E/DX2                !
 ! A84   A(20,28,31)           119.8069         estimate D2E/DX2                !
 ! A85   A(20,29,21)           122.3405         estimate D2E/DX2                !
 ! A86   A(20,29,32)           117.6945         estimate D2E/DX2                !
 ! A87   A(21,29,32)           119.965          estimate D2E/DX2                !
 ! A88   A(13,44,14)           119.8184         estimate D2E/DX2                !
 ! A89   A(13,44,17)           120.1541         estimate D2E/DX2                !
 ! A90   A(14,44,17)           120.0275         estimate D2E/DX2                !
 ! D1    D(10,1,2,3)            -0.0025         estimate D2E/DX2                !
 ! D2    D(10,1,2,40)         -179.9806         estimate D2E/DX2                !
 ! D3    D(39,1,2,3)          -179.9941         estimate D2E/DX2                !
 ! D4    D(39,1,2,40)            0.0278         estimate D2E/DX2                !
 ! D5    D(2,1,10,8)          -179.9988         estimate D2E/DX2                !
 ! D6    D(2,1,10,13)           -0.0059         estimate D2E/DX2                !
 ! D7    D(39,1,10,8)           -0.0071         estimate D2E/DX2                !
 ! D8    D(39,1,10,13)         179.9859         estimate D2E/DX2                !
 ! D9    D(1,2,3,6)           -179.9775         estimate D2E/DX2                !
 ! D10   D(1,2,3,22)             0.0102         estimate D2E/DX2                !
 ! D11   D(40,2,3,6)             0.0012         estimate D2E/DX2                !
 ! D12   D(40,2,3,22)          179.9889         estimate D2E/DX2                !
 ! D13   D(2,3,6,4)            179.9947         estimate D2E/DX2                !
 ! D14   D(2,3,6,41)            -0.0032         estimate D2E/DX2                !
 ! D15   D(22,3,6,4)             0.0071         estimate D2E/DX2                !
 ! D16   D(22,3,6,41)         -179.9908         estimate D2E/DX2                !
 ! D17   D(2,3,22,13)           -0.0093         estimate D2E/DX2                !
 ! D18   D(2,3,22,16)         -179.9984         estimate D2E/DX2                !
 ! D19   D(6,3,22,13)          179.9788         estimate D2E/DX2                !
 ! D20   D(6,3,22,16)           -0.0104         estimate D2E/DX2                !
 ! D21   D(7,4,6,3)           -179.9983         estimate D2E/DX2                !
 ! D22   D(7,4,6,41)            -0.0004         estimate D2E/DX2                !
 ! D23   D(24,4,6,3)             0.0005         estimate D2E/DX2                !
 ! D24   D(24,4,6,41)          179.9984         estimate D2E/DX2                !
 ! D25   D(6,4,7,5)            179.9946         estimate D2E/DX2                !
 ! D26   D(6,4,7,42)             0.0023         estimate D2E/DX2                !
 ! D27   D(24,4,7,5)            -0.0043         estimate D2E/DX2                !
 ! D28   D(24,4,7,42)         -179.9966         estimate D2E/DX2                !
 ! D29   D(6,4,24,16)           -0.0051         estimate D2E/DX2                !
 ! D30   D(6,4,24,19)         -179.9968         estimate D2E/DX2                !
 ! D31   D(7,4,24,16)          179.9938         estimate D2E/DX2                !
 ! D32   D(7,4,24,19)            0.0021         estimate D2E/DX2                !
 ! D33   D(27,5,7,4)             0.0119         estimate D2E/DX2                !
 ! D34   D(27,5,7,42)         -179.9959         estimate D2E/DX2                !
 ! D35   D(43,5,7,4)          -179.9999         estimate D2E/DX2                !
 ! D36   D(43,5,7,42)           -0.0077         estimate D2E/DX2                !
 ! D37   D(7,5,27,19)           -0.0173         estimate D2E/DX2                !
 ! D38   D(7,5,27,30)          179.9838         estimate D2E/DX2                !
 ! D39   D(43,5,27,19)         179.9944         estimate D2E/DX2                !
 ! D40   D(43,5,27,30)          -0.0044         estimate D2E/DX2                !
 ! D41   D(11,8,10,1)          179.9932         estimate D2E/DX2                !
 ! D42   D(11,8,10,13)           0.0005         estimate D2E/DX2                !
 ! D43   D(38,8,10,1)            0.002          estimate D2E/DX2                !
 ! D44   D(38,8,10,13)        -179.9907         estimate D2E/DX2                !
 ! D45   D(10,8,11,9)         -179.9875         estimate D2E/DX2                !
 ! D46   D(10,8,11,14)          -0.0059         estimate D2E/DX2                !
 ! D47   D(38,8,11,9)            0.0036         estimate D2E/DX2                !
 ! D48   D(38,8,11,14)         179.9852         estimate D2E/DX2                !
 ! D49   D(12,9,11,8)          179.9943         estimate D2E/DX2                !
 ! D50   D(12,9,11,14)           0.012          estimate D2E/DX2                !
 ! D51   D(37,9,11,8)           -0.0011         estimate D2E/DX2                !
 ! D52   D(37,9,11,14)        -179.9834         estimate D2E/DX2                !
 ! D53   D(11,9,12,15)          -0.0008         estimate D2E/DX2                !
 ! D54   D(11,9,12,36)        -179.9935         estimate D2E/DX2                !
 ! D55   D(37,9,12,15)         179.9946         estimate D2E/DX2                !
 ! D56   D(37,9,12,36)           0.0019         estimate D2E/DX2                !
 ! D57   D(1,10,13,22)           0.0067         estimate D2E/DX2                !
 ! D58   D(1,10,13,44)        -179.9942         estimate D2E/DX2                !
 ! D59   D(8,10,13,22)         179.9997         estimate D2E/DX2                !
 ! D60   D(8,10,13,44)          -0.0012         estimate D2E/DX2                !
 ! D61   D(8,11,14,23)         179.9937         estimate D2E/DX2                !
 ! D62   D(8,11,14,44)           0.0113         estimate D2E/DX2                !
 ! D63   D(9,11,14,23)          -0.0235         estimate D2E/DX2                !
 ! D64   D(9,11,14,44)         179.9941         estimate D2E/DX2                !
 ! D65   D(9,12,15,23)          -0.0008         estimate D2E/DX2                !
 ! D66   D(9,12,15,35)         179.9989         estimate D2E/DX2                !
 ! D67   D(36,12,15,23)        179.9919         estimate D2E/DX2                !
 ! D68   D(36,12,15,35)         -0.0083         estimate D2E/DX2                !
 ! D69   D(10,13,22,3)           0.001          estimate D2E/DX2                !
 ! D70   D(10,13,22,16)        179.9902         estimate D2E/DX2                !
 ! D71   D(44,13,22,3)        -179.9981         estimate D2E/DX2                !
 ! D72   D(44,13,22,16)         -0.0089         estimate D2E/DX2                !
 ! D73   D(10,13,44,14)          0.0069         estimate D2E/DX2                !
 ! D74   D(10,13,44,17)       -179.9981         estimate D2E/DX2                !
 ! D75   D(22,13,44,14)       -179.9939         estimate D2E/DX2                !
 ! D76   D(22,13,44,17)          0.001          estimate D2E/DX2                !
 ! D77   D(11,14,23,15)          0.0221         estimate D2E/DX2                !
 ! D78   D(11,14,23,18)       -179.9904         estimate D2E/DX2                !
 ! D79   D(44,14,23,15)       -179.9955         estimate D2E/DX2                !
 ! D80   D(44,14,23,18)         -0.008          estimate D2E/DX2                !
 ! D81   D(11,14,44,13)         -0.012          estimate D2E/DX2                !
 ! D82   D(11,14,44,17)        179.993          estimate D2E/DX2                !
 ! D83   D(23,14,44,13)       -179.9956         estimate D2E/DX2                !
 ! D84   D(23,14,44,17)          0.0095         estimate D2E/DX2                !
 ! D85   D(12,15,23,14)         -0.0092         estimate D2E/DX2                !
 ! D86   D(12,15,23,18)       -179.9964         estimate D2E/DX2                !
 ! D87   D(35,15,23,14)        179.991          estimate D2E/DX2                !
 ! D88   D(35,15,23,18)          0.0039         estimate D2E/DX2                !
 ! D89   D(24,16,22,3)           0.0059         estimate D2E/DX2                !
 ! D90   D(24,16,22,13)       -179.9829         estimate D2E/DX2                !
 ! D91   D(25,16,22,3)        -179.9999         estimate D2E/DX2                !
 ! D92   D(25,16,22,13)          0.0113         estimate D2E/DX2                !
 ! D93   D(22,16,24,4)           0.0019         estimate D2E/DX2                !
 ! D94   D(22,16,24,19)        179.9936         estimate D2E/DX2                !
 ! D95   D(25,16,24,4)        -179.9925         estimate D2E/DX2                !
 ! D96   D(25,16,24,19)         -0.0008         estimate D2E/DX2                !
 ! D97   D(22,16,25,17)         -0.005          estimate D2E/DX2                !
 ! D98   D(22,16,25,20)       -179.9929         estimate D2E/DX2                !
 ! D99   D(24,16,25,17)        179.9893         estimate D2E/DX2                !
 ! D100  D(24,16,25,20)          0.0013         estimate D2E/DX2                !
 ! D101  D(26,17,25,16)       -179.9962         estimate D2E/DX2                !
 ! D102  D(26,17,25,20)         -0.008          estimate D2E/DX2                !
 ! D103  D(44,17,25,16)         -0.003          estimate D2E/DX2                !
 ! D104  D(44,17,25,20)        179.9852         estimate D2E/DX2                !
 ! D105  D(25,17,26,18)        179.9954         estimate D2E/DX2                !
 ! D106  D(25,17,26,21)          0.0108         estimate D2E/DX2                !
 ! D107  D(44,17,26,18)          0.0021         estimate D2E/DX2                !
 ! D108  D(44,17,26,21)       -179.9825         estimate D2E/DX2                !
 ! D109  D(25,17,44,13)          0.0049         estimate D2E/DX2                !
 ! D110  D(25,17,44,14)        179.9998         estimate D2E/DX2                !
 ! D111  D(26,17,44,13)        179.9986         estimate D2E/DX2                !
 ! D112  D(26,17,44,14)         -0.0065         estimate D2E/DX2                !
 ! D113  D(26,18,23,14)          0.0039         estimate D2E/DX2                !
 ! D114  D(26,18,23,15)        179.9907         estimate D2E/DX2                !
 ! D115  D(34,18,23,14)        179.9976         estimate D2E/DX2                !
 ! D116  D(34,18,23,15)         -0.0156         estimate D2E/DX2                !
 ! D117  D(23,18,26,17)         -0.0007         estimate D2E/DX2                !
 ! D118  D(23,18,26,21)        179.9827         estimate D2E/DX2                !
 ! D119  D(34,18,26,17)       -179.9942         estimate D2E/DX2                !
 ! D120  D(34,18,26,21)         -0.0107         estimate D2E/DX2                !
 ! D121  D(27,19,24,4)          -0.0072         estimate D2E/DX2                !
 ! D122  D(27,19,24,16)       -179.999          estimate D2E/DX2                !
 ! D123  D(28,19,24,4)         179.9902         estimate D2E/DX2                !
 ! D124  D(28,19,24,16)         -0.0015         estimate D2E/DX2                !
 ! D125  D(24,19,27,5)           0.0148         estimate D2E/DX2                !
 ! D126  D(24,19,27,30)       -179.9864         estimate D2E/DX2                !
 ! D127  D(28,19,27,5)        -179.9826         estimate D2E/DX2                !
 ! D128  D(28,19,27,30)          0.0163         estimate D2E/DX2                !
 ! D129  D(24,19,28,20)          0.0035         estimate D2E/DX2                !
 ! D130  D(24,19,28,31)       -179.9967         estimate D2E/DX2                !
 ! D131  D(27,19,28,20)       -179.9991         estimate D2E/DX2                !
 ! D132  D(27,19,28,31)          0.0007         estimate D2E/DX2                !
 ! D133  D(28,20,25,16)          0.0006         estimate D2E/DX2                !
 ! D134  D(28,20,25,17)       -179.9877         estimate D2E/DX2                !
 ! D135  D(29,20,25,16)        179.9894         estimate D2E/DX2                !
 ! D136  D(29,20,25,17)          0.0011         estimate D2E/DX2                !
 ! D137  D(25,20,28,19)         -0.003          estimate D2E/DX2                !
 ! D138  D(25,20,28,31)        179.9972         estimate D2E/DX2                !
 ! D139  D(29,20,28,19)       -179.9913         estimate D2E/DX2                !
 ! D140  D(29,20,28,31)          0.0089         estimate D2E/DX2                !
 ! D141  D(25,20,29,21)          0.0025         estimate D2E/DX2                !
 ! D142  D(25,20,29,32)       -179.9913         estimate D2E/DX2                !
 ! D143  D(28,20,29,21)        179.991          estimate D2E/DX2                !
 ! D144  D(28,20,29,32)         -0.0029         estimate D2E/DX2                !
 ! D145  D(29,21,26,17)         -0.0068         estimate D2E/DX2                !
 ! D146  D(29,21,26,18)       -179.9909         estimate D2E/DX2                !
 ! D147  D(33,21,26,17)       -179.9966         estimate D2E/DX2                !
 ! D148  D(33,21,26,18)          0.0193         estimate D2E/DX2                !
 ! D149  D(26,21,29,20)          0.0005         estimate D2E/DX2                !
 ! D150  D(26,21,29,32)        179.9942         estimate D2E/DX2                !
 ! D151  D(33,21,29,20)        179.9901         estimate D2E/DX2                !
 ! D152  D(33,21,29,32)         -0.0162         estimate D2E/DX2                !
 --------------------------------------------------------------------------------
 Trust Radius=3.00D-01 FncErr=1.00D-07 GrdErr=1.00D-07
 Number of steps in this run=    264 maximum allowed number of steps=    264.
 GradGradGradGradGradGradGradGradGradGradGradGradGradGradGradGradGradGrad

                          Input orientation:                          
 ---------------------------------------------------------------------
 Center     Atomic      Atomic             Coordinates (Angstroms)
 Number     Number       Type             X           Y           Z
 ---------------------------------------------------------------------
      1          6           0       -1.487342    1.255274    0.000000
      2          6           0       -0.114579    1.267573    0.000214
      3          6           0        0.637842    2.495615    0.000237
      4          6           0        2.761554    3.737816   -0.000096
      5          6           0        4.876369    4.985412   -0.000577
      6          6           0        2.060297    2.516154   -0.000014
      7          6           0        4.192364    3.771038   -0.000385
      8          6           0       -3.680332    2.523182   -0.000361
      9          6           0       -5.854424    3.764586   -0.000316
     10          6           0       -2.227169    2.491707   -0.000158
     11          6           0       -4.431403    3.732940   -0.000377
     12          6           0       -6.523170    4.989254   -0.000217
     13          6           0       -1.497229    3.665426    0.000042
     14          6           0       -3.770635    4.987756   -0.000065
     15          6           0       -5.831731    6.215386   -0.000158
     16          6           0        0.618765    4.984426    0.000243
     17          6           0       -1.488529    6.302410    0.000188
     18          6           0       -3.646057    7.473946   -0.000044
     19          6           0        2.763344    6.233835   -0.000066
     20          6           0        0.644264    7.488696    0.000097
     21          6           0       -1.486048    8.739497   -0.000106
     22          6           0       -0.072682    3.722583    0.000254
     23          6           0       -4.423380    6.225598   -0.000181
     24          6           0        2.039423    4.985716    0.000088
     25          6           0       -0.086819    6.245918    0.000262
     26          6           0       -2.247828    7.509622    0.000125
     27          6           0        4.183286    6.205843   -0.000242
     28          6           0        2.051167    7.464069   -0.000096
     29          6           0       -0.108077    8.718323   -0.000112
     30          1           0        4.736826    7.141709   -0.000134
     31          1           0        2.608212    8.398162   -0.000269
     32          1           0        0.450622    9.653867   -0.000382
     33          1           0       -2.024149    9.684844   -0.000104
     34          1           0       -4.210816    8.402296   -0.000186
     35          1           0       -6.391623    7.148101   -0.000098
     36          1           0       -7.613530    5.001882   -0.000063
     37          1           0       -6.417453    2.834207   -0.000272
     38          1           0       -4.208336    1.574068   -0.000359
     39          1           0       -2.035005    0.314677    0.000084
     40          1           0        0.442586    0.330166    0.000014
     41          1           0        2.607852    1.577080   -0.000179
     42          1           0        4.741811    2.832903   -0.000582
     43          1           0        5.965971    4.991361   -0.000799
     44         24           0       -2.251750    4.985817    0.000017
 ---------------------------------------------------------------------
                    Distance matrix (angstroms):
                    1          2          3          4          5
     1  C    0.000000
     2  C    1.372818   0.000000
     3  C    2.460661   1.440217   0.000000
     4  C    4.920988   3.791337   2.460328   0.000000
     5  C    7.376364   6.223494   4.915709   2.455390   0.000000
     6  C    3.765044   2.507795   1.422603   1.408623   3.745330
     7  C    6.211934   4.981675   3.776417   1.431196   1.393760
     8  C    2.533140   3.780364   4.318263   6.555397   8.903916
     9  C    5.036670   6.259464   6.615119   8.616019  10.800015
    10  C    1.440871   2.441627   2.865014   5.141998   7.528533
    11  C    3.847899   4.971218   5.218067   7.192959   9.391662
    12  C    6.269144   7.410867   7.582765   9.368681  11.399540
    13  C    2.410172   2.767927   2.434540   4.259398   6.508849
    14  C    4.375483   5.215986   5.064132   6.650702   8.647004
    15  C    6.593666   7.560866   7.462713   8.943316  10.778509
    16  C    4.282786   3.788507   2.488884   2.479028   4.257604
    17  C    5.047136   5.218939   4.360406   4.963904   6.499724
    18  C    6.582699   7.140757   6.567768   7.417287   8.878319
    19  C    6.546327   5.739878   4.300238   2.496019   2.454269
    20  C    6.587813   6.267233   4.993085   4.307204   4.917026
    21  C    7.484223   7.596748   6.595223   6.561930   7.387389
    22  C    2.844095   2.455367   1.417849   2.834277   5.107626
    23  C    5.772732   6.568697   6.287188   7.603442   9.382078
    24  C    5.133641   4.297012   2.857452   1.441779   2.836946
    25  C    5.183434   4.978422   3.819674   3.795234   5.120753
    26  C    6.300413   6.596509   5.785098   6.270600   7.558163
    27  C    7.527559   6.546613   5.131857   2.848241   1.403502
    28  C    7.146340   6.564070   5.165562   3.793364   3.758392
    29  C    7.589432   7.450753   6.267256   5.748063   6.227305
    30  H    8.566818   7.618504   6.195794   3.935503   2.160808
    31  H    8.233736   7.632751   6.222734   4.662868   4.097731
    32  H    8.619284   8.405318   7.160700   6.351382   6.432862
    33  H    8.446645   8.631159   7.666238   7.633485   8.348761
    34  H    7.648348   8.226994   7.641883   8.388761   9.708349
    35  H    7.666641   8.601273   8.429650   9.767839  11.473660
    36  H    7.181034   8.377311   8.623602  10.451805  12.489910
    37  H    5.176778   6.494657   7.063415   9.223376  11.496873
    38  H    2.739605   4.105214   4.933020   7.298025   9.704078
    39  H    1.088420   2.143839   3.449725   5.892780   8.341634
    40  H    2.140197   1.090488   2.174234   4.121855   6.428821
    41  H    4.107818   2.739967   2.173625   2.166196   4.094252
    42  H    6.425828   5.102429   4.117806   2.177221   2.156710
    43  H    8.337279   7.130195   5.883681   3.440881   1.089618
    44  Cr   3.808053   4.288687   3.814558   5.166306   7.128119
                    6          7          8          9         10
     6  C    0.000000
     7  C    2.473953   0.000000
     8  C    5.740633   7.970978   0.000000
     9  C    8.012576  10.046789   2.503549   0.000000
    10  C    4.287535   6.545768   1.453504   3.844112   0.000000
    11  C    6.604751   8.623851   1.423946   1.423372   2.529685
    12  C    8.932643  10.784559   3.763407   1.395361   4.969242
    13  C    3.738558   5.690573   2.463871   4.358323   1.382183
    14  C    6.333133   8.055417   2.466228   2.416262   2.934714
    15  C    8.715987  10.317816   4.273276   2.450906   5.182534
    16  C    2.858387   3.773979   4.953783   6.587123   3.783251
    17  C    5.189402   6.219356   4.368817   5.049910   3.881629
    18  C    7.559244   8.669047   4.950883   4.316971   5.180343
    19  C    3.783573   2.847361   7.435719   8.964548   6.237687
    20  C    5.170233   5.139065   6.584714   7.490123   5.763248
    21  C    7.162859   7.545194   6.592227   6.620608   6.291593
    22  C    2.450524   4.265321   3.801803   5.781894   2.481304
    23  C    7.469808   8.958565   3.776242   2.846835   4.331892
    24  C    2.469650   2.471962   6.227333   7.987739   4.942053
    25  C    4.303631   4.943322   5.174177   6.278716   4.321481
    26  C    6.595048   7.446683   5.188126   5.199311   5.017958
    27  C    4.256863   2.434822   8.683230  10.330312   7.408693
    28  C    4.947924   4.268865   7.567196   8.728376   6.559615
    29  C    6.570293   6.555106   7.151279   7.586832   6.577333
    30  H    5.344115   3.414361   9.601008  11.116633   8.373753
    31  H    5.907472   4.890788   8.605881   9.648121   7.633290
    32  H    7.316966   6.971965   8.240841   8.627702   7.646378
    33  H    8.250625   8.580101   7.350670   7.051274   7.196001
    34  H    8.600786   9.594894   5.902999   4.920346   6.234575
    35  H    9.637940  11.109695   5.361061   3.425895   6.246974
    36  H    9.988081  11.869882   4.649085   2.150664   5.942547
    37  H    8.483714  10.651096   2.754735   1.087477   4.204258
    38  H    6.339028   8.683227   1.086096   2.740068   2.183365
    39  H    4.649516   7.122257   2.754015   5.146827   2.185495
    40  H    2.719473   5.089246   4.669879   7.172696   3.435091
    41  H    1.087050   2.706313   6.358960   8.740440   4.920769
    42  H    2.700158   1.087194   8.427837  10.637116   6.977328
    43  H    4.623953   2.152875   9.957062  11.883884   8.565968
    44  Cr   4.969203   6.557613   2.847002   3.804032   2.494231
                   11         12         13         14         15
    11  C    0.000000
    12  C    2.440044   0.000000
    13  C    2.934951   5.197365   0.000000
    14  C    1.418161   2.752535   2.630006   0.000000
    15  C    2.850168   1.407654   5.028937   2.398999   0.000000
    16  C    5.202924   7.141937   2.493430   4.389401   6.566899
    17  C    3.906749   5.203075   2.636998   2.633690   4.344074
    18  C    3.822551   3.801510   4.372904   2.489309   2.522131
    19  C    7.617012   9.369543   4.974858   6.651736   8.595095
    20  C    6.314120   7.590740   4.382166   5.074055   6.599988
    21  C    5.808677   6.279882   5.074083   4.392596   5.025544
    22  C    4.358734   6.573679   1.425693   3.908391   6.275406
    23  C    2.492671   2.436733   3.888038   1.399403   1.408389
    24  C    6.590982   8.562594   3.775060   5.810059   7.966628
    25  C    5.019011   6.557882   2.940781   3.892746   5.744993
    26  C    4.362491   4.962943   3.916790   2.945972   3.810434
    27  C    8.962595  10.775355   6.222697   8.046651  10.015021
    28  C    7.479642   8.924347   5.198154   6.326571   7.981184
    29  C    6.598879   7.420201   5.240374   5.227950   6.246993
    30  H    9.781418  11.463882   7.137786   8.775899  10.609076
    31  H    8.445146   9.746938   6.265256   7.233295   8.717635
    32  H    7.674083   8.390018   6.297265   6.292186   7.161782
    33  H    6.420283   6.503057   6.042436   5.011272   5.151196
    34  H    4.674564   4.122601   5.459074   3.442796   2.722120
    35  H    3.937739   2.162852   6.007006   3.396567   1.087858
    36  H    3.425806   1.090433   6.260611   3.842921   2.155783
    37  H    2.179934   2.157638   4.989943   3.412245   3.431536
    38  H    2.170366   4.125767   3.424015   3.441635   4.917037
    39  H    4.174595   6.480378   3.393630   4.984985   7.016659
    40  H    5.944294   8.380265   3.858347   6.280475   8.602492
    41  H    7.361986   9.747743   4.605744   7.233105   9.630184
    42  H    9.217263  11.469510   6.294340   8.780953  11.101396
    43  H   10.473252  12.489141   7.580070   9.736606  11.861029
    44  Cr   2.514078   4.271421   1.520768   1.518886   3.785248
                   16         17         18         19         20
    16  C    0.000000
    17  C    2.485512   0.000000
    18  C    4.938261   2.455081   0.000000
    19  C    2.481984   4.252426   6.528269   0.000000
    20  C    2.504399   2.440509   4.290347   2.462758   0.000000
    21  C    4.304741   2.437089   2.503449   4.933121   2.470372
    22  C    1.438870   2.942810   5.180901   3.788064   3.833747
    23  C    5.192661   2.935855   1.470579   7.186729   5.222684
    24  C    1.420659   3.765651   6.206124   1.442866   2.865550
    25  C    1.445410   1.402848   3.765133   2.850189   1.441867
    26  C    3.820206   1.426147   1.398684   5.171023   2.892168
    27  C    3.767979   5.672637   7.931374   1.420217   3.764357
    28  C    2.863635   3.725440   5.697232   1.421504   1.407118
    29  C    3.803983   2.782497   3.750437   3.797070   1.441528
    30  H    4.648903   6.281678   8.389465   2.172295   4.107245
    31  H    3.951138   4.601681   6.322188   2.169880   2.164306
    32  H    4.672467   3.872024   4.640564   4.128595   2.173813
    33  H    5.392488   3.424580   2.742016   5.901657   3.455937
    34  H    5.916645   3.438077   1.086640   7.303502   4.940291
    35  H    7.336691   4.975492   2.764834   9.200506   7.044127
    36  H    8.232313   6.261550   4.674606  10.449748   8.624118
    37  H    7.357432   6.026833   5.404425   9.790021   8.457666
    38  H    5.910283   5.454775   5.926611   8.385568   7.650526
    39  H    5.371131   6.012618   7.338298   7.619749   7.658004
    40  H    4.657593   6.276695   8.231075   6.343439   7.161370
    41  H    3.945437   6.253725   8.595604   4.659350   6.229195
    42  H    4.650652   7.131243   9.586220   3.934548   6.202120
    43  H    5.347210   7.568911   9.927452   3.435194   5.878540
    44  Cr   2.870516   1.521816   2.852171   5.168048   3.827702
                   21         22         23         24         25
    21  C    0.000000
    22  C    5.212200   0.000000
    23  C    3.866213   5.019328   0.000000
    24  C    5.149740   2.460994   6.580663   0.000000
    25  C    2.859332   2.523375   4.336608   2.471643   0.000000
    26  C    1.446686   4.367256   2.526211   4.975000   2.503379
    27  C    6.209730   4.927458   8.606688   2.466750   4.270293
    28  C    3.760134   4.302262   6.591931   2.478382   2.460666
    29  C    1.378134   4.995866   4.983525   4.306288   2.472497
    30  H    6.424725   5.900999   9.205902   3.453156   4.906118
    31  H    4.108464   5.389641   7.359573   3.459524   3.448963
    32  H    2.141673   5.954324   5.958936   4.931118   3.450066
    33  H    1.087765   6.273498   4.209832   6.212441   3.947082
    34  H    2.745554   6.246909   2.187052   7.123097   4.653743
    35  H    5.157248   7.187711   2.173705   8.703933   6.369026
    36  H    7.177451   7.648594   3.416803   9.652967   7.628827
    37  H    7.693582   6.406663   3.934191   8.726267   7.191432
    38  H    7.665131   4.660445   4.656499   7.118556   6.230015
    39  H    8.442686   3.932497   6.375212   6.198352   6.243000
    40  H    8.627657   3.431325   7.644196   4.921791   5.939393
    41  H    8.249863   3.433431   8.428934   3.455707   5.390668
    42  H    8.583361   4.896006   9.772978   3.455069   5.913066
    43  H    8.341529   6.170505  10.462406   3.926552   6.181438
    44  Cr   3.830981   2.518749   2.500606   4.291174   2.504951
                   26         27         28         29         30
    26  C    0.000000
    27  C    6.561941   0.000000
    28  C    4.299236   2.475695   0.000000
    29  C    2.457539   4.972761   2.497095   0.000000
    30  H    6.994338   1.087314   2.704937   5.094978   0.000000
    31  H    4.936662   2.699466   1.087579   2.735092   2.471775
    32  H    3.446653   5.081500   2.712371   1.089672   4.968147
    33  H    2.186692   7.115876   4.641125   2.146042   7.223457
    34  H    2.156430   8.676713   6.331880   4.114893   9.036005
    35  H    4.159535  10.616805   8.448700   6.476770  11.128451
    36  H    5.922796  11.858093   9.973401   8.375188  12.534359
    37  H    6.264605  11.124009   9.651587   8.627343  11.957111
    38  H    6.250952   9.585022   8.594969   8.237264  10.536344
    39  H    7.198092   8.565802   8.234720   8.621736   9.615927
    40  H    7.667001   6.965372   7.313009   8.406212   8.052180
    41  H    7.666335   4.889524   5.913252   7.640264   5.957989
    42  H    8.409921   3.418871   5.356050   7.626243   4.308809
    43  H    8.591166   2.157066   4.630332   7.126310   2.476851
    44  Cr   2.523808   6.549668   4.965564   4.304293   7.313554
                   31         32         33         34         35
    31  H    0.000000
    32  H    2.496395   0.000000
    33  H    4.807736   2.474965   0.000000
    34  H    6.819030   4.826535   2.535043   0.000000
    35  H    9.086236   7.286644   5.050732   2.515735   0.000000
    36  H   10.771199   9.309754   7.291866   4.810538   2.469679
    37  H   10.602840   9.678750   8.138325   5.989395   4.313971
    38  H    9.645392   9.326792   8.399724   6.828229   5.986367
    39  H    9.322134   9.664306   9.370173   8.375186   8.104061
    40  H    8.353591   9.323704   9.674439   9.317372   9.653530
    41  H    6.821082   8.359912   9.337627   9.647684  10.584273
    42  H    5.960231   8.058527   9.629502  10.543609  11.940448
    43  H    4.783391   7.222051   9.266650  10.733195  12.544387
    44  Cr   5.938294   5.393840   4.704536   3.938308   4.670548
                   36         37         38         39         40
    36  H    0.000000
    37  H    2.475765   0.000000
    38  H    4.831693   2.543256   0.000000
    39  H    7.286277   5.055085   2.511858   0.000000
    40  H    9.312676   7.302763   4.814391   2.477639   0.000000
    41  H   10.779885   9.112436   6.816188   4.811421   2.498633
    42  H   12.544279  11.159264   9.038241   7.229571   4.974639
    43  H   13.579505  12.569904  10.732866   9.267523   7.227345
    44  Cr   5.361804   4.688550   3.932971   4.676166   5.379083
                   41         42         43         44
    41  H    0.000000
    42  H    2.476061   0.000000
    43  H    4.788975   2.481433   0.000000
    44  Cr   5.935926   7.317441   8.217723   0.000000
 Stoichiometry    C29H14Cr
 Framework group  C1[X(C29H14Cr)]
 Deg. of freedom   126
 Full point group                 C1      NOp   1
 Largest Abelian subgroup         C1      NOp   1
 Largest concise Abelian subgroup C1      NOp   1
                         Standard orientation:                         
 ---------------------------------------------------------------------
 Center     Atomic      Atomic             Coordinates (Angstroms)
 Number     Number       Type             X           Y           Z
 ---------------------------------------------------------------------
      1          6           0        0.552379   -3.734029   -0.000065
      2          6           0       -0.820385   -3.721851   -0.000280
      3          6           0       -1.572913   -2.493875   -0.000303
      4          6           0       -3.696734   -1.251860    0.000030
      5          6           0       -5.811659   -0.004451    0.000512
      6          6           0       -2.995370   -2.473461   -0.000051
      7          6           0       -5.127547   -1.218764    0.000320
      8          6           0        2.745259   -2.465928    0.000295
      9          6           0        4.919241   -1.224334    0.000251
     10          6           0        1.292098   -2.497531    0.000093
     11          6           0        3.496223   -1.256105    0.000312
     12          6           0        5.587879    0.000393    0.000152
     13          6           0        0.562055   -1.323876   -0.000108
     14          6           0        2.835344   -0.001346   -0.000001
     15          6           0        4.896333    1.226465    0.000092
     16          6           0       -1.554055   -0.005062   -0.000309
     17          6           0        0.553123    1.313107   -0.000254
     18          6           0        2.710548    2.484833   -0.000021
     19          6           0       -3.698744    1.244158    0.000001
     20          6           0       -1.579775    2.499205   -0.000162
     21          6           0        0.550428    3.750194    0.000040
     22          6           0       -0.862497   -1.266845   -0.000319
     23          6           0        3.487980    1.236553    0.000116
     24          6           0       -2.974713   -0.003897   -0.000154
     25          6           0       -0.848582    1.256492   -0.000328
     26          6           0        1.312316    2.520386   -0.000190
     27          6           0       -5.118683    1.216041    0.000177
     28          6           0       -2.986675    2.474455    0.000031
     29          6           0       -0.827542    3.728899    0.000046
     30          1           0       -5.672306    2.151858    0.000069
     31          1           0       -3.543802    3.408499    0.000203
     32          1           0       -1.386323    4.664393    0.000317
     33          1           0        1.088446    4.695588    0.000039
     34          1           0        3.275226    3.413232    0.000121
     35          1           0        5.456143    2.159229    0.000033
     36          1           0        6.678238    0.013117   -0.000003
     37          1           0        5.482352   -2.154662    0.000207
     38          1           0        3.273345   -3.414996    0.000293
     39          1           0        1.100125   -4.674578   -0.000149
     40          1           0       -1.377467   -4.659306   -0.000080
     41          1           0       -3.542842   -3.412583    0.000114
     42          1           0       -5.676912   -2.156948    0.000516
     43          1           0       -6.901261    0.001403    0.000733
     44         24           0        1.316460   -0.003419   -0.000082
 ---------------------------------------------------------------------
 Rotational constants (GHZ):      0.3074629      0.1349853      0.0938030
 Standard basis: VSTO-6G (5D, 7F)
 There are   140 symmetry adapted cartesian basis functions of A   symmetry.
 There are   139 symmetry adapted basis functions of A   symmetry.
   139 basis functions,   840 primitive gaussians,   140 cartesian basis functions
    68 alpha electrons       68 beta electrons
       nuclear repulsion energy      1296.4036682343 Hartrees.
 Integral buffers will be    262144 words long.
 Regular integral format.
 Two-electron integral symmetry is turned off.
 Do NDO integrals.
 One-electron integrals computed using PRISM.
 NBasis=   139 RedAO= F EigKep=  0.00D+00  NBF=   139
 NBsUse=   139 1.00D-04 EigRej=  0.00D+00 NBFU=   139
 Simple Huckel Guess.
 Keep J ints in memory in canonical form, NReq=2092071.
 Gradient too large for Newton-Raphson -- use scaled steepest descent instead.
     Minimum is close to point  4 DX=  2.15D-02 DF= -2.15D-03 DXR=  3.46D-02 DFR=  1.11D-03 which will be used.
 Gradient too large for Newton-Raphson -- use scaled steepest descent instead.
     Accept linear search using points  4 and  5.
 Gradient too large for Newton-Raphson -- use scaled steepest descent instead.
 Gradient too large for Newton-Raphson -- use scaled steepest descent instead.
     Accept linear search using points  1 and  2.
 Gradient too large for Newton-Raphson -- use scaled steepest descent instead.
     Accept linear search using points  1 and  2.
     Minimum is close to point  2 DX= -3.97D-03 DF= -2.87D-07 DXR=  3.06D-03 DFR=  1.45D-05 which will be used.
 Gradient too large for Newton-Raphson -- use scaled steepest descent instead.
     Accept linear search using points  1 and  2.
     Minimum is close to point  2 DX= -5.03D-02 DF= -3.79D-05 DXR=  4.38D-02 DFR=  2.60D-03 which will be used.
 Gradient too large for Newton-Raphson -- use scaled steepest descent instead.
     Minimum is close to point  2 DX=  1.31D-02 DF= -1.32D-06 DXR=  1.08D-02 DFR=  1.17D-04 which will be used.
 Gradient too large for Newton-Raphson -- use scaled steepest descent instead.
     Minimum is close to point  2 DX=  3.85D-02 DF= -8.20D-06 DXR=  3.11D-02 DFR=  9.68D-04 which will be used.
 Gradient too large for Newton-Raphson -- use scaled steepest descent instead.
 Gradient too large for Newton-Raphson -- use scaled steepest descent instead.
     Accept linear search using points  1 and  2.
     Minimum is close to point  2 DX= -1.09D-01 DF= -5.69D-05 DXR=  9.15D-02 DFR=  1.22D-02 which will be used.
 Gradient too large for Newton-Raphson -- use scaled steepest descent instead.
     Accept linear search using points  1 and  2.
 Gradient too large for Newton-Raphson -- use scaled steepest descent instead.
     Minimum is close to point  2 DX=  2.30D-02 DF= -8.86D-07 DXR=  1.88D-02 DFR=  3.53D-04 which will be used.
 Gradient too large for Newton-Raphson -- use scaled steepest descent instead.
     Minimum is close to point  2 DX=  9.99D-02 DF= -1.08D-05 DXR=  7.69D-02 DFR=  5.95D-03 which will be used.
 Gradient too large for Newton-Raphson -- use scaled steepest descent instead.
     Minimum is close to point  2 DX=  6.23D-02 DF= -2.77D-06 DXR=  4.57D-02 DFR=  2.10D-03 which will be used.
 Gradient too large for Newton-Raphson -- use scaled steepest descent instead.
     Accept linear search using points  1 and  2.
     Minimum is close to point  2 DX= -3.87D-02 DF= -1.35D-06 DXR=  3.07D-02 DFR=  1.43D-03 which will be used.
 Gradient too large for Newton-Raphson -- use scaled steepest descent instead.
     Accept linear search using points  1 and  2.
     Minimum is close to point  2 DX= -1.13D-01 DF= -9.05D-06 DXR=  9.55D-02 DFR=  1.32D-02 which will be used.
 Gradient too large for Newton-Raphson -- use scaled steepest descent instead.
     Accept linear search using points  1 and  2.
 Gradient too large for Newton-Raphson -- use scaled steepest descent instead.
 Gradient too large for Newton-Raphson -- use scaled steepest descent instead.
     Accept linear search using points  1 and  2.
     Minimum is close to point  2 DX= -3.00D-02 DF= -2.65D-07 DXR=  2.56D-02 DFR=  8.91D-04 which will be used.
 LinEq1:  Iter=  0 NonCon=     1 RMS=3.06D-04 Max=1.23D-02 NDo=     1
 AX will form     1 AO Fock derivatives at one time.
 LinEq1:  Iter=  1 NonCon=     1 RMS=2.03D-04 Max=4.22D-03 NDo=     1
 LinEq1:  Iter=  2 NonCon=     1 RMS=4.34D-05 Max=1.37D-03 NDo=     1
 LinEq1:  Iter=  3 NonCon=     1 RMS=1.33D-05 Max=3.03D-04 NDo=     1
 LinEq1:  Iter=  4 NonCon=     1 RMS=6.56D-06 Max=1.43D-04 NDo=     1
 LinEq1:  Iter=  5 NonCon=     1 RMS=3.01D-06 Max=1.05D-04 NDo=     1
 LinEq1:  Iter=  6 NonCon=     1 RMS=1.28D-06 Max=3.82D-05 NDo=     1
 LinEq1:  Iter=  7 NonCon=     1 RMS=4.99D-07 Max=1.14D-05 NDo=     1
 LinEq1:  Iter=  8 NonCon=     1 RMS=2.02D-07 Max=5.12D-06 NDo=     1
 LinEq1:  Iter=  9 NonCon=     1 RMS=9.42D-08 Max=2.18D-06 NDo=     1
 LinEq1:  Iter= 10 NonCon=     1 RMS=3.17D-08 Max=4.83D-07 NDo=     1
 LinEq1:  Iter= 11 NonCon=     1 RMS=9.61D-09 Max=1.65D-07 NDo=     1
 LinEq1:  Iter= 12 NonCon=     0 RMS=3.38D-09 Max=6.85D-08 NDo=     1
 Linear equations converged to 9.826D-09 9.826D-08 after    12 iterations.
 Incorrect curvature in search direction -- initial direction reversed.
     Accept linear search using points  1 and  2.
 Gradient too large for Newton-Raphson -- use scaled steepest descent instead.
     Accept linear search using points  2 and  3.
 Gradient too large for Newton-Raphson -- use scaled steepest descent instead.
     Accept linear search using points  1 and  2.
 Gradient too large for Newton-Raphson -- use scaled steepest descent instead.
 Gradient too large for Newton-Raphson -- use scaled steepest descent instead.
     Accept linear search using points  1 and  2.
 LinEq1:  Iter=  0 NonCon=     1 RMS=2.94D-04 Max=1.24D-02 NDo=     1
 LinEq1:  Iter=  1 NonCon=     1 RMS=2.02D-04 Max=4.66D-03 NDo=     1
 LinEq1:  Iter=  2 NonCon=     1 RMS=3.31D-05 Max=1.11D-03 NDo=     1
 LinEq1:  Iter=  3 NonCon=     1 RMS=5.97D-06 Max=2.14D-04 NDo=     1
 LinEq1:  Iter=  4 NonCon=     1 RMS=3.82D-06 Max=8.85D-05 NDo=     1
 LinEq1:  Iter=  5 NonCon=     1 RMS=1.23D-06 Max=3.70D-05 NDo=     1
 LinEq1:  Iter=  6 NonCon=     1 RMS=4.19D-07 Max=8.60D-06 NDo=     1
 LinEq1:  Iter=  7 NonCon=     1 RMS=1.63D-07 Max=3.23D-06 NDo=     1
 LinEq1:  Iter=  8 NonCon=     1 RMS=4.58D-08 Max=8.28D-07 NDo=     1
 LinEq1:  Iter=  9 NonCon=     1 RMS=1.49D-08 Max=2.30D-07 NDo=     1
 LinEq1:  Iter= 10 NonCon=     0 RMS=5.31D-09 Max=8.81D-08 NDo=     1
 Linear equations converged to 9.826D-09 9.826D-08 after    10 iterations.
 Incorrect curvature in search direction -- initial direction reversed.
 Gradient too large for Newton-Raphson -- use scaled steepest descent instead.
     Minimum is close to point  2 DX=  1.41D-01 DF= -9.39D-06 DXR=  9.77D-02 DFR=  9.64D-03 which will be used.
 Gradient too large for Newton-Raphson -- use scaled steepest descent instead.
     Minimum is close to point  2 DX=  1.07D-02 DF= -3.27D-08 DXR=  8.86D-03 DFR=  7.85D-05 which will be used.
 Gradient too large for Newton-Raphson -- use scaled steepest descent instead.
     Accept linear search using points  1 and  2.
     Minimum is close to point  2 DX= -1.93D-02 DF= -1.06D-07 DXR=  1.51D-02 DFR=  3.52D-04 which will be used.
 LinEq1:  Iter=  0 NonCon=     1 RMS=2.74D-04 Max=9.41D-03 NDo=     1
 LinEq1:  Iter=  1 NonCon=     1 RMS=2.11D-04 Max=6.67D-03 NDo=     1
 LinEq1:  Iter=  2 NonCon=     1 RMS=4.14D-05 Max=9.92D-04 NDo=     1
 LinEq1:  Iter=  3 NonCon=     1 RMS=2.97D-05 Max=7.00D-04 NDo=     1
 LinEq1:  Iter=  4 NonCon=     1 RMS=9.44D-06 Max=3.05D-04 NDo=     1
 LinEq1:  Iter=  5 NonCon=     1 RMS=4.30D-06 Max=9.56D-05 NDo=     1
 LinEq1:  Iter=  6 NonCon=     1 RMS=1.50D-06 Max=2.99D-05 NDo=     1
 LinEq1:  Iter=  7 NonCon=     1 RMS=4.23D-07 Max=6.53D-06 NDo=     1
 LinEq1:  Iter=  8 NonCon=     1 RMS=1.44D-07 Max=2.21D-06 NDo=     1
 LinEq1:  Iter=  9 NonCon=     1 RMS=4.43D-08 Max=1.11D-06 NDo=     1
 LinEq1:  Iter= 10 NonCon=     1 RMS=1.70D-08 Max=3.24D-07 NDo=     1
 LinEq1:  Iter= 11 NonCon=     1 RMS=5.73D-09 Max=1.09D-07 NDo=     1
 LinEq1:  Iter= 12 NonCon=     0 RMS=1.32D-09 Max=2.65D-08 NDo=     1
 Linear equations converged to 9.826D-09 9.826D-08 after    12 iterations.
 Incorrect curvature in search direction -- initial direction reversed.
 Gradient too large for Newton-Raphson -- use scaled steepest descent instead.
 Gradient too large for Newton-Raphson -- use scaled steepest descent instead.
     Accept linear search using points  1 and  2.
 Gradient too large for Newton-Raphson -- use scaled steepest descent instead.
     Accept linear search using points  1 and  2.
     Minimum is close to point  2 DX= -1.19D-01 DF= -4.57D-06 DXR=  9.29D-02 DFR=  1.36D-02 which will be used.
 Gradient too large for Newton-Raphson -- use scaled steepest descent instead.
     Accept linear search using points  1 and  2.
 LinEq1:  Iter=  0 NonCon=     1 RMS=2.93D-04 Max=9.92D-03 NDo=     1
 LinEq1:  Iter=  1 NonCon=     1 RMS=2.25D-04 Max=5.87D-03 NDo=     1
 LinEq1:  Iter=  2 NonCon=     1 RMS=2.42D-05 Max=6.07D-04 NDo=     1
 LinEq1:  Iter=  3 NonCon=     1 RMS=1.65D-05 Max=4.19D-04 NDo=     1
 LinEq1:  Iter=  4 NonCon=     1 RMS=3.82D-06 Max=1.19D-04 NDo=     1
 LinEq1:  Iter=  5 NonCon=     1 RMS=1.16D-06 Max=2.27D-05 NDo=     1
 LinEq1:  Iter=  6 NonCon=     1 RMS=4.59D-07 Max=1.01D-05 NDo=     1
 LinEq1:  Iter=  7 NonCon=     1 RMS=1.55D-07 Max=3.36D-06 NDo=     1
 LinEq1:  Iter=  8 NonCon=     1 RMS=5.50D-08 Max=1.22D-06 NDo=     1
 LinEq1:  Iter=  9 NonCon=     1 RMS=1.96D-08 Max=5.57D-07 NDo=     1
 LinEq1:  Iter= 10 NonCon=     1 RMS=6.04D-09 Max=1.45D-07 NDo=     1
 LinEq1:  Iter= 11 NonCon=     0 RMS=1.50D-09 Max=2.11D-08 NDo=     1
 Linear equations converged to 9.826D-09 9.826D-08 after    11 iterations.
 Gradient too large for Newton-Raphson -- use scaled steepest descent instead.
 Gradient too large for Newton-Raphson -- use scaled steepest descent instead.
     Accept linear search using points  1 and  2.
 LinEq1:  Iter=  0 NonCon=     1 RMS=1.89D-04 Max=5.06D-03 NDo=     1
 LinEq1:  Iter=  1 NonCon=     1 RMS=1.40D-04 Max=4.98D-03 NDo=     1
 LinEq1:  Iter=  2 NonCon=     1 RMS=2.75D-05 Max=6.48D-04 NDo=     1
 LinEq1:  Iter=  3 NonCon=     1 RMS=6.99D-06 Max=1.44D-04 NDo=     1
 LinEq1:  Iter=  4 NonCon=     1 RMS=3.62D-06 Max=7.77D-05 NDo=     1
 LinEq1:  Iter=  5 NonCon=     1 RMS=8.68D-07 Max=1.56D-05 NDo=     1
 LinEq1:  Iter=  6 NonCon=     1 RMS=4.09D-07 Max=6.76D-06 NDo=     1
 LinEq1:  Iter=  7 NonCon=     1 RMS=1.44D-07 Max=2.94D-06 NDo=     1
 LinEq1:  Iter=  8 NonCon=     1 RMS=6.22D-08 Max=1.21D-06 NDo=     1
 LinEq1:  Iter=  9 NonCon=     1 RMS=2.43D-08 Max=5.80D-07 NDo=     1
 LinEq1:  Iter= 10 NonCon=     1 RMS=8.73D-09 Max=2.14D-07 NDo=     1
 LinEq1:  Iter= 11 NonCon=     0 RMS=3.13D-09 Max=5.22D-08 NDo=     1
 Linear equations converged to 9.826D-09 9.826D-08 after    11 iterations.
     Accept linear search using points  1 and  2.
 LinEq1:  Iter=  0 NonCon=     1 RMS=1.18D-04 Max=2.51D-03 NDo=     1
 LinEq1:  Iter=  1 NonCon=     1 RMS=6.34D-05 Max=2.05D-03 NDo=     1
 LinEq1:  Iter=  2 NonCon=     1 RMS=2.26D-05 Max=4.98D-04 NDo=     1
 LinEq1:  Iter=  3 NonCon=     1 RMS=8.58D-06 Max=1.45D-04 NDo=     1
 LinEq1:  Iter=  4 NonCon=     1 RMS=3.41D-06 Max=6.97D-05 NDo=     1
 LinEq1:  Iter=  5 NonCon=     1 RMS=1.20D-06 Max=2.22D-05 NDo=     1
 LinEq1:  Iter=  6 NonCon=     1 RMS=4.43D-07 Max=8.48D-06 NDo=     1
 LinEq1:  Iter=  7 NonCon=     1 RMS=1.55D-07 Max=3.39D-06 NDo=     1
 LinEq1:  Iter=  8 NonCon=     1 RMS=5.21D-08 Max=6.73D-07 NDo=     1
 LinEq1:  Iter=  9 NonCon=     1 RMS=2.39D-08 Max=4.37D-07 NDo=     1
 LinEq1:  Iter= 10 NonCon=     1 RMS=8.96D-09 Max=1.15D-07 NDo=     1
 LinEq1:  Iter= 11 NonCon=     0 RMS=3.09D-09 Max=6.21D-08 NDo=     1
 Linear equations converged to 9.826D-09 9.826D-08 after    11 iterations.
     Accept linear search using points  1 and  2.
 LinEq1:  Iter=  0 NonCon=     1 RMS=8.04D-05 Max=2.15D-03 NDo=     1
 LinEq1:  Iter=  1 NonCon=     1 RMS=4.12D-05 Max=1.18D-03 NDo=     1
 LinEq1:  Iter=  2 NonCon=     1 RMS=1.60D-05 Max=4.04D-04 NDo=     1
 LinEq1:  Iter=  3 NonCon=     1 RMS=6.30D-06 Max=1.36D-04 NDo=     1
 LinEq1:  Iter=  4 NonCon=     1 RMS=2.32D-06 Max=4.02D-05 NDo=     1
 LinEq1:  Iter=  5 NonCon=     1 RMS=9.23D-07 Max=1.38D-05 NDo=     1
 LinEq1:  Iter=  6 NonCon=     1 RMS=2.52D-07 Max=4.74D-06 NDo=     1
 LinEq1:  Iter=  7 NonCon=     1 RMS=8.89D-08 Max=2.03D-06 NDo=     1
 LinEq1:  Iter=  8 NonCon=     1 RMS=3.38D-08 Max=5.22D-07 NDo=     1
 LinEq1:  Iter=  9 NonCon=     1 RMS=1.41D-08 Max=3.18D-07 NDo=     1
 LinEq1:  Iter= 10 NonCon=     0 RMS=5.53D-09 Max=9.74D-08 NDo=     1
 Linear equations converged to 9.826D-09 9.826D-08 after    10 iterations.
 LinEq1:  Iter=  0 NonCon=     1 RMS=8.68D-05 Max=1.78D-03 NDo=     1
 LinEq1:  Iter=  1 NonCon=     1 RMS=4.56D-05 Max=1.28D-03 NDo=     1
 LinEq1:  Iter=  2 NonCon=     1 RMS=1.59D-05 Max=2.61D-04 NDo=     1
 LinEq1:  Iter=  3 NonCon=     1 RMS=6.53D-06 Max=1.41D-04 NDo=     1
 LinEq1:  Iter=  4 NonCon=     1 RMS=2.32D-06 Max=6.22D-05 NDo=     1
 LinEq1:  Iter=  5 NonCon=     1 RMS=1.14D-06 Max=1.63D-05 NDo=     1
 LinEq1:  Iter=  6 NonCon=     1 RMS=2.36D-07 Max=5.77D-06 NDo=     1
 LinEq1:  Iter=  7 NonCon=     1 RMS=1.08D-07 Max=2.56D-06 NDo=     1
 LinEq1:  Iter=  8 NonCon=     1 RMS=4.55D-08 Max=1.18D-06 NDo=     1
 LinEq1:  Iter=  9 NonCon=     1 RMS=1.44D-08 Max=2.36D-07 NDo=     1
 LinEq1:  Iter= 10 NonCon=     0 RMS=3.26D-09 Max=5.78D-08 NDo=     1
 Linear equations converged to 9.826D-09 9.826D-08 after    10 iterations.
 Incorrect curvature in search direction -- initial direction reversed.
     Accept linear search using points  1 and  2.
 LinEq1:  Iter=  0 NonCon=     1 RMS=2.03D-04 Max=3.44D-03 NDo=     1
 LinEq1:  Iter=  1 NonCon=     1 RMS=1.07D-04 Max=3.48D-03 NDo=     1
 LinEq1:  Iter=  2 NonCon=     1 RMS=3.51D-05 Max=6.65D-04 NDo=     1
 LinEq1:  Iter=  3 NonCon=     1 RMS=1.47D-05 Max=2.58D-04 NDo=     1
 LinEq1:  Iter=  4 NonCon=     1 RMS=5.30D-06 Max=1.20D-04 NDo=     1
 LinEq1:  Iter=  5 NonCon=     1 RMS=2.50D-06 Max=4.08D-05 NDo=     1
 LinEq1:  Iter=  6 NonCon=     1 RMS=4.88D-07 Max=1.00D-05 NDo=     1
 LinEq1:  Iter=  7 NonCon=     1 RMS=2.19D-07 Max=5.35D-06 NDo=     1
 LinEq1:  Iter=  8 NonCon=     1 RMS=9.47D-08 Max=2.75D-06 NDo=     1
 LinEq1:  Iter=  9 NonCon=     1 RMS=3.21D-08 Max=7.45D-07 NDo=     1
 LinEq1:  Iter= 10 NonCon=     0 RMS=6.55D-09 Max=9.71D-08 NDo=     1
 Linear equations converged to 9.826D-09 9.826D-08 after    10 iterations.
 Incorrect curvature in search direction -- initial direction reversed.
     Minimum is close to point  3 DX= -2.54D-02 DF= -3.19D-06 DXR=  9.24D-02 DFR=  8.62D-03 which will be used.
 Gradient too large for Newton-Raphson -- use scaled steepest descent instead.
     Accept linear search using points  1 and  2.
 LinEq1:  Iter=  0 NonCon=     1 RMS=1.73D-04 Max=6.51D-03 NDo=     1
 LinEq1:  Iter=  1 NonCon=     1 RMS=1.08D-04 Max=1.97D-03 NDo=     1
 LinEq1:  Iter=  2 NonCon=     1 RMS=3.57D-05 Max=9.11D-04 NDo=     1
 LinEq1:  Iter=  3 NonCon=     1 RMS=8.83D-06 Max=1.76D-04 NDo=     1
 LinEq1:  Iter=  4 NonCon=     1 RMS=4.90D-06 Max=9.29D-05 NDo=     1
 LinEq1:  Iter=  5 NonCon=     1 RMS=9.97D-07 Max=2.01D-05 NDo=     1
 LinEq1:  Iter=  6 NonCon=     1 RMS=2.97D-07 Max=7.77D-06 NDo=     1
 LinEq1:  Iter=  7 NonCon=     1 RMS=9.35D-08 Max=2.18D-06 NDo=     1
 LinEq1:  Iter=  8 NonCon=     1 RMS=3.86D-08 Max=6.03D-07 NDo=     1
 LinEq1:  Iter=  9 NonCon=     1 RMS=1.19D-08 Max=2.15D-07 NDo=     1
 LinEq1:  Iter= 10 NonCon=     0 RMS=4.79D-09 Max=7.76D-08 NDo=     1
 Linear equations converged to 9.826D-09 9.826D-08 after    10 iterations.
 Incorrect curvature in search direction -- initial direction reversed.
 Gradient too large for Newton-Raphson -- use scaled steepest descent instead.
     Accept linear search using points  2 and  3.
     Minimum is close to point  3 DX= -5.49D-02 DF= -7.36D-07 DXR=  2.97D-02 DFR=  8.83D-04 which will be used.
 Gradient too large for Newton-Raphson -- use scaled steepest descent instead.
     Accept linear search using points  1 and  2.
     Minimum is close to point  2 DX= -4.14D-02 DF= -4.74D-07 DXR=  3.29D-02 DFR=  1.64D-03 which will be used.
 LinEq1:  Iter=  0 NonCon=     1 RMS=2.18D-04 Max=5.29D-03 NDo=     1
 LinEq1:  Iter=  1 NonCon=     1 RMS=1.47D-04 Max=3.10D-03 NDo=     1
 LinEq1:  Iter=  2 NonCon=     1 RMS=3.18D-05 Max=6.23D-04 NDo=     1
 LinEq1:  Iter=  3 NonCon=     1 RMS=1.79D-05 Max=4.09D-04 NDo=     1
 LinEq1:  Iter=  4 NonCon=     1 RMS=3.51D-06 Max=5.61D-05 NDo=     1
 LinEq1:  Iter=  5 NonCon=     1 RMS=1.67D-06 Max=5.00D-05 NDo=     1
 LinEq1:  Iter=  6 NonCon=     1 RMS=6.28D-07 Max=1.77D-05 NDo=     1
 LinEq1:  Iter=  7 NonCon=     1 RMS=2.90D-07 Max=5.85D-06 NDo=     1
 LinEq1:  Iter=  8 NonCon=     1 RMS=1.03D-07 Max=1.82D-06 NDo=     1
 LinEq1:  Iter=  9 NonCon=     1 RMS=4.63D-08 Max=1.08D-06 NDo=     1
 LinEq1:  Iter= 10 NonCon=     1 RMS=2.06D-08 Max=5.29D-07 NDo=     1
 LinEq1:  Iter= 11 NonCon=     1 RMS=7.49D-09 Max=1.40D-07 NDo=     1
 LinEq1:  Iter= 12 NonCon=     0 RMS=1.67D-09 Max=1.92D-08 NDo=     1
 Linear equations converged to 9.826D-09 9.826D-08 after    12 iterations.
 LinEq1:  Iter=  0 NonCon=     1 RMS=1.79D-04 Max=4.16D-03 NDo=     1
 LinEq1:  Iter=  1 NonCon=     1 RMS=1.15D-04 Max=2.90D-03 NDo=     1
 LinEq1:  Iter=  2 NonCon=     1 RMS=3.87D-05 Max=8.80D-04 NDo=     1
 LinEq1:  Iter=  3 NonCon=     1 RMS=1.76D-05 Max=5.69D-04 NDo=     1
 LinEq1:  Iter=  4 NonCon=     1 RMS=5.70D-06 Max=8.31D-05 NDo=     1
 LinEq1:  Iter=  5 NonCon=     1 RMS=2.15D-06 Max=3.69D-05 NDo=     1
 LinEq1:  Iter=  6 NonCon=     1 RMS=8.68D-07 Max=1.33D-05 NDo=     1
 LinEq1:  Iter=  7 NonCon=     1 RMS=3.56D-07 Max=9.73D-06 NDo=     1
 LinEq1:  Iter=  8 NonCon=     1 RMS=1.57D-07 Max=5.48D-06 NDo=     1
 LinEq1:  Iter=  9 NonCon=     1 RMS=4.92D-08 Max=1.54D-06 NDo=     1
 LinEq1:  Iter= 10 NonCon=     1 RMS=1.77D-08 Max=2.80D-07 NDo=     1
 LinEq1:  Iter= 11 NonCon=     0 RMS=6.35D-09 Max=6.91D-08 NDo=     1
 Linear equations converged to 9.826D-09 9.826D-08 after    11 iterations.
     Accept linear search using points  1 and  2.
 LinEq1:  Iter=  0 NonCon=     1 RMS=2.06D-04 Max=3.44D-03 NDo=     1
 LinEq1:  Iter=  1 NonCon=     1 RMS=1.15D-04 Max=2.75D-03 NDo=     1
 LinEq1:  Iter=  2 NonCon=     1 RMS=4.65D-05 Max=1.47D-03 NDo=     1
 LinEq1:  Iter=  3 NonCon=     1 RMS=1.61D-05 Max=5.27D-04 NDo=     1
 LinEq1:  Iter=  4 NonCon=     1 RMS=5.64D-06 Max=1.04D-04 NDo=     1
 LinEq1:  Iter=  5 NonCon=     1 RMS=1.96D-06 Max=3.70D-05 NDo=     1
 LinEq1:  Iter=  6 NonCon=     1 RMS=8.96D-07 Max=1.84D-05 NDo=     1
 LinEq1:  Iter=  7 NonCon=     1 RMS=3.37D-07 Max=1.13D-05 NDo=     1
 LinEq1:  Iter=  8 NonCon=     1 RMS=1.07D-07 Max=1.46D-06 NDo=     1
 LinEq1:  Iter=  9 NonCon=     1 RMS=5.44D-08 Max=1.40D-06 NDo=     1
 LinEq1:  Iter= 10 NonCon=     1 RMS=2.02D-08 Max=5.47D-07 NDo=     1
 LinEq1:  Iter= 11 NonCon=     1 RMS=7.43D-09 Max=1.15D-07 NDo=     1
 LinEq1:  Iter= 12 NonCon=     0 RMS=2.70D-09 Max=5.49D-08 NDo=     1
 Linear equations converged to 9.826D-09 9.826D-08 after    12 iterations.
 LinEq1:  Iter=  0 NonCon=     1 RMS=1.93D-04 Max=4.28D-03 NDo=     1
 LinEq1:  Iter=  1 NonCon=     1 RMS=1.11D-04 Max=3.82D-03 NDo=     1
 LinEq1:  Iter=  2 NonCon=     1 RMS=4.95D-05 Max=1.53D-03 NDo=     1
 LinEq1:  Iter=  3 NonCon=     1 RMS=1.78D-05 Max=2.90D-04 NDo=     1
 LinEq1:  Iter=  4 NonCon=     1 RMS=7.01D-06 Max=1.44D-04 NDo=     1
 LinEq1:  Iter=  5 NonCon=     1 RMS=2.99D-06 Max=4.84D-05 NDo=     1
 LinEq1:  Iter=  6 NonCon=     1 RMS=1.19D-06 Max=2.10D-05 NDo=     1
 LinEq1:  Iter=  7 NonCon=     1 RMS=3.33D-07 Max=7.30D-06 NDo=     1
 LinEq1:  Iter=  8 NonCon=     1 RMS=1.27D-07 Max=3.03D-06 NDo=     1
 LinEq1:  Iter=  9 NonCon=     1 RMS=4.85D-08 Max=9.82D-07 NDo=     1
 LinEq1:  Iter= 10 NonCon=     1 RMS=1.57D-08 Max=3.86D-07 NDo=     1
 LinEq1:  Iter= 11 NonCon=     1 RMS=7.80D-09 Max=1.43D-07 NDo=     1
 LinEq1:  Iter= 12 NonCon=     0 RMS=2.34D-09 Max=5.74D-08 NDo=     1
 Linear equations converged to 9.826D-09 9.826D-08 after    12 iterations.
 Incorrect curvature in search direction -- initial direction reversed.
     Minimum is close to point  3 DX=  4.62D-02 DF= -3.04D-07 DXR=  2.81D-02 DFR=  1.84D-03 which will be used.
 Gradient too large for Newton-Raphson -- use scaled steepest descent instead.
     Accept linear search using points  1 and  2.
     Minimum is close to point  2 DX= -1.32D-01 DF= -2.05D-05 DXR=  9.65D-02 DFR=  1.57D-02 which will be used.
 Gradient too large for Newton-Raphson -- use scaled steepest descent instead.
     Accept linear search using points  1 and  2.
 Gradient too large for Newton-Raphson -- use scaled steepest descent instead.
 Gradient too large for Newton-Raphson -- use scaled steepest descent instead.
     Accept linear search using points  1 and  2.
     Minimum is close to point  2 DX= -1.50D-02 DF= -9.06D-08 DXR=  1.27D-02 DFR=  2.20D-04 which will be used.
 Gradient too large for Newton-Raphson -- use scaled steepest descent instead.
     Minimum is close to point  2 DX=  1.00D-01 DF= -1.98D-06 DXR=  6.68D-02 DFR=  4.48D-03 which will be used.
 Gradient too large for Newton-Raphson -- use scaled steepest descent instead.
     Minimum is close to point  2 DX=  8.91D-02 DF= -2.00D-06 DXR=  6.41D-02 DFR=  4.13D-03 which will be used.
 Gradient too large for Newton-Raphson -- use scaled steepest descent instead.
     Minimum is close to point  2 DX=  1.01D-01 DF= -2.50D-06 DXR=  6.73D-02 DFR=  4.55D-03 which will be used.
 Gradient too large for Newton-Raphson -- use scaled steepest descent instead.
     Accept linear search using points  1 and  2.
     Minimum is close to point  2 DX= -8.33D-03 DF= -3.83D-08 DXR=  5.98D-03 DFR=  6.26D-05 which will be used.
 Gradient too large for Newton-Raphson -- use scaled steepest descent instead.
     Accept linear search using points  1 and  2.
     Minimum is close to point  2 DX= -5.80D-02 DF= -2.15D-06 DXR=  4.32D-02 DFR=  3.11D-03 which will be used.
 Gradient too large for Newton-Raphson -- use scaled steepest descent instead.
     Accept linear search using points  1 and  2.
     Minimum is close to point  2 DX= -1.16D-01 DF= -9.99D-06 DXR=  9.06D-02 DFR=  1.30D-02 which will be used.
 Gradient too large for Newton-Raphson -- use scaled steepest descent instead.
     Accept linear search using points  1 and  2.
     Minimum is close to point  2 DX= -1.17D-01 DF= -1.28D-05 DXR=  9.87D-02 DFR=  1.41D-02 which will be used.
 Gradient too large for Newton-Raphson -- use scaled steepest descent instead.
     Accept linear search using points  1 and  2.
     Minimum is close to point  2 DX= -1.95D-02 DF= -3.84D-07 DXR=  1.65D-02 DFR=  3.73D-04 which will be used.
 Gradient too large for Newton-Raphson -- use scaled steepest descent instead.
 Gradient too large for Newton-Raphson -- use scaled steepest descent instead.
     Accept linear search using points  1 and  2.
     Minimum is close to point  2 DX= -3.79D-02 DF= -1.78D-06 DXR=  3.00D-02 DFR=  1.37D-03 which will be used.
 Gradient too large for Newton-Raphson -- use scaled steepest descent instead.
     Accept linear search using points  1 and  2.
     Minimum is close to point  2 DX= -3.87D-02 DF= -2.00D-06 DXR=  2.84D-02 DFR=  1.36D-03 which will be used.
 Gradient too large for Newton-Raphson -- use scaled steepest descent instead.
     Accept linear search using points  1 and  2.
     Minimum is close to point  2 DX= -4.39D-02 DF= -3.05D-06 DXR=  3.49D-02 DFR=  1.84D-03 which will be used.
 Gradient too large for Newton-Raphson -- use scaled steepest descent instead.
     Minimum is close to point  2 DX=  7.02D-03 DF= -5.32D-08 DXR=  5.37D-03 DFR=  2.88D-05 which will be used.
 Gradient too large for Newton-Raphson -- use scaled steepest descent instead.
     Minimum is close to point  2 DX=  9.93D-02 DF= -1.02D-05 DXR=  7.10D-02 DFR=  5.06D-03 which will be used.
 Gradient too large for Newton-Raphson -- use scaled steepest descent instead.
     Minimum is close to point  2 DX=  1.15D-01 DF= -1.30D-05 DXR=  7.57D-02 DFR=  5.77D-03 which will be used.
 Gradient too large for Newton-Raphson -- use scaled steepest descent instead.
     Accept linear search using points  1 and  2.
     Minimum is close to point  2 DX= -4.57D-02 DF= -4.33D-06 DXR=  3.14D-02 DFR=  1.82D-03 which will be used.
 Gradient too large for Newton-Raphson -- use scaled steepest descent instead.
     Accept linear search using points  1 and  2.
 Gradient too large for Newton-Raphson -- use scaled steepest descent instead.
     Accept linear search using points  1 and  2.
     Minimum is close to point  2 DX= -9.86D-02 DF= -2.39D-05 DXR=  7.58D-02 DFR=  9.17D-03 which will be used.
 Gradient too large for Newton-Raphson -- use scaled steepest descent instead.
     Accept linear search using points  1 and  2.
     Minimum is close to point  2 DX= -1.01D-01 DF= -2.83D-05 DXR=  8.43D-02 DFR=  1.03D-02 which will be used.
 Gradient too large for Newton-Raphson -- use scaled steepest descent instead.
     Accept linear search using points  1 and  2.
     Minimum is close to point  2 DX= -1.12D-02 DF= -3.27D-07 DXR=  9.41D-03 DFR=  1.22D-04 which will be used.
 Gradient too large for Newton-Raphson -- use scaled steepest descent instead.
 Gradient too large for Newton-Raphson -- use scaled steepest descent instead.
     Accept linear search using points  1 and  2.
     Minimum is close to point  2 DX= -5.53D-02 DF= -7.03D-06 DXR=  4.45D-02 DFR=  2.97D-03 which will be used.
 Gradient too large for Newton-Raphson -- use scaled steepest descent instead.
     Accept linear search using points  1 and  2.
     Minimum is close to point  2 DX= -7.84D-02 DF= -1.21D-05 DXR=  5.94D-02 DFR=  5.73D-03 which will be used.
 Gradient too large for Newton-Raphson -- use scaled steepest descent instead.
     Accept linear search using points  1 and  2.
     Minimum is close to point  2 DX= -1.12D-01 DF= -2.42D-05 DXR=  9.45D-02 DFR=  1.29D-02 which will be used.
 Gradient too large for Newton-Raphson -- use scaled steepest descent instead.
     Accept linear search using points  1 and  2.
     Minimum is close to point  2 DX= -9.89D-02 DF= -1.57D-05 DXR=  8.24D-02 DFR=  9.90D-03 which will be used.
 Gradient too large for Newton-Raphson -- use scaled steepest descent instead.
     Accept linear search using points  1 and  2.
     Minimum is close to point  2 DX= -4.03D-02 DF= -2.16D-06 DXR=  3.48D-02 DFR=  1.64D-03 which will be used.
 Gradient too large for Newton-Raphson -- use scaled steepest descent instead.
     Minimum is close to point  2 DX=  1.29D-01 DF= -9.89D-06 DXR=  9.74D-02 DFR=  9.57D-03 which will be used.
 Gradient too large for Newton-Raphson -- use scaled steepest descent instead.
 Gradient too large for Newton-Raphson -- use scaled steepest descent instead.
     Accept linear search using points  1 and  2.
 Gradient too large for Newton-Raphson -- use scaled steepest descent instead.
     Accept linear search using points  1 and  2.
     Minimum is close to point  2 DX= -1.02D-01 DF= -4.56D-06 DXR=  7.83D-02 DFR=  9.81D-03 which will be used.
[...]
 032032,0.00000006,-0.00058272,-0.00025943,-0.00000014,0.00021868,-0.00
 003539,-0.00000025,-0.00054958,-0.00023702,-0.00000020,-0.00002907,-0.
 00001077,0.00000004,-0.00016229,0.00008004,-0.00000001,-0.00016785,-0.
 00015441,0.00000002,-0.00001227,-0.00001379,0.00000003,-0.00097907,-0.
 00192329,-0.00000005,0.00048666,-0.00042155,0.00000005,0.00003699,0.00
 004987,0.00000002,0.00049327,-0.00016569,-0.00000004,0.00005289,0.0000
 5566,-0.00000003,0.00017316,-0.00004311,-0.00000001,0.00018830,-0.0000
 7239,-0.00000005,0.00001111,0.00002584,0.,-0.00002036,-0.00002279,0.,-
 0.00001595,-0.00002326,-0.00000002,-0.00000811,-0.00002113,0.,0.000003
 20,-0.00000551,0.00000001,0.00000425,0.00000106,-0.00000005,0.00003990
 ,-0.00005273,0.,0.00003007,0.00000204,0.00000004,0.00004045,0.00004322
 ,0.00000006,0.00013186,0.00018726,0.00000003,-0.00028500,0.00114905,0.
 00000019,-0.09653817,0.20842777,0.00000197,-0.00000133,0.00609765,0.00
 000566,-0.00000889,-0.04088648,-0.00000004,-0.00000159,0.00805033,-0.0
 0000005,-0.00000005,-0.00007627,0.,-0.00000001,0.00002415,0.00000007,0
 .00000009,-0.00055931,0.00000004,0.,-0.00006684,0.00000018,-0.00000019
 ,0.00027327,0.00000003,0.,-0.00003761,0.00000023,-0.00000034,0.0078797
 8,-0.00000001,0.00000007,-0.00080728,-0.00000002,0.00000006,0.00004455
 ,0.00000012,-0.00000001,-0.00007489,-0.00000005,-0.00000006,-0.0000897
 9,-0.00000010,-0.00000003,0.00000809,-0.00000003,-0.00000007,0.0000014
 7,0.00000012,0.,0.00001686,0.,0.00000003,-0.00000150,0.,-0.00000001,0.
 00005141,-0.00000002,0.,0.00002015,0.00000002,0.00000003,-0.00000481,0
 .00000003,-0.00000002,0.00032215,-0.00000003,0.,0.00003593,0.,0.,-0.00
 006197,-0.00000005,0.00000002,-0.00006816,-0.00000002,0.00000007,-0.00
 000502,0.,0.00000001,-0.00002466,0.,0.,-0.00002829,0.,0.,-0.00000832,0
 .,0.,0.00000467,0.,0.,0.00000777,0.,0.,0.00000421,-0.00000001,0.,0.000
 00358,0.,-0.00000001,0.00000162,0.00000002,0.,-0.00000834,0.,0.,0.0000
 0596,0.,0.,0.00001069,-0.00000003,0.00000001,0.00037163,-0.00000009,0.
 00000018,-0.00303597,-0.00000814,0.00001216,0.02198491,0.00011678,0.00
 023642,0.00000011,-0.00073254,-0.00010163,-0.00000014,-0.03425093,0.02
 651899,0.00000409,0.00822259,-0.00724722,-0.00000044,-0.00003387,-0.00
 007487,0.,-0.09033015,0.08581414,0.00000669,-0.00090395,-0.00110080,-0
 .00000001,-0.00026030,0.00018558,0.00000009,-0.00021210,0.00013553,-0.
 00000003,0.00031860,0.00007867,0.00000009,0.00021408,-0.00016009,-0.00
 000008,0.00001980,-0.00025269,-0.00000004,-0.00043229,0.00027203,-0.00
 000009,0.00021243,-0.00010535,-0.00000009,0.00018267,0.00007495,0.0000
 0008,0.00027369,0.00091853,0.00000019,-0.00036907,-0.00008584,0.000000
 22,-0.00000743,-0.00001027,-0.00000006,0.00045442,-0.00023000,-0.00000
 003,0.00016827,0.00017273,-0.00000001,0.00001240,-0.00000523,-0.000000
 03,-0.00268585,-0.00135657,0.00000067,-0.00013279,0.00013363,0.,-0.001
 12174,-0.00132361,0.00000025,0.00038256,-0.00053277,-0.00000003,0.0000
 0042,-0.00000287,0.00000003,-0.00028994,0.00012483,0.00000002,-0.00024
 331,-0.00006573,0.00000007,-0.00000902,-0.00004804,0.,0.00001277,0.000
 01938,0.,0.00003192,0.00001537,0.00000002,0.00000937,0.00001458,0.,-0.
 00000477,0.00000398,-0.00000001,-0.00000467,0.00001207,0.00000005,-0.0
 0001904,0.00002681,0.00000002,-0.00002124,0.,-0.00000004,-0.00001810,-
 0.00002066,-0.00000005,-0.00004322,-0.00005931,-0.00000002,-0.00000695
 ,-0.00012624,0.00000002,-0.00049016,-0.00057588,0.00000006,0.12255724,
 -0.00021088,-0.00023554,0.00000002,0.00017279,0.00035667,0.00000008,0.
 01390777,-0.00213608,-0.00000128,0.00458454,-0.03895642,-0.00000169,0.
 00027142,-0.00083872,0.,0.08573278,-0.16455243,-0.00001082,-0.00000973
 ,-0.00100477,-0.00000002,0.00020551,-0.00023395,0.,0.00018406,-0.00014
 324,0.00000002,-0.00026279,-0.00009702,0.,-0.00022134,0.00012784,0.,-0
 .00004655,0.00018621,-0.00000001,-0.00015519,0.00032191,-0.00000005,-0
 .00015037,0.00010506,0.00000001,-0.00011843,-0.00003327,-0.00000002,-0
 .00080902,-0.00225906,0.00000002,0.00154013,0.00037640,-0.00000009,0.0
 0007513,0.00006163,-0.00000002,0.00079719,-0.00038426,-0.00000004,0.00
 012642,-0.00000103,-0.00000002,-0.00002956,0.00002289,0.,0.00013630,0.
 00273931,-0.00000013,0.00005333,-0.00013851,0.,-0.00095819,-0.00228167
 ,-0.00000001,-0.00148680,0.00104568,0.00000015,-0.00008389,-0.00001296
 ,0.,-0.00057010,0.00036489,0.00000004,-0.00021288,0.00021861,0.,0.0000
 3684,0.00006327,0.,-0.00001601,-0.00001955,0.,-0.00001297,-0.00005422,
 0.,-0.00001666,-0.00002176,0.,0.00001347,-0.00001628,0.,0.00001655,-0.
 00003906,0.,0.00002586,-0.00003738,0.,0.00003807,0.00000038,0.,0.00002
 737,0.00004145,0.00000002,0.00003889,0.00008295,0.00000002,0.00000236,
 0.00012189,0.,-0.00054107,0.00007089,0.00000002,-0.10090647,0.20795044
 ,0.,0.,-0.00007868,-0.00000012,0.00000016,-0.00219353,0.00000390,-0.00
 000225,0.00577450,0.00000027,-0.00000044,0.00636262,0.00000003,0.00000
 011,-0.00003340,0.00000615,-0.00001097,-0.03927239,-0.00000014,0.00000
 002,-0.00115258,0.00000013,-0.00000010,-0.00000534,0.,0.00000001,0.000
 00460,-0.00000011,0.,0.00003153,-0.00000008,0.00000003,0.00000423,-0.0
 0000001,0.00000004,-0.00001140,0.00000034,-0.00000004,0.00005745,-0.00
 000006,-0.00000007,0.00002066,-0.00000010,-0.00000003,0.00000314,-0.00
 000027,-0.00000034,0.00032285,0.00000027,0.,-0.00004171,0.00000002,0.0
 0000006,0.00001018,-0.00000016,-0.00000006,-0.00017343,-0.00000007,-0.
 00000004,0.00001341,0.00000003,0.00000004,-0.00000790,0.00000041,0.000
 00016,0.00600644,-0.00000010,0.00000003,0.00001245,0.00000046,-0.00000
 003,0.00247522,-0.00000017,0.00000009,-0.00056680,-0.00000004,0.000000
 10,0.00005671,0.00000012,-0.00000006,-0.00013270,0.00000002,-0.0000000
 2,-0.00000500,0.,0.,-0.00001348,0.00000001,0.,0.00004845,0.,0.,0.00004
 600,-0.00000001,0.00000001,0.00000876,-0.00000002,-0.00000001,0.000004
 98,0.,-0.00000003,-0.00000744,0.00000003,0.,-0.00000133,0.00000001,0.,
 0.00000325,0.00000001,0.,0.00000205,-0.00000003,0.00000003,-0.00000985
 ,0.,-0.00000001,0.00024947,0.00000003,0.,0.00039920,-0.00001099,0.0000
 1372,0.02144841,0.00004533,0.00005594,0.00000002,-0.00002736,-0.000046
 51,0.,-0.00047023,0.00052665,0.00000010,-0.03122865,0.02515915,0.00000
 277,0.00713455,-0.00776923,-0.00000015,-0.00141484,0.00019278,0.,-0.08
 281389,0.08170660,0.00000308,-0.00011222,0.00010759,0.00000004,-0.0000
 4518,0.00004919,0.,0.00014547,0.00003367,0.,0.00007775,-0.00010884,-0.
 00000006,0.00002787,-0.00002994,0.,0.00005532,-0.00016941,0.00000003,0
 .00014182,-0.00001946,-0.00000005,0.00000552,-0.00001474,0.00000002,0.
 00032099,0.00100356,0.00000009,-0.00076641,-0.00012302,0.00000014,-0.0
 0009865,-0.00007852,0.,-0.00070985,0.00034541,0.00000007,-0.00053116,-
 0.00035368,0.00000007,0.00003512,-0.00002967,-0.00000002,-0.00015253,-
 0.00080115,-0.00000001,0.00001789,0.00011098,0.00000002,-0.00340377,-0
 .00017482,0.00000060,0.00060961,0.00009804,-0.00000008,0.00011040,-0.0
 0001271,0.00000002,0.00008828,-0.00197737,0.00000044,0.00058896,-0.000
 42388,-0.00000008,-0.00005169,0.00001851,0.00000001,0.00016844,-0.0001
 9227,0.,0.00001026,0.00001950,0.00000002,0.00001449,0.00001898,0.,-0.0
 0001327,0.00003213,0.,-0.00001934,0.00003669,0.00000002,-0.00001715,0.
 00002326,0.,-0.00002382,0.00000012,-0.00000002,-0.00001789,-0.00002470
 ,-0.00000004,-0.00002102,-0.00003656,-0.00000002,-0.00001369,-0.000047
 40,0.,0.00001707,-0.00003500,0.,-0.00059455,-0.00075157,0.00000006,0.1
 1230117,-0.00004571,-0.00003710,0.00000002,0.00009239,-0.00004973,0.,0
 .00019616,-0.00022558,0.,0.01258047,-0.00057072,-0.00000095,0.00526391
 ,-0.04363931,-0.00000024,-0.00072684,-0.00048899,0.00000008,0.08191452
 ,-0.17159390,-0.00000606,0.00001845,-0.00006541,0.00000001,-0.00003534
 ,-0.00000841,0.,-0.00006379,-0.00001560,0.,-0.00002337,0.00004545,-0.0
 0000004,-0.00004313,-0.00009409,-0.00000002,-0.00011712,0.00017737,-0.
 00000002,-0.00005069,-0.00003280,-0.00000003,0.00010019,0.00006608,0.0
 0000003,-0.00025473,-0.00018348,0.00000007,0.00115551,0.00028067,0.000
 00002,0.00014576,0.00011825,0.,0.00114791,-0.00055882,-0.00000004,0.00
 089895,0.00058555,-0.00000011,-0.00005027,0.00005637,0.,0.00013029,0.0
 0024103,0.00000002,-0.00011280,-0.00006914,-0.00000001,0.00024030,-0.0
 0013548,-0.00000004,-0.00116240,-0.00032087,0.00000012,-0.00020236,0.0
 0002284,-0.00000001,-0.00314303,-0.00108205,0.00000026,-0.00099084,0.0
 0069277,0.00000007,0.00006422,-0.00004322,0.,0.00020210,-0.00035322,0.
 ,-0.00001453,-0.00001636,0.,-0.00001757,-0.00002191,0.,0.00002021,-0.0
 0005329,0.,0.00002969,-0.00005510,0.00000002,0.00001834,-0.00002350,0.
 ,0.00003132,0.00000043,0.,0.00002052,0.00003290,-0.00000001,0.00001376
 ,0.00003223,0.,0.00000634,0.00002861,0.,-0.00008991,0.00006618,0.00000
 001,-0.00055664,0.00005650,0.00000003,-0.09580381,0.21806233,0.,0.,-0.
 00000242,0.,0.,0.00004573,0.00000012,-0.00000007,0.00008067,0.00000329
 ,-0.00000191,0.00592368,-0.00000008,0.00000115,0.00523898,-0.00000013,
 -0.00000006,-0.00159844,0.00000265,-0.00000629,-0.03950344,0.,0.,0.000
 00444,0.,0.,0.00000146,-0.00000002,0.,-0.00001277,0.,0.,-0.00000844,0.
 ,0.,-0.00000618,0.00000006,0.,0.00004452,0.,0.,0.00000068,0.,0.,0.0000
 0189,-0.00000007,-0.00000004,-0.00006628,-0.00000002,-0.00000001,0.000
 08674,0.,0.,0.00000225,-0.00000021,-0.00000010,0.00030496,0.,0.,-0.000
 00370,0.,0.,0.00000031,-0.00000008,0.00000008,-0.00015464,0.,0.,-0.000
 00753,0.00000061,0.00000025,0.00403743,0.00000003,-0.00000001,-0.00012
 674,0.,0.,-0.00003752,0.00000064,0.00000001,0.00538858,-0.00000005,-0.
 00000003,-0.00086301,0.00000001,0.,0.00008542,0.,0.,-0.00007959,0.,0.,
 0.00004649,0.,0.,0.00000382,0.,0.,-0.00000828,0.,0.,0.00001040,0.,0.,0
 .00000156,0.,0.,0.00000221,0.,0.,0.00000264,0.,0.,0.00000564,0.,0.,-0.
 00000022,0.,0.,0.00003331,0.00000005,0.00000003,0.00043576,-0.00000665
 ,0.00000693,0.02215038,0.00002629,0.00003666,0.,0.00001254,0.00005602,
 0.,-0.00027375,-0.00010454,0.,-0.00157048,-0.00133239,0.00000057,-0.21
 812235,-0.00110477,0.00001286,0.00014829,0.00036316,-0.00000004,-0.026
 10431,-0.01434993,0.00000248,0.00004925,-0.00002311,0.00000002,-0.0000
 4439,0.00001894,0.,0.00006316,0.00007371,0.,0.00010011,0.00021769,0.,0
 .00007493,0.00001963,0.00000001,-0.00071067,0.00011014,0.00000007,-0.0
 0041036,0.00002106,-0.00000005,-0.00007912,-0.00003647,0.,-0.00117485,
 -0.00012777,0.00000007,-0.00030797,-0.00001823,0.00000002,0.00005623,0
 .00000772,0.00000001,-0.00120434,0.00143110,0.00000046,-0.00016043,0.0
 0007111,0.,0.00002711,-0.00002573,0.,0.00086789,0.00051195,-0.00000007
 ,0.00012856,-0.00023291,0.00000002,0.00144725,-0.00013116,-0.00000013,
 0.00048440,-0.00030305,-0.00000005,0.00005409,-0.00004365,0.,-0.025993
 58,0.01406787,0.00000223,0.00000758,-0.00027068,-0.00000003,-0.0000090
 4,-0.00004933,0.,0.00043196,0.00046905,-0.00000011,0.00003098,0.000043
 31,0.,0.00001694,0.00002586,0.,-0.00001028,0.00002368,0.,-0.00001407,0
 .00002771,0.,-0.00001319,0.00002153,0.,-0.00003800,0.00000030,0.,-0.00
 001402,-0.00002145,0.,-0.00001268,-0.00002441,0.,-0.00000978,-0.000027
 96,0.,0.00001468,-0.00002383,0.,0.00003063,-0.00006607,0.,0.00045796,-
 0.00052834,-0.00000013,0.27149465,-0.00000214,-0.00001598,0.,-0.000038
 26,-0.00000385,0.,0.00012267,-0.00014448,-0.00000002,-0.00076878,-0.00
 237719,0.00000011,-0.00097380,-0.03412380,0.,-0.00067289,-0.00010932,0
 .00000006,-0.02969858,-0.00760177,0.00000232,0.00001204,-0.00000273,0.
 ,0.00000708,-0.00000206,0.,-0.00001686,-0.00001041,0.00000003,-0.00000
 629,-0.00000223,0.00000003,-0.00000090,0.00000764,0.,0.00011434,-0.000
 01962,-0.00000003,0.00000881,0.00000278,0.,-0.00000428,-0.00000186,0.,
 -0.00001904,-0.00002101,-0.00000003,-0.00010899,-0.00002964,-0.0000000
 2,-0.00001257,-0.00000660,0.,0.00069497,-0.00243837,0.00000005,-0.0001
 1494,-0.00014932,0.00000004,0.00000191,-0.00001491,0.,-0.00011030,0.00
 006878,0.00000002,-0.00000025,0.00000503,0.,0.00003148,0.00013937,0.,0
 .00011678,0.00005400,-0.00000002,0.00001841,-0.00000398,0.,0.02928097,
 -0.00738393,-0.00000205,0.00067776,-0.00010124,-0.00000007,0.00003781,
 -0.00000134,0.,0.00091927,-0.00031102,-0.00000008,0.00001729,0.0000541
 6,-0.00000001,0.00000274,0.00000627,0.,0.00000077,0.00000572,0.,-0.000
 00182,0.00000322,0.,-0.00000024,0.00000007,0.,0.00000016,0.00000012,0.
 ,-0.00000008,0.,0.,0.00000116,0.00000182,0.,-0.00000074,0.00000579,0.,
 -0.00000340,0.00000641,0.,-0.00001975,0.00005584,0.,-0.00089559,-0.000
 31826,0.00000006,0.00142038,0.05470524,0.,0.,0.00000256,0.,0.,0.000034
 17,0.,0.00000003,-0.00023913,0.00000065,0.00000008,0.00624729,0.000012
 82,0.00000004,-0.04365219,-0.00000002,-0.00000001,-0.00051060,0.000002
 57,0.00000113,0.00618239,0.,0.,0.00000149,0.,0.,0.00000039,0.,0.,-0.00
 001403,0.,-0.00000002,-0.00000327,0.,0.,-0.00000328,0.00000006,-0.0000
 0001,0.00007002,0.00000003,0.,0.00000315,0.,0.,0.00000047,0.00000005,0
 .00000002,-0.00065254,0.00000002,0.,0.00005105,0.,0.,0.00000201,0.0000
 0049,0.00000003,0.00529058,0.,-0.00000002,-0.00014237,0.,0.,0.00000254
 ,-0.00000008,-0.00000006,-0.00001925,0.,0.00000002,-0.00000346,-0.0000
 0012,0.00000004,-0.00002144,-0.00000003,0.00000003,-0.00000842,0.,0.,-
 0.00001915,0.00000210,-0.00000090,0.00630695,-0.00000003,0.,-0.0005824
 5,0.,0.,0.00004196,-0.00000014,-0.00000004,-0.00112613,0.,0.,0.0000850
 1,0.,0.,0.00000575,0.,0.,-0.00000260,0.,0.,0.00000457,0.,0.,0.00000103
 ,0.,0.,0.00000125,0.,0.,0.00000100,0.,0.,0.00000388,0.,0.,-0.00000159,
 0.,0.,0.00000605,0.,0.,0.00010682,-0.00000014,0.00000003,-0.00147927,-
 0.00001818,-0.00000038,0.02402692,-0.00163747,-0.00125072,0.00000054,0
 .00094168,-0.00026785,-0.00000010,0.00514158,-0.01011340,-0.00000014,0
 .00432086,0.00289699,-0.00000024,0.00007053,0.00286461,-0.00000011,-0.
 00617300,-0.00189863,0.00000074,-0.00373058,-0.00154789,0.00000032,-0.
 00090197,0.00242379,0.00000019,0.00795008,-0.00149833,0.00000132,0.015
 56188,-0.00769714,-0.00000226,-0.03597118,-0.04070921,-0.00000785,-0.0
 0485365,0.00104087,-0.00000106,-0.11849695,0.17482563,0.00001071,-0.34
 019194,-0.00253164,-0.00001210,0.00627972,-0.00014308,0.00000117,-0.00
 071270,0.00721924,0.00000300,-0.12720911,-0.16214758,0.00000886,-0.000
 93401,-0.00225809,-0.00000011,-0.00112254,-0.00106462,0.00000025,0.001
 39486,0.00836134,-0.00000101,-0.00164535,0.00112114,0.00000002,-0.0612
 1049,0.01443466,0.00000447,-0.03289967,0.04151861,-0.00000418,0.000465
 41,0.00107873,-0.00000077,-0.04479640,-0.02436643,0.00000428,0.0146097
 9,0.00646115,-0.00000074,0.00130265,-0.00142038,0.,-0.00211700,-0.0012
 4573,0.00000066,0.00112021,0.00013793,-0.00000021,0.00016744,0.0002784
 4,-0.00000003,-0.00001765,0.00038868,0.00000037,-0.00015674,-0.0005511
 2,0.00000018,0.00049014,0.00050252,-0.00000007,-0.00067407,0.00014709,
 0.00000029,-0.00031609,0.00064824,0.,0.00116060,-0.00001634,-0.0000000
 5,-0.00033708,-0.00059639,-0.00000097,-0.00080798,-0.00052508,-0.00000
 034,0.00044694,-0.00047821,-0.00000002,-0.00016886,0.00048501,0.000000
 15,0.00000020,-0.00034443,0.00000018,0.00017081,-0.00025292,-0.0000000
 3,0.00025865,-0.00000901,-0.00000002,0.72523831,0.00085983,-0.00269619
 ,-0.00000119,-0.00067434,0.00032527,0.00000010,-0.02823544,0.01731301,
 0.00000286,-0.03534176,-0.00916508,0.00000186,0.00209232,-0.03730039,0
 .00000017,0.02584243,0.01995710,-0.00000171,0.03172268,0.01959691,-0.0
 0000217,0.00828827,-0.01728130,-0.00000129,0.01748912,-0.01554449,0.00
 000257,-0.02577443,-0.03399974,-0.00000641,-0.04104041,0.00080119,-0.0
 0000677,0.00134734,0.02546216,0.00000024,0.05691300,-0.27951899,-0.000
 01434,-0.01475413,-0.01559307,-0.00000023,-0.02074844,-0.01466845,-0.0
 0000322,0.00223490,-0.11559258,-0.00000057,-0.03320107,-0.22386090,0.0
 0000212,-0.00544285,-0.00921843,0.00000042,0.03630588,-0.01211261,-0.0
 0000182,0.03027689,0.03009499,-0.00000623,-0.00073288,-0.00317614,0.00
 000112,0.14569659,0.06336574,-0.00000864,0.04949847,-0.01177494,0.0000
 0582,0.00010371,-0.01511192,0.00000057,-0.16211506,0.05075431,0.000011
 22,0.01934871,-0.04264048,0.00000270,-0.03482609,0.01876181,0.00000199
 ,-0.02743294,0.01703470,0.00000160,0.00318979,-0.00094966,-0.00000038,
 0.00052528,0.00046072,-0.00000010,0.00037486,0.00074184,0.00000006,-0.
 00016375,-0.00040645,0.00000015,0.00003893,-0.00046122,0.00000018,0.00
 044244,-0.00105931,-0.00000073,0.00102713,-0.00032074,0.00000037,-0.00
 016896,-0.00007852,0.00000003,-0.00035300,0.00037670,-0.00000049,0.000
 51681,0.00114549,0.00000074,0.00011458,-0.00063740,-0.00000013,0.00011
 049,-0.00018030,-0.00000013,0.00021612,-0.00088161,-0.00000014,0.00039
 330,-0.00052752,0.00000003,-0.00019726,0.00008014,0.00000002,-0.003817
 92,0.59863888,-0.00000035,0.00000122,-0.00172452,-0.00000005,0.0000007
 8,-0.00007814,-0.00000227,0.00000159,0.00159373,-0.00000104,-0.0000015
 2,0.00019350,0.00000006,-0.00000087,0.00000075,0.00000065,0.00000121,-
 0.00051701,0.00000107,0.00000037,0.00000230,0.00000005,0.00000056,-0.0
 0279459,0.00000061,0.00000046,0.00228206,0.00000078,-0.00000241,0.0128
 0504,-0.00000513,-0.00000602,0.00562396,-0.00000097,0.00000037,0.00010
 204,0.00001379,-0.00002308,-0.01403582,-0.00000900,-0.00000351,-0.0131
 0859,-0.00000174,-0.00000070,0.00254521,0.00000005,-0.00000392,-0.0029
 2222,0.00001122,0.00001151,-0.01495882,-0.00000225,-0.00000181,-0.0032
 8462,0.00000042,-0.00000022,0.00025996,0.00000027,0.00000092,0.0031920
 4,0.00000048,0.00000048,-0.00149574,0.00000140,-0.00000110,0.00826263,
 -0.00000630,0.00000857,0.00673292,-0.00000117,0.00000010,-0.00056415,-
 0.00000216,0.00000376,0.00736073,0.00000136,0.00000465,0.01154517,-0.0
 0000017,0.00000061,-0.00000880,-0.00000051,0.00000013,-0.00043212,0.00
 000025,-0.00000024,-0.00011309,0.00000004,-0.00000006,0.00001146,0.000
 00001,0.00000002,-0.00038315,-0.00000025,0.00000007,0.00017283,-0.0000
 0037,-0.00000032,0.00024076,-0.00000010,-0.00000033,-0.00063231,0.0000
 0060,0.00000023,-0.00052285,0.00000043,0.00000033,-0.00019042,0.000000
 14,0.00000007,-0.00058469,-0.00000078,0.00000022,-0.00093899,-0.000000
 18,-0.00000041,0.00028786,0.00000008,-0.00000044,0.00018871,0.00000051
 ,0.00000009,-0.00020522,0.00000014,0.00000014,0.00001938,0.00000002,0.
 00000008,0.00000225,0.00000035,0.00000850,-0.00400639||-0.00004140,-0.
 00000271,0.00000007,-0.00001846,0.00000859,0.00000042,0.00014650,0.000
 02428,0.00000003,0.00029344,0.00005636,-0.00000002,-0.00004130,0.00036
 214,-0.00000008,-0.00021335,-0.00016565,0.00000011,-0.00029665,-0.0002
 1333,0.00000006,0.00004790,-0.00025887,0.00000060,-0.00014196,0.000035
 06,0.00000092,0.00000032,0.00006928,0.00000125,-0.00003439,0.00018892,
 0.00000158,0.00001093,-0.00017707,0.00000012,0.00035895,0.00009061,0.0
 0000111,0.00019109,-0.00013739,-0.00000190,0.00013113,0.00015255,0.000
 00055,-0.00007133,0.00023688,0.00000038,-0.00045101,-0.00046898,0.0000
 0148,0.00002772,0.00019516,0.00000081,-0.00031904,0.00004381,0.,-0.000
 21064,-0.00013235,0.00000008,-0.00007295,-0.00001066,0.00000008,-0.000
 26416,-0.00029430,0.00000103,-0.00017800,-0.00007608,0.00000167,0.0001
 1020,0.00011584,0.00000008,0.00037388,0.00007952,0.00000087,0.00009145
 ,0.00002600,0.00000112,0.00028440,-0.00020362,0.,0.00016697,-0.0000623
 4,0.00000010,0.00004065,-0.00001494,0.00000027,-0.00003651,0.00000760,
 -0.00000004,-0.00000621,-0.00000813,0.,-0.00001734,0.00000486,-0.00000
 009,-0.00000011,-0.00001221,-0.00000011,0.00006654,-0.00008047,-0.0000
 0030,-0.00000210,-0.00000797,-0.00000006,-0.00000866,0.00001476,-0.000
 00011,0.00002613,0.00000078,-0.00000009,0.00008143,0.00010027,-0.00000
 024,-0.00000797,0.00000695,-0.00000011,-0.00001283,0.00000353,-0.00000
 018,0.00002555,0.00004715,-0.00000002,0.00002269,0.00004096,-0.0000000
 2,-0.00000235,-0.00003668,0.00000002,-0.00004912,0.00045188,-0.0000114
 5|||@


 THE WISE MAN HAS THE POWER TO REASON AWAY
 WHAT A FOOL BELIEVES.
                     - DOOBIE BROTHERS
 Job cpu time:       0 days  0 hours  0 minutes  7.0 seconds.
 File lengths (MBytes):  RWF=    390 Int=      0 D2E=      0 Chk=      4 Scr=      1
 Normal termination of Gaussian 09 at Wed Mar 11 11:28:43 2026.
