 Entering Link 1 = C:\Gaussian\G09W\l1.exe PID=     19832.
  
 Copyright (c) 1988,1990,1992,1993,1995,1998,2003,2009,2013,
            Gaussian, Inc.  All Rights Reserved.
  
 This is part of the Gaussian(R) 09 program.  It is based on
 the Gaussian(R) 03 system (copyright 2003, Gaussian, Inc.),
 the Gaussian(R) 98 system (copyright 1998, Gaussian, Inc.),
 the Gaussian(R) 94 system (copyright 1995, Gaussian, Inc.),
 the Gaussian 92(TM) system (copyright 1992, Gaussian, Inc.),
 the Gaussian 90(TM) system (copyright 1990, Gaussian, Inc.),
 the Gaussian 88(TM) system (copyright 1988, Gaussian, Inc.),
 the Gaussian 86(TM) system (copyright 1986, Carnegie Mellon
 University), and the Gaussian 82(TM) system (copyright 1983,
 Carnegie Mellon University). Gaussian is a federally registered
 trademark of Gaussian, Inc.
  
 This software contains proprietary and confidential information,
 including trade secrets, belonging to Gaussian, Inc.
  
 This software is provided under written license and may be
 used, copied, transmitted, or stored only in accord with that
 written license.
  
 The following legend is applicable only to US Government
 contracts under FAR:
  
                    RESTRICTED RIGHTS LEGEND
  
 Use, reproduction and disclosure by the US Government is
 subject to restrictions as set forth in subparagraphs (a)
 and (c) of the Commercial Computer Software - Restricted
 Rights clause in FAR 52.227-19.
  
 Gaussian, Inc.
 340 Quinnipiac St., Bldg. 40, Wallingford CT 06492
  
  
 ---------------------------------------------------------------
 Warning -- This program may not be used in any manner that
 competes with the business of Gaussian, Inc. or will provide
 assistance to any competitor of Gaussian, Inc.  The licensee
 of this program is prohibited from giving any competitor of
 Gaussian, Inc. access to this program.  By using this program,
 the user acknowledges that Gaussian, Inc. is engaged in the
 business of creating and licensing software in the field of
 computational chemistry and represents and warrants to the
 licensee that it is not a competitor of Gaussian, Inc. and that
 it will not use this program in any manner prohibited above.
 ---------------------------------------------------------------
  

 Cite this work as:
 Gaussian 09, Revision D.01,
 M. J. Frisch, G. W. Trucks, H. B. Schlegel, G. E. Scuseria, 
 M. A. Robb, J. R. Cheeseman, G. Scalmani, V. Barone, B. Mennucci, 
 G. A. Petersson, H. Nakatsuji, M. Caricato, X. Li, H. P. Hratchian, 
 A. F. Izmaylov, J. Bloino, G. Zheng, J. L. Sonnenberg, M. Hada, 
 M. Ehara, K. Toyota, R. Fukuda, J. Hasegawa, M. Ishida, T. Nakajima, 
 Y. Honda, O. Kitao, H. Nakai, T. Vreven, J. A. Montgomery, Jr., 
 J. E. Peralta, F. Ogliaro, M. Bearpark, J. J. Heyd, E. Brothers, 
 K. N. Kudin, V. N. Staroverov, T. Keith, R. Kobayashi, J. Normand, 
 K. Raghavachari, A. Rendell, J. C. Burant, S. S. Iyengar, J. Tomasi, 
 M. Cossi, N. Rega, J. M. Millam, M. Klene, J. E. Knox, J. B. Cross, 
 V. Bakken, C. Adamo, J. Jaramillo, R. Gomperts, R. E. Stratmann, 
 O. Yazyev, A. J. Austin, R. Cammi, C. Pomelli, J. W. Ochterski, 
 R. L. Martin, K. Morokuma, V. G. Zakrzewski, G. A. Voth, 
 P. Salvador, J. J. Dannenberg, S. Dapprich, A. D. Daniels, 
 O. Farkas, J. B. Foresman, J. V. Ortiz, J. Cioslowski, 
 and D. J. Fox, Gaussian, Inc., Wallingford CT, 2013.
 
 ******************************************
 Gaussian 09:  IA32W-G09RevD.01 24-Apr-2013
                15-Mar-2026 
 ******************************************
 %chk=C:\Users\User\Desktop\IMRG\ECE+ML\Cr_Gr_NS_NO.chk
 ---------------------------------------
 # opt freq pm6 scf=qc geom=connectivity
 ---------------------------------------
 1/14=-1,18=20,19=15,26=1,38=1,57=2/1,3;
 2/9=110,12=2,17=6,18=5,40=1/2;
 3/5=2,16=1,25=1,41=3900000,71=1/1,2,3;
 4/35=1/1;
 5/5=2,8=3,35=1,38=5/8;
 6/7=2,8=2,9=2,10=2,28=1/1;
 7//1,2,3,16;
 1/14=-1,18=20,19=15,26=1/3(2);
 2/9=110/2;
 99//99;
 2/9=110/2;
 3/5=2,16=1,25=1,41=3900000,71=1,135=20/1,2,3;
 4/5=5,16=3,35=1/1;
 5/5=2,8=3,35=1,38=5/8;
 7//1,2,3,16;
 1/14=-1,18=20,19=15,26=1/3(-5);
 2/9=110/2;
 6/7=2,8=2,9=2,10=2,19=2,28=1/1;
 99/9=1/99;
 -----------
 Cr_Gr_NS_NO
 -----------
 Symbolic Z-matrix:
 Charge =  0 Multiplicity = 2
 C                    -1.48734   1.25527   0. 
 C                    -0.11458   1.26757   0.00021 
 C                     0.63784   2.49562   0.00024 
 C                     2.76155   3.73782  -0.0001 
 C                     4.87637   4.98541  -0.00058 
 C                     2.0603    2.51615  -0.00001 
 C                     4.19236   3.77104  -0.00038 
 C                    -3.68033   2.52318  -0.00036 
 C                    -5.85442   3.76459  -0.00032 
 C                    -2.22717   2.49171  -0.00016 
 C                    -4.4314    3.73294  -0.00038 
 C                    -6.52317   4.98925  -0.00022 
 C                    -1.49723   3.66543   0.00004 
 C                    -3.77063   4.98776  -0.00006 
 C                    -5.83173   6.21539  -0.00016 
 C                     0.61876   4.98443   0.00024 
 C                    -1.48853   6.30241   0.00019 
 C                    -3.64606   7.47395  -0.00004 
 C                     2.76334   6.23383  -0.00007 
 C                     0.64426   7.4887    0.0001 
 C                    -1.48605   8.7395   -0.00011 
 C                    -0.07268   3.72258   0.00025 
 C                    -4.42338   6.2256   -0.00018 
 C                     2.03942   4.98572   0.00009 
 C                    -0.08682   6.24592   0.00026 
 C                    -2.24783   7.50962   0.00012 
 C                     4.18329   6.20584  -0.00024 
 C                     2.05117   7.46407  -0.0001 
 C                    -0.10808   8.71832  -0.00011 
 H                     4.73683   7.14171  -0.00013 
 H                     2.60821   8.39816  -0.00027 
 H                     0.45062   9.65387  -0.00038 
 H                    -2.02415   9.68484  -0.0001 
 H                    -4.21082   8.4023   -0.00019 
 H                    -6.39162   7.1481   -0.0001 
 H                    -7.61353   5.00188  -0.00006 
 H                    -6.41745   2.83421  -0.00027 
 H                    -4.20834   1.57407  -0.00036 
 H                    -2.035     0.31468   0.00008 
 H                     0.44259   0.33017   0.00001 
 H                     2.60785   1.57708  -0.00018 
 H                     4.74181   2.8329   -0.00058 
 H                     5.96597   4.99136  -0.0008 
 Cr                   -2.25175   4.98582   0.00002 
 O                    -0.96766   5.00125   1.20373 
 N                    -0.96766   5.00125   0.06409 
 
 Add virtual bond connecting atoms N46        and C13        Dist= 2.72D+00.
 Add virtual bond connecting atoms N46        and C17        Dist= 2.65D+00.
 Add virtual bond connecting atoms N46        and Cr44       Dist= 2.43D+00.

 GradGradGradGradGradGradGradGradGradGradGradGradGradGradGradGradGradGrad
 Berny optimization.
 Initialization pass.
                           ----------------------------
                           !    Initial Parameters    !
                           ! (Angstroms and Degrees)  !
 --------------------------                            --------------------------
 ! Name  Definition              Value          Derivative Info.                !
 --------------------------------------------------------------------------------
 ! R1    R(1,2)                  1.3728         estimate D2E/DX2                !
 ! R2    R(1,10)                 1.4409         estimate D2E/DX2                !
 ! R3    R(1,39)                 1.0884         estimate D2E/DX2                !
 ! R4    R(2,3)                  1.4402         estimate D2E/DX2                !
 ! R5    R(2,40)                 1.0905         estimate D2E/DX2                !
 ! R6    R(3,6)                  1.4226         estimate D2E/DX2                !
 ! R7    R(3,22)                 1.4178         estimate D2E/DX2                !
 ! R8    R(4,6)                  1.4086         estimate D2E/DX2                !
 ! R9    R(4,7)                  1.4312         estimate D2E/DX2                !
 ! R10   R(4,24)                 1.4418         estimate D2E/DX2                !
 ! R11   R(5,7)                  1.3938         estimate D2E/DX2                !
 ! R12   R(5,27)                 1.4035         estimate D2E/DX2                !
 ! R13   R(5,43)                 1.0896         estimate D2E/DX2                !
 ! R14   R(6,41)                 1.087          estimate D2E/DX2                !
 ! R15   R(7,42)                 1.0872         estimate D2E/DX2                !
 ! R16   R(8,10)                 1.4535         estimate D2E/DX2                !
 ! R17   R(8,11)                 1.4239         estimate D2E/DX2                !
 ! R18   R(8,38)                 1.0861         estimate D2E/DX2                !
 ! R19   R(9,11)                 1.4234         estimate D2E/DX2                !
 ! R20   R(9,12)                 1.3954         estimate D2E/DX2                !
 ! R21   R(9,37)                 1.0875         estimate D2E/DX2                !
 ! R22   R(10,13)                1.3822         estimate D2E/DX2                !
 ! R23   R(11,14)                1.4182         estimate D2E/DX2                !
 ! R24   R(12,15)                1.4077         estimate D2E/DX2                !
 ! R25   R(12,36)                1.0904         estimate D2E/DX2                !
 ! R26   R(13,22)                1.4257         estimate D2E/DX2                !
 ! R27   R(13,44)                1.5208         estimate D2E/DX2                !
 ! R28   R(13,46)                1.4384         estimate D2E/DX2                !
 ! R29   R(14,23)                1.3994         estimate D2E/DX2                !
 ! R30   R(14,44)                1.5189         estimate D2E/DX2                !
 ! R31   R(15,23)                1.4084         estimate D2E/DX2                !
 ! R32   R(15,35)                1.0879         estimate D2E/DX2                !
 ! R33   R(16,22)                1.4389         estimate D2E/DX2                !
 ! R34   R(16,24)                1.4207         estimate D2E/DX2                !
 ! R35   R(16,25)                1.4454         estimate D2E/DX2                !
 ! R36   R(17,25)                1.4028         estimate D2E/DX2                !
 ! R37   R(17,26)                1.4261         estimate D2E/DX2                !
 ! R38   R(17,44)                1.5218         estimate D2E/DX2                !
 ! R39   R(17,46)                1.403          estimate D2E/DX2                !
 ! R40   R(18,23)                1.4706         estimate D2E/DX2                !
 ! R41   R(18,26)                1.3987         estimate D2E/DX2                !
 ! R42   R(18,34)                1.0866         estimate D2E/DX2                !
 ! R43   R(19,24)                1.4429         estimate D2E/DX2                !
 ! R44   R(19,27)                1.4202         estimate D2E/DX2                !
 ! R45   R(19,28)                1.4215         estimate D2E/DX2                !
 ! R46   R(20,25)                1.4419         estimate D2E/DX2                !
 ! R47   R(20,28)                1.4071         estimate D2E/DX2                !
 ! R48   R(20,29)                1.4415         estimate D2E/DX2                !
 ! R49   R(21,26)                1.4467         estimate D2E/DX2                !
 ! R50   R(21,29)                1.3781         estimate D2E/DX2                !
 ! R51   R(21,33)                1.0878         estimate D2E/DX2                !
 ! R52   R(27,30)                1.0873         estimate D2E/DX2                !
 ! R53   R(28,31)                1.0876         estimate D2E/DX2                !
 ! R54   R(29,32)                1.0897         estimate D2E/DX2                !
 ! R55   R(44,46)                1.2858         estimate D2E/DX2                !
 ! R56   R(45,46)                1.1396         estimate D2E/DX2                !
 ! A1    A(2,1,10)             120.3811         estimate D2E/DX2                !
 ! A2    A(2,1,39)             120.7234         estimate D2E/DX2                !
 ! A3    A(10,1,39)            118.8954         estimate D2E/DX2                !
 ! A4    A(1,2,3)              122.0091         estimate D2E/DX2                !
 ! A5    A(1,2,40)             120.2126         estimate D2E/DX2                !
 ! A6    A(3,2,40)             117.7783         estimate D2E/DX2                !
 ! A7    A(2,3,6)              122.323          estimate D2E/DX2                !
 ! A8    A(2,3,22)             118.4295         estimate D2E/DX2                !
 ! A9    A(6,3,22)             119.2474         estimate D2E/DX2                !
 ! A10   A(6,4,7)              121.1867         estimate D2E/DX2                !
 ! A11   A(6,4,24)             120.0864         estimate D2E/DX2                !
 ! A12   A(7,4,24)             118.7269         estimate D2E/DX2                !
 ! A13   A(7,5,27)             121.017          estimate D2E/DX2                !
 ! A14   A(7,5,43)             119.7036         estimate D2E/DX2                !
 ! A15   A(27,5,43)            119.2794         estimate D2E/DX2                !
 ! A16   A(3,6,4)              120.6839         estimate D2E/DX2                !
 ! A17   A(3,6,41)             119.4183         estimate D2E/DX2                !
 ! A18   A(4,6,41)             119.8978         estimate D2E/DX2                !
 ! A19   A(4,7,5)              120.7208         estimate D2E/DX2                !
 ! A20   A(4,7,42)             119.0266         estimate D2E/DX2                !
 ! A21   A(5,7,42)             120.2526         estimate D2E/DX2                !
 ! A22   A(10,8,11)            123.0746         estimate D2E/DX2                !
 ! A23   A(10,8,38)            117.8469         estimate D2E/DX2                !
 ! A24   A(11,8,38)            119.0785         estimate D2E/DX2                !
 ! A25   A(11,9,12)            119.9113         estimate D2E/DX2                !
 ! A26   A(11,9,37)            119.9067         estimate D2E/DX2                !
 ! A27   A(12,9,37)            120.182          estimate D2E/DX2                !
 ! A28   A(1,10,8)             122.1353         estimate D2E/DX2                !
 ! A29   A(1,10,13)            117.2279         estimate D2E/DX2                !
 ! A30   A(8,10,13)            120.6368         estimate D2E/DX2                !
 ! A31   A(8,11,9)             123.1078         estimate D2E/DX2                !
 ! A32   A(8,11,14)            120.3955         estimate D2E/DX2                !
 ! A33   A(9,11,14)            116.4967         estimate D2E/DX2                !
 ! A34   A(9,12,15)            121.9432         estimate D2E/DX2                !
 ! A35   A(9,12,36)            119.3009         estimate D2E/DX2                !
 ! A36   A(15,12,36)           118.7559         estimate D2E/DX2                !
 ! A37   A(10,13,22)           124.1752         estimate D2E/DX2                !
 ! A38   A(10,13,44)           118.3771         estimate D2E/DX2                !
 ! A39   A(22,13,44)           117.4477         estimate D2E/DX2                !
 ! A40   A(22,13,46)            66.102          estimate D2E/DX2                !
 ! A41   A(11,14,23)           124.4256         estimate D2E/DX2                !
 ! A42   A(11,14,44)           117.6975         estimate D2E/DX2                !
 ! A43   A(23,14,44)           117.8769         estimate D2E/DX2                !
 ! A44   A(12,15,23)           119.8349         estimate D2E/DX2                !
 ! A45   A(12,15,35)           119.6049         estimate D2E/DX2                !
 ! A46   A(23,15,35)           120.5602         estimate D2E/DX2                !
 ! A47   A(22,16,24)           118.7733         estimate D2E/DX2                !
 ! A48   A(22,16,25)           122.0594         estimate D2E/DX2                !
 ! A49   A(24,16,25)           119.1674         estimate D2E/DX2                !
 ! A50   A(25,17,26)           124.4765         estimate D2E/DX2                !
 ! A51   A(25,17,44)           117.7927         estimate D2E/DX2                !
 ! A52   A(25,17,46)            65.9019         estimate D2E/DX2                !
 ! A53   A(26,17,44)           117.7308         estimate D2E/DX2                !
 ! A54   A(23,18,26)           123.3713         estimate D2E/DX2                !
 ! A55   A(23,18,34)           116.7761         estimate D2E/DX2                !
 ! A56   A(26,18,34)           119.8525         estimate D2E/DX2                !
 ! A57   A(24,19,27)           118.9848         estimate D2E/DX2                !
 ! A58   A(24,19,28)           119.8195         estimate D2E/DX2                !
 ! A59   A(27,19,28)           121.1957         estimate D2E/DX2                !
 ! A60   A(25,20,28)           119.4641         estimate D2E/DX2                !
 ! A61   A(25,20,29)           118.073          estimate D2E/DX2                !
 ! A62   A(28,20,29)           122.4629         estimate D2E/DX2                !
 ! A63   A(26,21,29)           120.8936         estimate D2E/DX2                !
 ! A64   A(26,21,33)           118.5771         estimate D2E/DX2                !
 ! A65   A(29,21,33)           120.5293         estimate D2E/DX2                !
 ! A66   A(3,22,13)            117.777          estimate D2E/DX2                !
 ! A67   A(3,22,16)            121.2041         estimate D2E/DX2                !
 ! A68   A(13,22,16)           121.0189         estimate D2E/DX2                !
 ! A69   A(14,23,15)           117.3883         estimate D2E/DX2                !
 ! A70   A(14,23,18)           120.2865         estimate D2E/DX2                !
 ! A71   A(15,23,18)           122.3252         estimate D2E/DX2                !
 ! A72   A(4,24,16)            120.005          estimate D2E/DX2                !
 ! A73   A(4,24,19)            119.8289         estimate D2E/DX2                !
 ! A74   A(16,24,19)           120.1662         estimate D2E/DX2                !
 ! A75   A(16,25,17)           121.5273         estimate D2E/DX2                !
 ! A76   A(16,25,20)           120.3138         estimate D2E/DX2                !
 ! A77   A(17,25,20)           118.159          estimate D2E/DX2                !
 ! A78   A(17,26,18)           120.707          estimate D2E/DX2                !
 ! A79   A(17,26,21)           116.0575         estimate D2E/DX2                !
 ! A80   A(18,26,21)           123.2355         estimate D2E/DX2                !
 ! A81   A(5,27,19)            120.7216         estimate D2E/DX2                !
 ! A82   A(5,27,30)            119.8045         estimate D2E/DX2                !
 ! A83   A(19,27,30)           119.4739         estimate D2E/DX2                !
 ! A84   A(19,28,20)           121.0692         estimate D2E/DX2                !
 ! A85   A(19,28,31)           119.1239         estimate D2E/DX2                !
 ! A86   A(20,28,31)           119.8069         estimate D2E/DX2                !
 ! A87   A(20,29,21)           122.3405         estimate D2E/DX2                !
 ! A88   A(20,29,32)           117.6945         estimate D2E/DX2                !
 ! A89   A(21,29,32)           119.965          estimate D2E/DX2                !
 ! A90   A(13,44,14)           119.8184         estimate D2E/DX2                !
 ! A91   A(13,44,17)           120.1541         estimate D2E/DX2                !
 ! A92   A(14,44,17)           120.0275         estimate D2E/DX2                !
 ! A93   A(13,46,17)           136.2673         estimate D2E/DX2                !
 ! A94   A(13,46,45)            92.552          estimate D2E/DX2                !
 ! A95   A(17,46,45)            92.6104         estimate D2E/DX2                !
 ! A96   A(44,46,45)            92.8562         estimate D2E/DX2                !
 ! A97   L(10,13,46,22,-1)     190.2773         estimate D2E/DX2                !
 ! A98   L(26,17,46,25,-1)     190.3784         estimate D2E/DX2                !
 ! A99   L(14,44,46,1,-1)      180.7753         estimate D2E/DX2                !
 ! A100  L(10,13,46,22,-2)     182.7834         estimate D2E/DX2                !
 ! A101  L(26,17,46,25,-2)     177.1426         estimate D2E/DX2                !
 ! A102  L(14,44,46,1,-2)      182.9054         estimate D2E/DX2                !
 ! D1    D(10,1,2,3)            -0.0025         estimate D2E/DX2                !
 ! D2    D(10,1,2,40)         -179.9806         estimate D2E/DX2                !
 ! D3    D(39,1,2,3)          -179.9941         estimate D2E/DX2                !
 ! D4    D(39,1,2,40)            0.0278         estimate D2E/DX2                !
 ! D5    D(2,1,10,8)          -179.9988         estimate D2E/DX2                !
 ! D6    D(2,1,10,13)           -0.0059         estimate D2E/DX2                !
 ! D7    D(39,1,10,8)           -0.0071         estimate D2E/DX2                !
 ! D8    D(39,1,10,13)         179.9859         estimate D2E/DX2                !
 ! D9    D(1,2,3,6)           -179.9775         estimate D2E/DX2                !
 ! D10   D(1,2,3,22)             0.0102         estimate D2E/DX2                !
 ! D11   D(40,2,3,6)             0.0012         estimate D2E/DX2                !
 ! D12   D(40,2,3,22)          179.9889         estimate D2E/DX2                !
 ! D13   D(2,3,6,4)            179.9947         estimate D2E/DX2                !
 ! D14   D(2,3,6,41)            -0.0032         estimate D2E/DX2                !
 ! D15   D(22,3,6,4)             0.0071         estimate D2E/DX2                !
 ! D16   D(22,3,6,41)         -179.9908         estimate D2E/DX2                !
 ! D17   D(2,3,22,13)           -0.0093         estimate D2E/DX2                !
 ! D18   D(2,3,22,16)         -179.9984         estimate D2E/DX2                !
 ! D19   D(6,3,22,13)          179.9788         estimate D2E/DX2                !
 ! D20   D(6,3,22,16)           -0.0104         estimate D2E/DX2                !
 ! D21   D(7,4,6,3)           -179.9983         estimate D2E/DX2                !
 ! D22   D(7,4,6,41)            -0.0004         estimate D2E/DX2                !
 ! D23   D(24,4,6,3)             0.0005         estimate D2E/DX2                !
 ! D24   D(24,4,6,41)          179.9984         estimate D2E/DX2                !
 ! D25   D(6,4,7,5)            179.9946         estimate D2E/DX2                !
 ! D26   D(6,4,7,42)             0.0023         estimate D2E/DX2                !
 ! D27   D(24,4,7,5)            -0.0043         estimate D2E/DX2                !
 ! D28   D(24,4,7,42)         -179.9966         estimate D2E/DX2                !
 ! D29   D(6,4,24,16)           -0.0051         estimate D2E/DX2                !
 ! D30   D(6,4,24,19)         -179.9968         estimate D2E/DX2                !
 ! D31   D(7,4,24,16)          179.9938         estimate D2E/DX2                !
 ! D32   D(7,4,24,19)            0.0021         estimate D2E/DX2                !
 ! D33   D(27,5,7,4)             0.0119         estimate D2E/DX2                !
 ! D34   D(27,5,7,42)         -179.9959         estimate D2E/DX2                !
 ! D35   D(43,5,7,4)          -179.9999         estimate D2E/DX2                !
 ! D36   D(43,5,7,42)           -0.0077         estimate D2E/DX2                !
 ! D37   D(7,5,27,19)           -0.0173         estimate D2E/DX2                !
 ! D38   D(7,5,27,30)          179.9838         estimate D2E/DX2                !
 ! D39   D(43,5,27,19)         179.9944         estimate D2E/DX2                !
 ! D40   D(43,5,27,30)          -0.0044         estimate D2E/DX2                !
 ! D41   D(11,8,10,1)          179.9932         estimate D2E/DX2                !
 ! D42   D(11,8,10,13)           0.0005         estimate D2E/DX2                !
 ! D43   D(38,8,10,1)            0.002          estimate D2E/DX2                !
 ! D44   D(38,8,10,13)        -179.9907         estimate D2E/DX2                !
 ! D45   D(10,8,11,9)         -179.9875         estimate D2E/DX2                !
 ! D46   D(10,8,11,14)          -0.0059         estimate D2E/DX2                !
 ! D47   D(38,8,11,9)            0.0036         estimate D2E/DX2                !
 ! D48   D(38,8,11,14)         179.9852         estimate D2E/DX2                !
 ! D49   D(12,9,11,8)          179.9943         estimate D2E/DX2                !
 ! D50   D(12,9,11,14)           0.012          estimate D2E/DX2                !
 ! D51   D(37,9,11,8)           -0.0011         estimate D2E/DX2                !
 ! D52   D(37,9,11,14)        -179.9834         estimate D2E/DX2                !
 ! D53   D(11,9,12,15)          -0.0008         estimate D2E/DX2                !
 ! D54   D(11,9,12,36)        -179.9935         estimate D2E/DX2                !
 ! D55   D(37,9,12,15)         179.9946         estimate D2E/DX2                !
 ! D56   D(37,9,12,36)           0.0019         estimate D2E/DX2                !
 ! D57   D(1,10,13,22)           0.0067         estimate D2E/DX2                !
 ! D58   D(1,10,13,44)        -179.9942         estimate D2E/DX2                !
 ! D59   D(8,10,13,22)         179.9997         estimate D2E/DX2                !
 ! D60   D(8,10,13,44)          -0.0012         estimate D2E/DX2                !
 ! D61   D(1,10,46,17)         176.2016         estimate D2E/DX2                !
 ! D62   D(1,10,46,45)         -89.1592         estimate D2E/DX2                !
 ! D63   D(8,10,46,17)          -5.253          estimate D2E/DX2                !
 ! D64   D(8,10,46,45)          89.3863         estimate D2E/DX2                !
 ! D65   D(8,11,14,23)         179.9937         estimate D2E/DX2                !
 ! D66   D(8,11,14,44)           0.0113         estimate D2E/DX2                !
 ! D67   D(9,11,14,23)          -0.0235         estimate D2E/DX2                !
 ! D68   D(9,11,14,44)         179.9941         estimate D2E/DX2                !
 ! D69   D(9,12,15,23)          -0.0008         estimate D2E/DX2                !
 ! D70   D(9,12,15,35)         179.9989         estimate D2E/DX2                !
 ! D71   D(36,12,15,23)        179.9919         estimate D2E/DX2                !
 ! D72   D(36,12,15,35)         -0.0083         estimate D2E/DX2                !
 ! D73   D(10,13,22,3)           0.001          estimate D2E/DX2                !
 ! D74   D(10,13,22,16)        179.9902         estimate D2E/DX2                !
 ! D75   D(44,13,22,3)        -179.9981         estimate D2E/DX2                !
 ! D76   D(44,13,22,16)         -0.0089         estimate D2E/DX2                !
 ! D77   D(46,13,22,3)         177.2176         estimate D2E/DX2                !
 ! D78   D(46,13,22,16)         -2.7933         estimate D2E/DX2                !
 ! D79   D(10,13,44,14)          0.0069         estimate D2E/DX2                !
 ! D80   D(10,13,44,17)       -179.9981         estimate D2E/DX2                !
 ! D81   D(22,13,44,14)       -179.9939         estimate D2E/DX2                !
 ! D82   D(22,13,44,17)          0.001          estimate D2E/DX2                !
 ! D83   D(22,13,46,17)        172.4163         estimate D2E/DX2                !
 ! D84   D(22,13,46,45)        -91.1223         estimate D2E/DX2                !
 ! D85   D(11,14,23,15)          0.0221         estimate D2E/DX2                !
 ! D86   D(11,14,23,18)       -179.9904         estimate D2E/DX2                !
 ! D87   D(44,14,23,15)       -179.9955         estimate D2E/DX2                !
 ! D88   D(44,14,23,18)         -0.008          estimate D2E/DX2                !
 ! D89   D(11,14,44,13)         -0.012          estimate D2E/DX2                !
 ! D90   D(11,14,44,17)        179.993          estimate D2E/DX2                !
 ! D91   D(23,14,44,13)       -179.9956         estimate D2E/DX2                !
 ! D92   D(23,14,44,17)          0.0095         estimate D2E/DX2                !
 ! D93   D(11,14,46,45)        -89.3159         estimate D2E/DX2                !
 ! D94   D(23,14,46,45)         89.3221         estimate D2E/DX2                !
 ! D95   D(12,15,23,14)         -0.0092         estimate D2E/DX2                !
 ! D96   D(12,15,23,18)       -179.9964         estimate D2E/DX2                !
 ! D97   D(35,15,23,14)        179.991          estimate D2E/DX2                !
 ! D98   D(35,15,23,18)          0.0039         estimate D2E/DX2                !
 ! D99   D(24,16,22,3)           0.0059         estimate D2E/DX2                !
 ! D100  D(24,16,22,13)       -179.9829         estimate D2E/DX2                !
 ! D101  D(25,16,22,3)        -179.9999         estimate D2E/DX2                !
 ! D102  D(25,16,22,13)          0.0113         estimate D2E/DX2                !
 ! D103  D(22,16,24,4)           0.0019         estimate D2E/DX2                !
 ! D104  D(22,16,24,19)        179.9936         estimate D2E/DX2                !
 ! D105  D(25,16,24,4)        -179.9925         estimate D2E/DX2                !
 ! D106  D(25,16,24,19)         -0.0008         estimate D2E/DX2                !
 ! D107  D(22,16,25,17)         -0.005          estimate D2E/DX2                !
 ! D108  D(22,16,25,20)       -179.9929         estimate D2E/DX2                !
 ! D109  D(24,16,25,17)        179.9893         estimate D2E/DX2                !
 ! D110  D(24,16,25,20)          0.0013         estimate D2E/DX2                !
 ! D111  D(26,17,25,16)       -179.9962         estimate D2E/DX2                !
 ! D112  D(26,17,25,20)         -0.008          estimate D2E/DX2                !
 ! D113  D(44,17,25,16)         -0.003          estimate D2E/DX2                !
 ! D114  D(44,17,25,20)        179.9852         estimate D2E/DX2                !
 ! D115  D(46,17,25,16)          2.8612         estimate D2E/DX2                !
 ! D116  D(46,17,25,20)       -177.1506         estimate D2E/DX2                !
 ! D117  D(25,17,26,18)        179.9954         estimate D2E/DX2                !
 ! D118  D(25,17,26,21)          0.0108         estimate D2E/DX2                !
 ! D119  D(44,17,26,18)          0.0021         estimate D2E/DX2                !
 ! D120  D(44,17,26,21)       -179.9825         estimate D2E/DX2                !
 ! D121  D(18,26,46,13)          5.1501         estimate D2E/DX2                !
 ! D122  D(18,26,46,45)        -89.385          estimate D2E/DX2                !
 ! D123  D(21,26,46,13)       -176.2417         estimate D2E/DX2                !
 ! D124  D(21,26,46,45)         89.2232         estimate D2E/DX2                !
 ! D125  D(25,17,44,13)          0.0049         estimate D2E/DX2                !
 ! D126  D(25,17,44,14)        179.9998         estimate D2E/DX2                !
 ! D127  D(26,17,44,13)        179.9986         estimate D2E/DX2                !
 ! D128  D(26,17,44,14)         -0.0065         estimate D2E/DX2                !
 ! D129  D(25,17,46,13)       -172.3967         estimate D2E/DX2                !
 ! D130  D(25,17,46,45)         91.1652         estimate D2E/DX2                !
 ! D131  D(26,18,23,14)          0.0039         estimate D2E/DX2                !
 ! D132  D(26,18,23,15)        179.9907         estimate D2E/DX2                !
 ! D133  D(34,18,23,14)        179.9976         estimate D2E/DX2                !
 ! D134  D(34,18,23,15)         -0.0156         estimate D2E/DX2                !
 ! D135  D(23,18,26,17)         -0.0007         estimate D2E/DX2                !
 ! D136  D(23,18,26,21)        179.9827         estimate D2E/DX2                !
 ! D137  D(34,18,26,17)       -179.9942         estimate D2E/DX2                !
 ! D138  D(34,18,26,21)         -0.0107         estimate D2E/DX2                !
 ! D139  D(27,19,24,4)          -0.0072         estimate D2E/DX2                !
 ! D140  D(27,19,24,16)       -179.999          estimate D2E/DX2                !
 ! D141  D(28,19,24,4)         179.9902         estimate D2E/DX2                !
 ! D142  D(28,19,24,16)         -0.0015         estimate D2E/DX2                !
 ! D143  D(24,19,27,5)           0.0148         estimate D2E/DX2                !
 ! D144  D(24,19,27,30)       -179.9864         estimate D2E/DX2                !
 ! D145  D(28,19,27,5)        -179.9826         estimate D2E/DX2                !
 ! D146  D(28,19,27,30)          0.0163         estimate D2E/DX2                !
 ! D147  D(24,19,28,20)          0.0035         estimate D2E/DX2                !
 ! D148  D(24,19,28,31)       -179.9967         estimate D2E/DX2                !
 ! D149  D(27,19,28,20)       -179.9991         estimate D2E/DX2                !
 ! D150  D(27,19,28,31)          0.0007         estimate D2E/DX2                !
 ! D151  D(28,20,25,16)          0.0006         estimate D2E/DX2                !
 ! D152  D(28,20,25,17)       -179.9877         estimate D2E/DX2                !
 ! D153  D(29,20,25,16)        179.9894         estimate D2E/DX2                !
 ! D154  D(29,20,25,17)          0.0011         estimate D2E/DX2                !
 ! D155  D(25,20,28,19)         -0.003          estimate D2E/DX2                !
 ! D156  D(25,20,28,31)        179.9972         estimate D2E/DX2                !
 ! D157  D(29,20,28,19)       -179.9913         estimate D2E/DX2                !
 ! D158  D(29,20,28,31)          0.0089         estimate D2E/DX2                !
 ! D159  D(25,20,29,21)          0.0025         estimate D2E/DX2                !
 ! D160  D(25,20,29,32)       -179.9913         estimate D2E/DX2                !
 ! D161  D(28,20,29,21)        179.991          estimate D2E/DX2                !
 ! D162  D(28,20,29,32)         -0.0029         estimate D2E/DX2                !
 ! D163  D(29,21,26,17)         -0.0068         estimate D2E/DX2                !
 ! D164  D(29,21,26,18)       -179.9909         estimate D2E/DX2                !
 ! D165  D(33,21,26,17)       -179.9966         estimate D2E/DX2                !
 ! D166  D(33,21,26,18)          0.0193         estimate D2E/DX2                !
 ! D167  D(26,21,29,20)          0.0005         estimate D2E/DX2                !
 ! D168  D(26,21,29,32)        179.9942         estimate D2E/DX2                !
 ! D169  D(33,21,29,20)        179.9901         estimate D2E/DX2                !
 ! D170  D(33,21,29,32)         -0.0162         estimate D2E/DX2                !
 --------------------------------------------------------------------------------
 Trust Radius=3.00D-01 FncErr=1.00D-07 GrdErr=1.00D-07
 Number of steps in this run=    276 maximum allowed number of steps=    276.
 GradGradGradGradGradGradGradGradGradGradGradGradGradGradGradGradGradGrad

                          Input orientation:                          
 ---------------------------------------------------------------------
 Center     Atomic      Atomic             Coordinates (Angstroms)
 Number     Number       Type             X           Y           Z
 ---------------------------------------------------------------------
      1          6           0       -1.487342    1.255274    0.000000
      2          6           0       -0.114579    1.267573    0.000214
      3          6           0        0.637842    2.495615    0.000237
      4          6           0        2.761554    3.737816   -0.000096
      5          6           0        4.876369    4.985412   -0.000577
      6          6           0        2.060297    2.516154   -0.000014
      7          6           0        4.192364    3.771038   -0.000385
      8          6           0       -3.680332    2.523182   -0.000361
      9          6           0       -5.854424    3.764586   -0.000316
     10          6           0       -2.227169    2.491707   -0.000158
     11          6           0       -4.431403    3.732940   -0.000377
     12          6           0       -6.523170    4.989254   -0.000217
     13          6           0       -1.497229    3.665426    0.000042
     14          6           0       -3.770635    4.987756   -0.000065
     15          6           0       -5.831731    6.215386   -0.000158
     16          6           0        0.618765    4.984426    0.000243
     17          6           0       -1.488529    6.302410    0.000188
     18          6           0       -3.646057    7.473946   -0.000044
     19          6           0        2.763344    6.233835   -0.000066
     20          6           0        0.644264    7.488696    0.000097
     21          6           0       -1.486048    8.739497   -0.000106
     22          6           0       -0.072682    3.722583    0.000254
     23          6           0       -4.423380    6.225598   -0.000181
     24          6           0        2.039423    4.985716    0.000088
     25          6           0       -0.086819    6.245918    0.000262
     26          6           0       -2.247828    7.509622    0.000125
     27          6           0        4.183286    6.205843   -0.000242
     28          6           0        2.051167    7.464069   -0.000096
     29          6           0       -0.108077    8.718323   -0.000112
     30          1           0        4.736826    7.141709   -0.000134
     31          1           0        2.608212    8.398162   -0.000269
     32          1           0        0.450622    9.653867   -0.000382
     33          1           0       -2.024149    9.684844   -0.000104
     34          1           0       -4.210816    8.402296   -0.000186
     35          1           0       -6.391623    7.148101   -0.000098
     36          1           0       -7.613530    5.001882   -0.000063
     37          1           0       -6.417453    2.834207   -0.000272
     38          1           0       -4.208336    1.574068   -0.000359
     39          1           0       -2.035005    0.314677    0.000084
     40          1           0        0.442586    0.330166    0.000014
     41          1           0        2.607852    1.577080   -0.000179
     42          1           0        4.741811    2.832903   -0.000582
     43          1           0        5.965971    4.991361   -0.000799
     44         24           0       -2.251750    4.985817    0.000017
     45          8           0       -0.967663    5.001248    1.203731
     46          7           0       -0.967663    5.001248    0.064087
 ---------------------------------------------------------------------
                    Distance matrix (angstroms):
                    1          2          3          4          5
     1  C    0.000000
     2  C    1.372818   0.000000
     3  C    2.460661   1.440217   0.000000
     4  C    4.920988   3.791337   2.460328   0.000000
     5  C    7.376364   6.223494   4.915709   2.455390   0.000000
     6  C    3.765044   2.507795   1.422603   1.408623   3.745330
     7  C    6.211934   4.981675   3.776417   1.431196   1.393760
     8  C    2.533140   3.780364   4.318263   6.555397   8.903916
     9  C    5.036670   6.259464   6.615119   8.616019  10.800015
    10  C    1.440871   2.441627   2.865014   5.141998   7.528533
    11  C    3.847899   4.971218   5.218067   7.192959   9.391662
    12  C    6.269144   7.410867   7.582765   9.368681  11.399540
    13  C    2.410172   2.767927   2.434540   4.259398   6.508849
    14  C    4.375483   5.215986   5.064132   6.650702   8.647004
    15  C    6.593666   7.560866   7.462713   8.943316  10.778509
    16  C    4.282786   3.788507   2.488884   2.479028   4.257604
    17  C    5.047136   5.218939   4.360406   4.963904   6.499724
    18  C    6.582699   7.140757   6.567768   7.417287   8.878319
    19  C    6.546327   5.739878   4.300238   2.496019   2.454269
    20  C    6.587813   6.267233   4.993085   4.307204   4.917026
    21  C    7.484223   7.596748   6.595223   6.561930   7.387389
    22  C    2.844095   2.455367   1.417849   2.834277   5.107626
    23  C    5.772732   6.568697   6.287188   7.603442   9.382078
    24  C    5.133641   4.297012   2.857452   1.441779   2.836946
    25  C    5.183434   4.978422   3.819674   3.795234   5.120753
    26  C    6.300413   6.596509   5.785098   6.270600   7.558163
    27  C    7.527559   6.546613   5.131857   2.848241   1.403502
    28  C    7.146340   6.564070   5.165562   3.793364   3.758392
    29  C    7.589432   7.450753   6.267256   5.748063   6.227305
    30  H    8.566818   7.618504   6.195794   3.935503   2.160808
    31  H    8.233736   7.632751   6.222734   4.662868   4.097731
    32  H    8.619284   8.405318   7.160700   6.351382   6.432862
    33  H    8.446645   8.631159   7.666238   7.633485   8.348761
    34  H    7.648348   8.226994   7.641883   8.388761   9.708349
    35  H    7.666641   8.601273   8.429650   9.767839  11.473660
    36  H    7.181034   8.377311   8.623602  10.451805  12.489910
    37  H    5.176778   6.494657   7.063415   9.223376  11.496873
    38  H    2.739605   4.105214   4.933020   7.298025   9.704078
    39  H    1.088420   2.143839   3.449725   5.892780   8.341634
    40  H    2.140197   1.090488   2.174234   4.121855   6.428821
    41  H    4.107818   2.739967   2.173625   2.166196   4.094252
    42  H    6.425828   5.102429   4.117806   2.177221   2.156710
    43  H    8.337279   7.130195   5.883681   3.440881   1.089618
    44  Cr   3.808053   4.288687   3.814558   5.166306   7.128119
    45  O    3.968797   4.014540   3.210021   4.117343   5.966851
    46  N    3.782392   3.830425   2.976561   3.937948   5.844411
                    6          7          8          9         10
     6  C    0.000000
     7  C    2.473953   0.000000
     8  C    5.740633   7.970978   0.000000
     9  C    8.012576  10.046789   2.503549   0.000000
    10  C    4.287535   6.545768   1.453504   3.844112   0.000000
    11  C    6.604751   8.623851   1.423946   1.423372   2.529685
    12  C    8.932643  10.784559   3.763407   1.395361   4.969242
    13  C    3.738558   5.690573   2.463871   4.358323   1.382183
    14  C    6.333133   8.055417   2.466228   2.416262   2.934714
    15  C    8.715987  10.317816   4.273276   2.450906   5.182534
    16  C    2.858387   3.773979   4.953783   6.587123   3.783251
    17  C    5.189402   6.219356   4.368817   5.049910   3.881629
    18  C    7.559244   8.669047   4.950883   4.316971   5.180343
    19  C    3.783573   2.847361   7.435719   8.964548   6.237687
    20  C    5.170233   5.139065   6.584714   7.490123   5.763248
    21  C    7.162859   7.545194   6.592227   6.620608   6.291593
    22  C    2.450524   4.265321   3.801803   5.781894   2.481304
    23  C    7.469808   8.958565   3.776242   2.846835   4.331892
    24  C    2.469650   2.471962   6.227333   7.987739   4.942053
    25  C    4.303631   4.943322   5.174177   6.278716   4.321481
    26  C    6.595048   7.446683   5.188126   5.199311   5.017958
    27  C    4.256863   2.434822   8.683230  10.330312   7.408693
    28  C    4.947924   4.268865   7.567196   8.728376   6.559615
    29  C    6.570293   6.555106   7.151279   7.586832   6.577333
    30  H    5.344115   3.414361   9.601008  11.116633   8.373753
    31  H    5.907472   4.890788   8.605881   9.648121   7.633290
    32  H    7.316966   6.971965   8.240841   8.627702   7.646378
    33  H    8.250625   8.580101   7.350670   7.051274   7.196001
    34  H    8.600786   9.594894   5.902999   4.920346   6.234575
    35  H    9.637940  11.109695   5.361061   3.425895   6.246974
    36  H    9.988081  11.869882   4.649085   2.150664   5.942547
    37  H    8.483714  10.651096   2.754735   1.087477   4.204258
    38  H    6.339028   8.683227   1.086096   2.740068   2.183365
    39  H    4.649516   7.122257   2.754015   5.146827   2.185495
    40  H    2.719473   5.089246   4.669879   7.172696   3.435091
    41  H    1.087050   2.706313   6.358960   8.740440   4.920769
    42  H    2.700158   1.087194   8.427837  10.637116   6.977328
    43  H    4.623953   2.152875   9.957062  11.883884   8.565968
    44  Cr   4.969203   6.557613   2.847002   3.804032   2.494231
    45  O    4.097954   5.439594   3.866423   5.182615   3.055077
    46  N    3.917695   5.305039   3.674716   5.041222   2.808608
                   11         12         13         14         15
    11  C    0.000000
    12  C    2.440044   0.000000
    13  C    2.934951   5.197365   0.000000
    14  C    1.418161   2.752535   2.630006   0.000000
    15  C    2.850168   1.407654   5.028937   2.398999   0.000000
    16  C    5.202924   7.141937   2.493430   4.389401   6.566899
    17  C    3.906749   5.203075   2.636998   2.633690   4.344074
    18  C    3.822551   3.801510   4.372904   2.489309   2.522131
    19  C    7.617012   9.369543   4.974858   6.651736   8.595095
    20  C    6.314120   7.590740   4.382166   5.074055   6.599988
    21  C    5.808677   6.279882   5.074083   4.392596   5.025544
    22  C    4.358734   6.573679   1.425693   3.908391   6.275406
    23  C    2.492671   2.436733   3.888038   1.399403   1.408389
    24  C    6.590982   8.562594   3.775060   5.810059   7.966628
    25  C    5.019011   6.557882   2.940781   3.892746   5.744993
    26  C    4.362491   4.962943   3.916790   2.945972   3.810434
    27  C    8.962595  10.775355   6.222697   8.046651  10.015021
    28  C    7.479642   8.924347   5.198154   6.326571   7.981184
    29  C    6.598879   7.420201   5.240374   5.227950   6.246993
    30  H    9.781418  11.463882   7.137786   8.775899  10.609076
    31  H    8.445146   9.746938   6.265256   7.233295   8.717635
    32  H    7.674083   8.390018   6.297265   6.292186   7.161782
    33  H    6.420283   6.503057   6.042436   5.011272   5.151196
    34  H    4.674564   4.122601   5.459074   3.442796   2.722120
    35  H    3.937739   2.162852   6.007006   3.396567   1.087858
    36  H    3.425806   1.090433   6.260611   3.842921   2.155783
    37  H    2.179934   2.157638   4.989943   3.412245   3.431536
    38  H    2.170366   4.125767   3.424015   3.441635   4.917037
    39  H    4.174595   6.480378   3.393630   4.984985   7.016659
    40  H    5.944294   8.380265   3.858347   6.280475   8.602492
    41  H    7.361986   9.747743   4.605744   7.233105   9.630184
    42  H    9.217263  11.469510   6.294340   8.780953  11.101396
    43  H   10.473252  12.489141   7.580070   9.736606  11.861029
    44  Cr   2.514078   4.271421   1.520768   1.518886   3.785248
    45  O    3.880204   5.684479   1.874493   3.050567   5.155836
    46  N    3.689209   5.555893   1.438388   2.803739   5.013724
                   16         17         18         19         20
    16  C    0.000000
    17  C    2.485512   0.000000
    18  C    4.938261   2.455081   0.000000
    19  C    2.481984   4.252426   6.528269   0.000000
    20  C    2.504399   2.440509   4.290347   2.462758   0.000000
    21  C    4.304741   2.437089   2.503449   4.933121   2.470372
    22  C    1.438870   2.942810   5.180901   3.788064   3.833747
    23  C    5.192661   2.935855   1.470579   7.186729   5.222684
    24  C    1.420659   3.765651   6.206124   1.442866   2.865550
    25  C    1.445410   1.402848   3.765133   2.850189   1.441867
    26  C    3.820206   1.426147   1.398684   5.171023   2.892168
    27  C    3.767979   5.672637   7.931374   1.420217   3.764357
    28  C    2.863635   3.725440   5.697232   1.421504   1.407118
    29  C    3.803983   2.782497   3.750437   3.797070   1.441528
    30  H    4.648903   6.281678   8.389465   2.172295   4.107245
    31  H    3.951138   4.601681   6.322188   2.169880   2.164306
    32  H    4.672467   3.872024   4.640564   4.128595   2.173813
    33  H    5.392488   3.424580   2.742016   5.901657   3.455937
    34  H    5.916645   3.438077   1.086640   7.303502   4.940291
    35  H    7.336691   4.975492   2.764834   9.200506   7.044127
    36  H    8.232313   6.261550   4.674606  10.449748   8.624118
    37  H    7.357432   6.026833   5.404425   9.790021   8.457666
    38  H    5.910283   5.454775   5.926611   8.385568   7.650526
    39  H    5.371131   6.012618   7.338298   7.619749   7.658004
    40  H    4.657593   6.276695   8.231075   6.343439   7.161370
    41  H    3.945437   6.253725   8.595604   4.659350   6.229195
    42  H    4.650652   7.131243   9.586220   3.934548   6.202120
    43  H    5.347210   7.568911   9.927452   3.435194   5.878540
    44  Cr   2.870516   1.521816   2.852171   5.168048   3.827702
    45  O    1.991336   1.847387   3.838894   4.109600   3.199131
    46  N    1.587801   1.403000   3.645840   3.929860   2.964760
                   21         22         23         24         25
    21  C    0.000000
    22  C    5.212200   0.000000
    23  C    3.866213   5.019328   0.000000
    24  C    5.149740   2.460994   6.580663   0.000000
    25  C    2.859332   2.523375   4.336608   2.471643   0.000000
    26  C    1.446686   4.367256   2.526211   4.975000   2.503379
    27  C    6.209730   4.927458   8.606688   2.466750   4.270293
    28  C    3.760134   4.302262   6.591931   2.478382   2.460666
    29  C    1.378134   4.995866   4.983525   4.306288   2.472497
    30  H    6.424725   5.900999   9.205902   3.453156   4.906118
    31  H    4.108464   5.389641   7.359573   3.459524   3.448963
    32  H    2.141673   5.954324   5.958936   4.931118   3.450066
    33  H    1.087765   6.273498   4.209832   6.212441   3.947082
    34  H    2.745554   6.246909   2.187052   7.123097   4.653743
    35  H    5.157248   7.187711   2.173705   8.703933   6.369026
    36  H    7.177451   7.648594   3.416803   9.652967   7.628827
    37  H    7.693582   6.406663   3.934191   8.726267   7.191432
    38  H    7.665131   4.660445   4.656499   7.118556   6.230015
    39  H    8.442686   3.932497   6.375212   6.198352   6.243000
    40  H    8.627657   3.431325   7.644196   4.921791   5.939393
    41  H    8.249863   3.433431   8.428934   3.455707   5.390668
    42  H    8.583361   4.896006   9.772978   3.455069   5.913066
    43  H    8.341529   6.170505  10.462406   3.926552   6.181438
    44  Cr   3.830981   2.518749   2.500606   4.291174   2.504951
    45  O    3.961370   1.970870   3.858811   3.239068   1.942531
    46  N    3.774567   1.562065   3.666762   3.007807   1.526160
                   26         27         28         29         30
    26  C    0.000000
    27  C    6.561941   0.000000
    28  C    4.299236   2.475695   0.000000
    29  C    2.457539   4.972761   2.497095   0.000000
    30  H    6.994338   1.087314   2.704937   5.094978   0.000000
    31  H    4.936662   2.699466   1.087579   2.735092   2.471775
    32  H    3.446653   5.081500   2.712371   1.089672   4.968147
    33  H    2.186692   7.115876   4.641125   2.146042   7.223457
    34  H    2.156430   8.676713   6.331880   4.114893   9.036005
    35  H    4.159535  10.616805   8.448700   6.476770  11.128451
    36  H    5.922796  11.858093   9.973401   8.375188  12.534359
    37  H    6.264605  11.124009   9.651587   8.627343  11.957111
    38  H    6.250952   9.585022   8.594969   8.237264  10.536344
    39  H    7.198092   8.565802   8.234720   8.621736   9.615927
    40  H    7.667001   6.965372   7.313009   8.406212   8.052180
    41  H    7.666335   4.889524   5.913252   7.640264   5.957989
    42  H    8.409921   3.418871   5.356050   7.626243   4.308809
    43  H    8.591166   2.157066   4.630332   7.126310   2.476851
    44  Cr   2.523808   6.549668   4.965564   4.304293   7.313554
    45  O    3.062586   5.425207   4.077747   4.000597   6.210641
    46  N    2.816888   5.290317   3.896529   3.815713   6.093184
                   31         32         33         34         35
    31  H    0.000000
    32  H    2.496395   0.000000
    33  H    4.807736   2.474965   0.000000
    34  H    6.819030   4.826535   2.535043   0.000000
    35  H    9.086236   7.286644   5.050732   2.515735   0.000000
    36  H   10.771199   9.309754   7.291866   4.810538   2.469679
    37  H   10.602840   9.678750   8.138325   5.989395   4.313971
    38  H    9.645392   9.326792   8.399724   6.828229   5.986367
    39  H    9.322134   9.664306   9.370173   8.375186   8.104061
    40  H    8.353591   9.323704   9.674439   9.317372   9.653530
    41  H    6.821082   8.359912   9.337627   9.647684  10.584273
    42  H    5.960231   8.058527   9.629502  10.543609  11.940448
    43  H    4.783391   7.222051   9.266650  10.733195  12.544387
    44  Cr   5.938294   5.393840   4.704536   3.938308   4.670548
    45  O    5.076960   5.010817   4.949895   4.851247   5.956302
    46  N    4.932550   4.864417   4.801704   4.699927   5.833734
                   36         37         38         39         40
    36  H    0.000000
    37  H    2.475765   0.000000
    38  H    4.831693   2.543256   0.000000
    39  H    7.286277   5.055085   2.511858   0.000000
    40  H    9.312676   7.302763   4.814391   2.477639   0.000000
    41  H   10.779885   9.112436   6.816188   4.811421   2.498633
    42  H   12.544279  11.159264   9.038241   7.229571   4.974639
    43  H   13.579505  12.569904  10.732866   9.267523   7.227345
    44  Cr   5.361804   4.688550   3.932971   4.676166   5.379083
    45  O    6.754012   5.987145   4.867993   4.954990   5.025608
    46  N    6.646177   5.865187   4.717168   4.807001   4.879744
                   41         42         43         44         45
    41  H    0.000000
    42  H    2.476061   0.000000
    43  H    4.788975   2.481433   0.000000
    44  Cr   5.935926   7.317441   8.217723   0.000000
    45  O    5.094961   6.224964   7.037490   1.760127   0.000000
    46  N    4.951097   6.107699   6.933944   1.285778   1.139644
                   46
    46  N    0.000000
 Stoichiometry    C29H14CrNO(2)
 Framework group  C1[X(C29H14CrNO)]
 Deg. of freedom   132
 Full point group                 C1      NOp   1
 Largest Abelian subgroup         C1      NOp   1
 Largest concise Abelian subgroup C1      NOp   1
                         Standard orientation:                         
 ---------------------------------------------------------------------
 Center     Atomic      Atomic             Coordinates (Angstroms)
 Number     Number       Type             X           Y           Z
 ---------------------------------------------------------------------
      1          6           0       -0.550215   -3.734823   -0.043950
      2          6           0        0.822549   -3.722638   -0.043526
      3          6           0        1.575071   -2.494659   -0.043542
      4          6           0        3.698886   -1.252634   -0.043705
      5          6           0        5.813805   -0.005214   -0.044017
      6          6           0        2.997528   -2.474238   -0.043577
      7          6           0        5.129699   -1.219531   -0.043777
      8          6           0       -2.743101   -2.466734   -0.044810
      9          6           0       -4.917089   -1.225150   -0.045257
     10          6           0       -1.289940   -2.498329   -0.044378
     11          6           0       -3.494071   -1.256914   -0.045095
     12          6           0       -5.585733   -0.000426   -0.045415
     13          6           0       -0.559903   -1.324671   -0.044214
     14          6           0       -2.833199   -0.002152   -0.044839
     15          6           0       -4.894193    1.225649   -0.045405
     16          6           0        1.556201   -0.005846   -0.043854
     17          6           0       -0.550984    1.312312   -0.044400
     18          6           0       -2.708414    2.484028   -0.045113
     19          6           0        3.700884    1.243384   -0.043990
     20          6           0        1.581908    2.498421   -0.044313
     21          6           0       -0.548300    3.749399   -0.045001
     22          6           0        0.864649   -1.267632   -0.043790
     23          6           0       -3.485840    1.235744   -0.045212
     24          6           0        2.976859   -0.004675   -0.043790
     25          6           0        0.850722    1.255704   -0.044103
     26          6           0       -1.310182    2.519588   -0.044733
     27          6           0        5.120823    1.215275   -0.043944
     28          6           0        2.988809    2.473678   -0.044286
     29          6           0        0.829669    3.728111   -0.044792
     30          1           0        5.674441    2.151094   -0.043869
     31          1           0        3.545932    3.407724   -0.044490
     32          1           0        1.388446    4.663608   -0.045095
     33          1           0       -1.086323    4.694791   -0.045203
     34          1           0       -3.273097    3.412424   -0.045460
     35          1           0       -5.454007    2.158410   -0.045549
     36          1           0       -6.676092    0.012293   -0.045431
     37          1           0       -5.480195   -2.155481   -0.045182
     38          1           0       -3.271183   -3.415804   -0.044769
     39          1           0       -1.097956   -4.675375   -0.043832
     40          1           0        1.379635   -4.660091   -0.043522
     41          1           0        3.545005   -3.413358   -0.043539
     42          1           0        5.679069   -2.157712   -0.043771
     43          1           0        6.903407    0.000645   -0.044072
     44         24           0       -1.314314   -0.004217   -0.044523
     45          8           0       -0.030411    0.011259    1.159387
     46          7           0       -0.030235    0.011115    0.019744
 ---------------------------------------------------------------------
 Rotational constants (GHZ):      0.3033428      0.1341850      0.0938028
 Standard basis: VSTO-6G (5D, 7F)
 There are   148 symmetry adapted cartesian basis functions of A   symmetry.
 There are   147 symmetry adapted basis functions of A   symmetry.
   147 basis functions,   888 primitive gaussians,   148 cartesian basis functions
    74 alpha electrons       73 beta electrons
       nuclear repulsion energy      1550.9749282979 Hartrees.
 Integral buffers will be    262144 words long.
 Regular integral format.
 Two-electron integral symmetry is turned off.
 Do NDO integrals.
 One-electron integrals computed using PRISM.
 NBasis=   147 RedAO= F EigKep=  0.00D+00  NBF=   147
 NBsUse=   147 1.00D-04 EigRej=  0.00D+00 NBFU=   147
 Simple Huckel Guess.
 Initial guess <Sx>= 0.0000 <Sy>= 0.0000 <Sz>= 0.5000 <S**2>= 0.7500 S= 0.5000
 Keep J ints in memory in canonical form, NReq=2141367.
 Gradient too large for Newton-Raphson -- use scaled steepest descent instead.
     Accept linear search using points  4 and  5.
 Gradient too large for Newton-Raphson -- use scaled steepest descent instead.
     Minimum is close to point  4 DX=  9.78D-02 DF= -3.85D-03 DXR=  8.91D-02 DFR=  7.88D-03 which will be used.
 Gradient too large for Newton-Raphson -- use scaled steepest descent instead.
 Gradient too large for Newton-Raphson -- use scaled steepest descent instead.
     Accept linear search using points  1 and  2.
     Minimum is close to point  2 DX= -7.23D-02 DF= -2.14D-04 DXR=  7.03D-02 DFR=  5.80D-03 which will be used.
 Gradient too large for Newton-Raphson -- use scaled steepest descent instead.
     Accept linear search using points  1 and  2.
     Minimum is close to point  2 DX= -5.27D-02 DF= -6.70D-05 DXR=  5.56D-02 DFR=  3.12D-03 which will be used.
 Gradient too large for Newton-Raphson -- use scaled steepest descent instead.
 Gradient too large for Newton-Raphson -- use scaled steepest descent instead.
     Minimum is close to point  2 DX=  7.91D-02 DF= -5.63D-05 DXR=  7.33D-02 DFR=  5.40D-03 which will be used.
 Gradient too large for Newton-Raphson -- use scaled steepest descent instead.
 Gradient too large for Newton-Raphson -- use scaled steepest descent instead.
     Accept linear search using points  1 and  2.
 Gradient too large for Newton-Raphson -- use scaled steepest descent instead.
     Accept linear search using points  1 and  2.
     Minimum is close to point  2 DX= -2.09D-02 DF= -2.66D-06 DXR=  1.78D-02 DFR=  4.33D-04 which will be used.
 Gradient too large for Newton-Raphson -- use scaled steepest descent instead.
     Accept linear search using points  1 and  2.
     Minimum is close to point  2 DX= -2.15D-02 DF= -2.61D-06 DXR=  1.99D-02 DFR=  4.72D-04 which will be used.
 Gradient too large for Newton-Raphson -- use scaled steepest descent instead.
     Minimum is close to point  2 DX=  8.44D-02 DF= -2.59D-05 DXR=  7.13D-02 DFR=  5.11D-03 which will be used.
 Gradient too large for Newton-Raphson -- use scaled steepest descent instead.
 Gradient too large for Newton-Raphson -- use scaled steepest descent instead.
     Accept linear search using points  1 and  2.
 Gradient too large for Newton-Raphson -- use scaled steepest descent instead.
     Accept linear search using points  1 and  2.
     Minimum is close to point  2 DX= -2.67D-02 DF= -2.88D-06 DXR=  2.28D-02 DFR=  7.07D-04 which will be used.
 Gradient too large for Newton-Raphson -- use scaled steepest descent instead.
     Accept linear search using points  1 and  2.
     Minimum is close to point  2 DX= -2.74D-02 DF= -2.96D-06 DXR=  2.55D-02 DFR=  7.76D-04 which will be used.
 Gradient too large for Newton-Raphson -- use scaled steepest descent instead.
     Minimum is close to point  2 DX=  4.58D-02 DF= -5.52D-06 DXR=  4.00D-02 DFR=  1.60D-03 which will be used.
 Gradient too large for Newton-Raphson -- use scaled steepest descent instead.
 Gradient too large for Newton-Raphson -- use scaled steepest descent instead.
     Accept linear search using points  1 and  2.
     Minimum is close to point  2 DX= -9.92D-02 DF= -3.04D-05 DXR=  9.01D-02 DFR=  1.07D-02 which will be used.
 Gradient too large for Newton-Raphson -- use scaled steepest descent instead.
     Accept linear search using points  1 and  2.
 Gradient too large for Newton-Raphson -- use scaled steepest descent instead.
     Minimum is close to point  2 DX=  9.55D-02 DF= -1.54D-05 DXR=  7.99D-02 DFR=  6.42D-03 which will be used.
 Gradient too large for Newton-Raphson -- use scaled steepest descent instead.
 Gradient too large for Newton-Raphson -- use scaled steepest descent instead.
     Accept linear search using points  1 and  2.
 Gradient too large for Newton-Raphson -- use scaled steepest descent instead.
     Accept linear search using points  1 and  2.
     Minimum is close to point  2 DX= -6.04D-02 DF= -7.81D-06 DXR=  5.30D-02 DFR=  3.77D-03 which will be used.
 Gradient too large for Newton-Raphson -- use scaled steepest descent instead.
     Accept linear search using points  1 and  2.
     Minimum is close to point  2 DX= -3.58D-02 DF= -2.79D-06 DXR=  3.37D-02 DFR=  1.34D-03 which will be used.
 Gradient too large for Newton-Raphson -- use scaled steepest descent instead.
     Minimum is close to point  2 DX=  1.04D-01 DF= -1.58D-05 DXR=  8.67D-02 DFR=  7.57D-03 which will be used.
 Gradient too large for Newton-Raphson -- use scaled steepest descent instead.
 Gradient too large for Newton-Raphson -- use scaled steepest descent instead.
     Accept linear search using points  1 and  2.
 Gradient too large for Newton-Raphson -- use scaled steepest descent instead.
     Accept linear search using points  1 and  2.
     Minimum is close to point  2 DX= -8.49D-02 DF= -1.65D-05 DXR=  6.99D-02 DFR=  7.20D-03 which will be used.
 Gradient too large for Newton-Raphson -- use scaled steepest descent instead.
     Accept linear search using points  1 and  2.
 Gradient too large for Newton-Raphson -- use scaled steepest descent instead.
 Gradient too large for Newton-Raphson -- use scaled steepest descent instead.
     Accept linear search using points  1 and  2.
     Minimum is close to point  2 DX= -5.06D-02 DF= -6.69D-06 DXR=  4.40D-02 DFR=  2.61D-03 which will be used.
 Gradient too large for Newton-Raphson -- use scaled steepest descent instead.
     Accept linear search using points  1 and  2.
     Minimum is close to point  2 DX= -6.70D-02 DF= -1.19D-05 DXR=  5.91D-02 DFR=  4.66D-03 which will be used.
 Gradient too large for Newton-Raphson -- use scaled steepest descent instead.
     Accept linear search using points  1 and  2.
     Minimum is close to point  2 DX= -1.25D-02 DF= -4.06D-07 DXR=  1.15D-02 DFR=  1.58D-04 which will be used.
 Gradient too large for Newton-Raphson -- use scaled steepest descent instead.
 Gradient too large for Newton-Raphson -- use scaled steepest descent instead.
     Accept linear search using points  1 and  2.
     Minimum is close to point  2 DX= -4.83D-02 DF= -5.53D-06 DXR=  4.19D-02 DFR=  2.37D-03 which will be used.
 Gradient too large for Newton-Raphson -- use scaled steepest descent instead.
     Accept linear search using points  1 and  2.
     Minimum is close to point  2 DX= -6.99D-02 DF= -1.11D-05 DXR=  6.18D-02 DFR=  5.10D-03 which will be used.
 Gradient too large for Newton-Raphson -- use scaled steepest descent instead.
     Accept linear search using points  1 and  2.
     Minimum is close to point  2 DX= -1.96D-02 DF= -8.00D-07 DXR=  1.82D-02 DFR=  3.92D-04 which will be used.
 Gradient too large for Newton-Raphson -- use scaled steepest descent instead.
 Gradient too large for Newton-Raphson -- use scaled steepest descent instead.
     Accept linear search using points  1 and  2.
     Minimum is close to point  2 DX= -3.94D-02 DF= -2.58D-06 DXR=  3.39D-02 DFR=  1.56D-03 which will be used.
 Gradient too large for Newton-Raphson -- use scaled steepest descent instead.
     Accept linear search using points  1 and  2.
     Minimum is close to point  2 DX= -5.75D-02 DF= -5.02D-06 DXR=  5.04D-02 DFR=  3.40D-03 which will be used.
 Gradient too large for Newton-Raphson -- use scaled steepest descent instead.
     Accept linear search using points  1 and  2.
     Minimum is close to point  2 DX= -6.74D-02 DF= -6.24D-06 DXR=  5.95D-02 DFR=  4.72D-03 which will be used.
 Gradient too large for Newton-Raphson -- use scaled steepest descent instead.
     Accept linear search using points  1 and  2.
     Minimum is close to point  2 DX= -1.35D-02 DF= -2.16D-07 DXR=  1.24D-02 DFR=  1.83D-04 which will be used.
 Gradient too large for Newton-Raphson -- use scaled steepest descent instead.
 Gradient too large for Newton-Raphson -- use scaled steepest descent instead.
     Accept linear search using points  1 and  2.
     Minimum is close to point  2 DX= -5.39D-02 DF= -2.76D-06 DXR=  4.70D-02 DFR=  2.97D-03 which will be used.
 Gradient too large for Newton-Raphson -- use scaled steepest descent instead.
     Accept linear search using points  1 and  2.
     Minimum is close to point  2 DX= -4.80D-02 DF= -1.96D-06 DXR=  4.16D-02 DFR=  2.33D-03 which will be used.
 Gradient too large for Newton-Raphson -- use scaled steepest descent instead.
     Minimum is close to point  2 DX=  3.57D-02 DF= -7.47D-07 DXR=  3.14D-02 DFR=  9.88D-04 which will be used.
 Gradient too large for Newton-Raphson -- use scaled steepest descent instead.
 Gradient too large for Newton-Raphson -- use scaled steepest descent instead.
     Accept linear search using points  1 and  2.
 Gradient too large for Newton-Raphson -- use scaled steepest descent instead.
     Accept linear search using points  1 and  2.
     Minimum is close to point  2 DX= -5.81D-02 DF= -1.89D-06 DXR=  4.68D-02 DFR=  3.28D-03 which will be used.
 Gradient too large for Newton-Raphson -- use scaled steepest descent instead.
     Accept linear search using points  1 and  2.
     Minimum is close to point  2 DX= -8.80D-02 DF= -4.50D-06 DXR=  7.91D-02 DFR=  8.29D-03 which will be used.
 Gradient too large for Newton-Raphson -- use scaled steepest descent instead.
     Accept linear search using points  1 and  2.
     Minimum is close to point  2 DX= -5.51D-02 DF= -1.58D-06 DXR=  4.81D-02 DFR=  3.10D-03 which will be used.
 Gradient too large for Newton-Raphson -- use scaled steepest descent instead.
     Minimum is close to point  2 DX=  6.57D-02 DF= -1.51D-06 DXR=  5.64D-02 DFR=  3.19D-03 which will be used.
 Gradient too large for Newton-Raphson -- use scaled steepest descent instead.
 Gradient too large for Newton-Raphson -- use scaled steepest descent instead.
     Accept linear search using points  1 and  2.
 Gradient too large for Newton-Raphson -- use scaled steepest descent instead.
     Accept linear search using points  1 and  2.
     Minimum is close to point  2 DX= -3.28D-02 DF= -4.11D-07 DXR=  2.59D-02 DFR=  1.03D-03 which will be used.
 Gradient too large for Newton-Raphson -- use scaled steepest descent instead.
     Accept linear search using points  1 and  2.
     Minimum is close to point  2 DX= -4.86D-02 DF= -9.15D-07 DXR=  4.22D-02 DFR=  2.40D-03 which will be used.
 Gradient too large for Newton-Raphson -- use scaled steepest descent instead.
     Accept linear search using points  1 and  2.
     Minimum is close to point  2 DX= -5.66D-03 DF= -1.12D-08 DXR=  4.74D-03 DFR=  3.10D-05 which will be used.
 Gradient too large for Newton-Raphson -- use scaled steepest descent instead.
     Minimum is close to point  2 DX=  6.29D-02 DF= -8.40D-07 DXR=  4.98D-02 DFR=  2.48D-03 which will be used.
 Gradient too large for Newton-Raphson -- use scaled steepest descent instead.
 Gradient too large for Newton-Raphson -- use scaled steepest descent instead.
     Accept linear search using points  1 and  2.
     Minimum is close to point  2 DX= -9.27D-02 DF= -2.56D-06 DXR=  7.68D-02 DFR=  8.65D-03 which will be used.
 Gradient too large for Newton-Raphson -- use scaled steepest descent instead.
     Accept linear search using points  1 and  2.
 Gradient too large for Newton-Raphson -- use scaled steepest descent instead.
     Minimum is close to point  2 DX=  3.39D-02 DF= -1.98D-07 DXR=  2.74D-02 DFR=  7.53D-04 which will be used.
 LinEq1:  Iter=  0 NonCon=     1 RMS=2.49D-04 Max=1.31D-02 NDo=     1
 AX will form     1 AO Fock derivatives at one time.
 LinEq1:  Iter=  1 NonCon=     1 RMS=1.92D-04 Max=7.60D-03 NDo=     1
 LinEq1:  Iter=  2 NonCon=     1 RMS=2.86D-05 Max=7.65D-04 NDo=     1
 LinEq1:  Iter=  3 NonCon=     1 RMS=7.75D-06 Max=2.75D-04 NDo=     1
 LinEq1:  Iter=  4 NonCon=     1 RMS=3.26D-06 Max=7.52D-05 NDo=     1
 LinEq1:  Iter=  5 NonCon=     1 RMS=1.40D-06 Max=3.92D-05 NDo=     1
 LinEq1:  Iter=  6 NonCon=     1 RMS=4.98D-07 Max=2.05D-05 NDo=     1
 LinEq1:  Iter=  7 NonCon=     1 RMS=2.03D-07 Max=7.68D-06 NDo=     1
 LinEq1:  Iter=  8 NonCon=     1 RMS=8.20D-08 Max=2.52D-06 NDo=     1
 LinEq1:  Iter=  9 NonCon=     1 RMS=2.85D-08 Max=7.83D-07 NDo=     1
 LinEq1:  Iter= 10 NonCon=     1 RMS=8.41D-09 Max=2.73D-07 NDo=     1
 LinEq1:  Iter= 11 NonCon=     0 RMS=2.55D-09 Max=5.72D-08 NDo=     1
 Linear equations converged to 1.039D-08 1.039D-07 after    11 iterations.
 Gradient too large for Newton-Raphson -- use scaled steepest descent instead.
 Gradient too large for Newton-Raphson -- use scaled steepest descent instead.
     Accept linear search using points  1 and  2.
 LinEq1:  Iter=  0 NonCon=     1 RMS=2.40D-04 Max=1.24D-02 NDo=     1
 LinEq1:  Iter=  1 NonCon=     1 RMS=1.90D-04 Max=8.41D-03 NDo=     1
 LinEq1:  Iter=  2 NonCon=     1 RMS=2.20D-05 Max=7.87D-04 NDo=     1
 LinEq1:  Iter=  3 NonCon=     1 RMS=4.19D-06 Max=1.20D-04 NDo=     1
 LinEq1:  Iter=  4 NonCon=     1 RMS=2.34D-06 Max=5.66D-05 NDo=     1
 LinEq1:  Iter=  5 NonCon=     1 RMS=6.14D-07 Max=1.77D-05 NDo=     1
 LinEq1:  Iter=  6 NonCon=     1 RMS=2.23D-07 Max=8.55D-06 NDo=     1
 LinEq1:  Iter=  7 NonCon=     1 RMS=7.39D-08 Max=2.34D-06 NDo=     1
 LinEq1:  Iter=  8 NonCon=     1 RMS=1.94D-08 Max=5.33D-07 NDo=     1
 LinEq1:  Iter=  9 NonCon=     1 RMS=5.19D-09 Max=1.10D-07 NDo=     1
 LinEq1:  Iter= 10 NonCon=     0 RMS=1.79D-09 Max=4.12D-08 NDo=     1
 Linear equations converged to 1.039D-08 1.039D-07 after    10 iterations.
     Accept linear search using points  1 and  2.
 LinEq1:  Iter=  0 NonCon=     1 RMS=1.91D-04 Max=6.05D-03 NDo=     1
 LinEq1:  Iter=  1 NonCon=     1 RMS=5.81D-05 Max=2.09D-03 NDo=     1
 LinEq1:  Iter=  2 NonCon=     1 RMS=3.00D-05 Max=1.26D-03 NDo=     1
 LinEq1:  Iter=  3 NonCon=     1 RMS=1.20D-05 Max=4.05D-04 NDo=     1
 LinEq1:  Iter=  4 NonCon=     1 RMS=5.53D-06 Max=1.44D-04 NDo=     1
 LinEq1:  Iter=  5 NonCon=     1 RMS=2.06D-06 Max=3.61D-05 NDo=     1
 LinEq1:  Iter=  6 NonCon=     1 RMS=6.71D-07 Max=1.15D-05 NDo=     1
 LinEq1:  Iter=  7 NonCon=     1 RMS=1.49D-07 Max=2.72D-06 NDo=     1
 LinEq1:  Iter=  8 NonCon=     1 RMS=4.21D-08 Max=8.16D-07 NDo=     1
 LinEq1:  Iter=  9 NonCon=     1 RMS=1.48D-08 Max=4.26D-07 NDo=     1
 LinEq1:  Iter= 10 NonCon=     1 RMS=5.13D-09 Max=1.11D-07 NDo=     1
 LinEq1:  Iter= 11 NonCon=     0 RMS=2.46D-09 Max=8.36D-08 NDo=     1
 Linear equations converged to 1.039D-08 1.039D-07 after    11 iterations.
     Accept linear search using points  1 and  2.
     Minimum is close to point  2 DX= -1.05D-02 DF= -1.60D-07 DXR=  1.06D-02 DFR=  1.31D-04 which will be used.
 LinEq1:  Iter=  0 NonCon=     1 RMS=1.07D-04 Max=2.53D-03 NDo=     1
 LinEq1:  Iter=  1 NonCon=     1 RMS=3.97D-05 Max=1.07D-03 NDo=     1
 LinEq1:  Iter=  2 NonCon=     1 RMS=1.63D-05 Max=3.10D-04 NDo=     1
 LinEq1:  Iter=  3 NonCon=     1 RMS=6.23D-06 Max=2.15D-04 NDo=     1
 LinEq1:  Iter=  4 NonCon=     1 RMS=3.03D-06 Max=9.08D-05 NDo=     1
 LinEq1:  Iter=  5 NonCon=     1 RMS=1.28D-06 Max=3.68D-05 NDo=     1
 LinEq1:  Iter=  6 NonCon=     1 RMS=4.67D-07 Max=1.15D-05 NDo=     1
 LinEq1:  Iter=  7 NonCon=     1 RMS=1.27D-07 Max=3.66D-06 NDo=     1
 LinEq1:  Iter=  8 NonCon=     1 RMS=4.79D-08 Max=1.41D-06 NDo=     1
 LinEq1:  Iter=  9 NonCon=     1 RMS=1.51D-08 Max=4.61D-07 NDo=     1
 LinEq1:  Iter= 10 NonCon=     1 RMS=4.17D-09 Max=1.09D-07 NDo=     1
 LinEq1:  Iter= 11 NonCon=     0 RMS=1.25D-09 Max=3.67D-08 NDo=     1
 Linear equations converged to 1.039D-08 1.039D-07 after    11 iterations.
     Minimum is close to point  2 DX=  3.75D-02 DF= -2.36D-07 DXR=  3.62D-02 DFR=  1.31D-03 which will be used.
 LinEq1:  Iter=  0 NonCon=     1 RMS=5.11D-06 Max=1.74D-04 NDo=     1
 LinEq1:  Iter=  1 NonCon=     1 RMS=2.18D-06 Max=5.58D-05 NDo=     1
 LinEq1:  Iter=  2 NonCon=     1 RMS=9.40D-07 Max=2.25D-05 NDo=     1
 LinEq1:  Iter=  3 NonCon=     1 RMS=4.16D-07 Max=1.30D-05 NDo=     1
 LinEq1:  Iter=  4 NonCon=     1 RMS=1.64D-07 Max=4.62D-06 NDo=     1
 LinEq1:  Iter=  5 NonCon=     1 RMS=6.99D-08 Max=1.91D-06 NDo=     1
 LinEq1:  Iter=  6 NonCon=     1 RMS=2.39D-08 Max=4.17D-07 NDo=     1
 LinEq1:  Iter=  7 NonCon=     1 RMS=6.65D-09 Max=1.49D-07 NDo=     1
 LinEq1:  Iter=  8 NonCon=     1 RMS=2.40D-09 Max=4.59D-08 NDo=     1
 LinEq1:  Iter=  9 NonCon=     0 RMS=7.23D-10 Max=1.62D-08 NDo=     1
 Linear equations converged to 2.166D-09 2.166D-08 after     9 iterations.
     Minimum is close to point  2 DX=  4.81D-03 DF= -1.80D-11 DXR=  4.79D-03 DFR=  2.29D-05 which will be used.
 LinEq1:  Iter=  0 NonCon=     1 RMS=3.58D-07 Max=8.26D-06 NDo=     1
 LinEq1:  Iter=  1 NonCon=     1 RMS=1.68D-07 Max=5.39D-06 NDo=     1
 LinEq1:  Iter=  2 NonCon=     1 RMS=5.69D-08 Max=1.71D-06 NDo=     1
 LinEq1:  Iter=  3 NonCon=     1 RMS=1.63D-08 Max=4.28D-07 NDo=     1
 LinEq1:  Iter=  4 NonCon=     1 RMS=6.41D-09 Max=1.55D-07 NDo=     1
 LinEq1:  Iter=  5 NonCon=     1 RMS=2.51D-09 Max=5.44D-08 NDo=     1
 LinEq1:  Iter=  6 NonCon=     1 RMS=1.16D-09 Max=3.30D-08 NDo=     1
 LinEq1:  Iter=  7 NonCon=     1 RMS=4.53D-10 Max=9.57D-09 NDo=     1
 LinEq1:  Iter=  8 NonCon=     1 RMS=1.59D-10 Max=2.78D-09 NDo=     1
 LinEq1:  Iter=  9 NonCon=     1 RMS=7.55D-11 Max=2.18D-09 NDo=     1
 LinEq1:  Iter= 10 NonCon=     0 RMS=2.09D-11 Max=4.58D-10 NDo=     1
 Linear equations converged to 1.916D-10 1.916D-09 after    10 iterations.
 SCF Done:  E(UPM6) =   2.01840176294     a.u. after   72 cycles
            Convg  =    0.9930D-06                   196 Fock formations.
              S**2 =  4.5627                  -V/T =  1.0190
 <Sx>= 0.0000 <Sy>= 0.0000 <Sz>= 0.5000 <S**2>= 4.5627 S= 1.6938
 <L.S>= 0.000000000000E+00
 Annihilation of the first spin contaminant:
 S**2 before annihilation     4.5627,   after    15.4360

 **********************************************************************

            Population analysis using the SCF density.

 **********************************************************************

 Orbital symmetries:
 Alpha Orbitals:
       Occupied  (A) (A) (A) (A) (A) (A) (A) (A) (A) (A) (A) (A)
                 (A) (A) (A) (A) (A) (A) (A) (A) (A) (A) (A) (A)
                 (A) (A) (A) (A) (A) (A) (A) (A) (A) (A) (A) (A)
                 (A) (A) (A) (A) (A) (A) (A) (A) (A) (A) (A) (A)
                 (A) (A) (A) (A) (A) (A) (A) (A) (A) (A) (A) (A)
                 (A) (A) (A) (A) (A) (A) (A) (A) (A) (A) (A) (A)
                 (A) (A)
       Virtual   (A) (A) (A) (A) (A) (A) (A) (A) (A) (A) (A) (A)
                 (A) (A) (A) (A) (A) (A) (A) (A) (A) (A) (A) (A)
                 (A) (A) (A) (A) (A) (A) (A) (A) (A) (A) (A) (A)
                 (A) (A) (A) (A) (A) (A) (A) (A) (A) (A) (A) (A)
                 (A) (A) (A) (A) (A) (A) (A) (A) (A) (A) (A) (A)
                 (A) (A) (A) (A) (A) (A) (A) (A) (A) (A) (A) (A)
                 (A)
 Beta  Orbitals:
       Occupied  (A) (A) (A) (A) (A) (A) (A) (A) (A) (A) (A) (A)
                 (A) (A) (A) (A) (A) (A) (A) (A) (A) (A) (A) (A)
                 (A) (A) (A) (A) (A) (A) (A) (A) (A) (A) (A) (A)
                 (A) (A) (A) (A) (A) (A) (A) (A) (A) (A) (A) (A)
                 (A) (A) (A) (A) (A) (A) (A) (A) (A) (A) (A) (A)
                 (A) (A) (A) (A) (A) (A) (A) (A) (A) (A) (A) (A)
                 (A)
       Virtual   (A) (A) (A) (A) (A) (A) (A) (A) (A) (A) (A) (A)
                 (A) (A) (A) (A) (A) (A) (A) (A) (A) (A) (A) (A)
                 (A) (A) (A) (A) (A) (A) (A) (A) (A) (A) (A) (A)
                 (A) (A) (A) (A) (A) (A) (A) (A) (A) (A) (A) (A)
                 (A) (A) (A) (A) (A) (A) (A) (A) (A) (A) (A) (A)
                 (A) (A) (A) (A) (A) (A) (A) (A) (A) (A) (A) (A)
                 (A) (A)
 The electronic state is 2-A.
 Alpha  occ. eigenvalues --   -1.62181  -1.26343  -1.17561  -1.12746  -1.10469
 Alpha  occ. eigenvalues --   -1.08754  -1.07310  -1.05518  -1.05236  -1.01022
 Alpha  occ. eigenvalues --   -0.99119  -0.98508  -0.95175  -0.94426  -0.90921
 Alpha  occ. eigenvalues --   -0.90264  -0.87101  -0.83290  -0.82765  -0.80744
 Alpha  occ. eigenvalues --   -0.80443  -0.80079  -0.75340  -0.74984  -0.74212
 Alpha  occ. eigenvalues --   -0.70185  -0.69622  -0.66088  -0.65075  -0.63978
 Alpha  occ. eigenvalues --   -0.61191  -0.60938  -0.60742  -0.59378  -0.58164
 Alpha  occ. eigenvalues --   -0.57272  -0.57173  -0.56331  -0.56151  -0.54657
 Alpha  occ. eigenvalues --   -0.53614  -0.52338  -0.52090  -0.51529  -0.51044
 Alpha  occ. eigenvalues --   -0.50936  -0.50194  -0.49950  -0.49428  -0.49118
 Alpha  occ. eigenvalues --   -0.48109  -0.47526  -0.47164  -0.46783  -0.46308
 Alpha  occ. eigenvalues --   -0.44803  -0.44225  -0.43684  -0.43617  -0.42930
 Alpha  occ. eigenvalues --   -0.40878  -0.40665  -0.39890  -0.39735  -0.38920
 Alpha  occ. eigenvalues --   -0.37139  -0.36587  -0.36155  -0.34751  -0.33593
 Alpha  occ. eigenvalues --   -0.32067  -0.31569  -0.30779  -0.29188
 Alpha virt. eigenvalues --   -0.04277  -0.02419  -0.00691  -0.00265   0.00552
 Alpha virt. eigenvalues --    0.01735   0.02326   0.03241   0.03422   0.05166
 Alpha virt. eigenvalues --    0.05275   0.06122   0.06467   0.06854   0.07889
 Alpha virt. eigenvalues --    0.08583   0.10018   0.10090   0.10969   0.11037
 Alpha virt. eigenvalues --    0.11361   0.11587   0.11821   0.12479   0.13262
 Alpha virt. eigenvalues --    0.13742   0.14161   0.14245   0.14939   0.15074
 Alpha virt. eigenvalues --    0.15435   0.15508   0.16008   0.16209   0.16254
 Alpha virt. eigenvalues --    0.16491   0.16555   0.16821   0.17085   0.17189
 Alpha virt. eigenvalues --    0.17536   0.17620   0.17805   0.18096   0.18147
 Alpha virt. eigenvalues --    0.18354   0.18428   0.18457   0.18592   0.18792
 Alpha virt. eigenvalues --    0.19004   0.19327   0.19819   0.19973   0.20025
 Alpha virt. eigenvalues --    0.20445   0.20950   0.20985   0.21094   0.21338
 Alpha virt. eigenvalues --    0.21527   0.21691   0.21815   0.21929   0.21988
[...]
 0000111,0.00045334,0.00047974,-0.00013345,0.00003848,0.00006918,0.0000
 0224,0.00001545,0.00003531,-0.00000329,-0.00001289,0.00003468,-0.00000
 204,-0.00001340,0.00002132,-0.00000160,-0.00001259,0.00001780,-0.00000
 412,-0.00002236,0.00000004,-0.00000711,-0.00001265,-0.00001777,-0.0000
 0410,-0.00001347,-0.00002127,-0.00000158,-0.00001302,-0.00003462,-0.00
 000200,0.00001531,-0.00003533,-0.00000325,0.00003814,-0.00006912,0.000
 00234,0.00044853,-0.00048267,-0.00013262,0.27046188,-0.00000743,-0.000
 01008,0.00000036,-0.00002552,0.00000463,0.00000344,-0.00001320,-0.0000
 9965,-0.00001007,-0.00089907,-0.00235749,0.00003554,0.00033522,-0.0335
 8142,-0.00003267,-0.00052824,-0.00003001,0.00005550,-0.02910587,-0.007
 44774,0.00262345,0.00000314,0.00000183,0.00000122,0.00000282,0.0000002
 8,0.00000130,-0.00001530,-0.00000247,0.00000056,0.00000066,-0.00000049
 ,-0.00000054,-0.00000004,-0.00000082,-0.00000001,-0.00000291,0.0000083
 8,0.00000562,-0.00000008,-0.00000030,-0.00000006,-0.00000285,0.0000003
 3,-0.00000131,0.00000012,0.00000820,-0.00000021,0.00000282,0.00000844,
 -0.00000558,-0.00000319,0.00000196,-0.00000123,0.00089242,-0.00236493,
 -0.00002907,0.00001268,-0.00009988,0.00001005,0.00000728,-0.00000997,-
 0.00000035,0.00000073,0.00000522,0.00000055,-0.00000071,-0.00000055,0.
 00000052,-0.00000066,-0.00005758,0.00000012,-0.00000070,0.00000521,-0.
 00000056,0.00001529,-0.00000259,-0.00000050,0.02917619,-0.00760864,-0.
 00261894,0.00052903,-0.00003201,-0.00005572,0.00002559,0.00000455,-0.0
 0000344,0.00087442,-0.00033624,-0.00007914,0.00002496,0.00005475,-0.00
 000618,0.00000397,0.00000878,-0.00000076,0.00000104,0.00000457,-0.0000
 0023,-0.00000056,0.00000103,0.00000010,-0.00000021,0.00000011,-0.00000
 013,0.00000004,0.00000018,0.00000001,0.00000026,0.00000017,0.00000015,
 0.00000061,0.00000111,-0.00000009,-0.00000098,0.00000470,0.00000024,-0
 .00000399,0.00000893,0.00000077,-0.00002490,0.00005508,0.00000620,-0.0
 0087738,-0.00033130,0.00007881,-0.00039564,0.05422032,-0.00000274,-0.0
 0000394,0.00000598,0.00000104,-0.00000293,-0.00000327,-0.00002689,0.00
 003247,-0.00020853,0.00052201,0.00000283,0.00481456,0.01584880,-0.0000
 3231,-0.04147595,0.00003146,0.00001552,-0.00022099,0.00282434,0.001327
 61,0.00540924,-0.00000438,-0.00000468,-0.00000639,-0.00000080,-0.00000
 309,-0.00000189,0.00000659,0.00000434,-0.00000068,-0.00000294,0.000002
 84,-0.00000318,-0.00000341,0.,-0.00000239,0.00000205,-0.00000919,0.000
 03312,-0.00000847,0.00000007,-0.00000883,-0.00000079,0.00000309,-0.000
 00189,-0.00003189,-0.00000023,-0.00046709,0.00000209,0.00000922,0.0000
 3311,-0.00000436,0.00000469,-0.00000639,0.00052092,0.00000345,0.004814
 69,-0.00002702,-0.00003248,-0.00020851,-0.00000274,0.00000397,0.000005
 97,-0.00000543,-0.00001784,0.00000234,-0.00000295,-0.00000283,-0.00000
 318,-0.00005693,0.00000016,0.00005569,-0.00000538,0.00001788,0.0000023
 2,0.00000656,-0.00000436,-0.00000067,0.00278709,-0.00132324,0.00541367
 ,0.00003084,-0.00001590,-0.00022092,0.00000103,0.00000291,-0.00000327,
 -0.00015294,-0.00004592,-0.00105379,0.00000043,-0.00000045,0.00008631,
 -0.00000181,-0.00000373,0.00000773,0.00000173,-0.00000334,0.00000295,0
 .00000135,-0.00000300,0.00000328,0.00000086,-0.00000252,0.00000204,0.0
 0000277,0.,0.00000210,0.00000087,0.00000252,0.00000204,0.00000136,0.00
 000300,0.00000328,0.00000174,0.00000333,0.00000295,-0.00000179,0.00000
 374,0.00000773,0.00000046,0.00000048,0.00008630,-0.00015179,0.00004564
 ,-0.00105390,-0.02212636,0.00002231,0.02413306,0.00035290,-0.00124803,
 -0.00037737,-0.00011987,0.00025945,-0.00001220,-0.00270577,-0.00056025
 ,0.00026869,-0.00005711,-0.00085050,-0.00007497,0.00030520,-0.00000264
 ,-0.00001371,0.00114298,0.00041638,-0.00015322,0.00009973,-0.00021753,
 0.00004266,-0.00680712,0.00463766,0.00009481,-0.00038026,-0.00194194,0
 .00037612,0.01406197,0.00935059,0.00435663,-0.00929356,-0.02373374,-0.
 01347027,-0.00076660,-0.00000643,-0.00024324,-0.05967079,0.07305471,0.
 04860099,-0.11216646,0.00011844,-0.08406060,-0.00036175,0.00194501,0.0
 0037987,0.00433287,-0.00002246,-0.00064859,-0.06015235,-0.07308697,0.0
 4889194,-0.00685763,-0.00460158,0.00009657,-0.00004897,0.00085178,-0.0
 0007631,-0.00270916,0.00058623,0.00026146,0.00035250,0.00123730,-0.000
 38214,-0.01874918,0.00396466,0.00725373,-0.00920088,0.02375972,-0.0134
 9280,-0.00290360,0.00000146,0.00028171,-0.01889403,-0.00386105,0.00730
 261,0.01411004,-0.00949617,0.00441204,0.00009620,0.00021804,0.00004293
 ,0.00114255,-0.00041874,-0.00015463,-0.00010974,-0.00026408,-0.0000124
 9,-0.00006013,-0.00010014,-0.00001675,-0.00009996,-0.00012293,-0.00000
 090,-0.00011428,-0.00020308,0.00004622,0.00031961,-0.00005130,-0.00002
 039,-0.00026102,0.00029809,-0.00000475,-0.00023365,0.00015910,0.000068
 47,-0.00015904,0.00000013,-0.00018895,-0.00023524,-0.00015776,0.000069
 91,-0.00026485,-0.00030277,-0.00000534,0.00031895,0.00004846,-0.000020
 59,-0.00011266,0.00020198,0.00004483,-0.00009953,0.00012310,-0.0000013
 4,-0.00005965,0.00010054,-0.00001689,-0.00014362,0.00000020,-0.0000070
 4,0.33358930,0.00135000,-0.00253819,0.00082589,-0.00301730,-0.00145735
 ,0.00016235,0.00135143,0.00461080,0.00157818,-0.00143844,0.00026845,0.
 00008776,-0.00000209,-0.00115433,0.00000078,-0.00017997,0.00049225,0.0
 0048609,0.00118147,0.00024718,-0.00013019,0.00916481,0.00331860,0.0013
 9850,-0.00384359,0.00061567,-0.00172987,-0.02096948,-0.02724262,-0.012
 12071,-0.00410267,0.00051579,-0.00121204,-0.00000687,-0.00455324,0.000
 00239,0.06087230,-0.08353157,-0.04595126,0.00012354,-0.00311733,0.0000
 6659,0.00383572,0.00059520,0.00172702,-0.00002477,-0.00821543,0.000005
 92,-0.06087194,-0.08290367,0.04581182,-0.00913111,0.00336520,-0.001405
 43,0.00143633,0.00025830,-0.00008764,-0.00132994,0.00460805,-0.0015836
 7,-0.00135789,-0.00253431,-0.00082084,0.03501999,0.00662954,-0.0117942
 0,0.00411317,0.00046007,0.00124579,0.00000098,-0.00201885,0.00000021,-
 0.03491244,0.00678602,0.01176088,0.02082782,-0.02725305,0.01214251,-0.
 00118371,0.00025253,0.00013068,0.00017600,0.00049144,-0.00048529,0.003
 01552,-0.00147142,-0.00015978,-0.00003113,0.00005416,0.00000770,-0.000
 00373,-0.00003654,0.00009254,-0.00022217,-0.00039084,0.00029283,0.0001
 8830,-0.00045769,0.00005298,0.00080899,-0.00163569,0.00018118,0.000276
 46,0.00009793,-0.00018678,0.00000111,-0.00003247,0.00000047,-0.0002701
 0,0.00009960,0.00018836,-0.00081433,-0.00162740,-0.00017989,-0.0001941
 0,-0.00045468,-0.00005216,0.00021838,-0.00039379,-0.00029310,0.0000044
 4,-0.00003790,-0.00009310,0.00003317,0.00005403,-0.00000830,0.00000043
 ,-0.00002285,-0.00000017,-0.00012150,0.24232401,-0.00109634,-0.0015839
 2,0.00131621,-0.00043046,-0.00075807,-0.00004007,0.00094845,0.00218509
 ,0.00183839,-0.00016754,0.00037927,0.00004761,0.00004307,0.00000067,0.
 00001153,0.00012154,-0.00038193,0.00002077,0.00012817,0.00001482,0.000
 02940,0.00078491,0.00165397,-0.00164360,0.00035149,0.00022479,0.001581
 94,-0.00402975,-0.01545523,-0.00362188,-0.00803212,-0.01969744,-0.0028
 6248,-0.00067950,0.00000479,-0.00029098,0.04462192,-0.06590171,-0.0638
 9716,-0.08378363,0.00006558,-0.10493569,0.00034382,-0.00022607,0.00157
 958,-0.00231263,0.00001038,-0.00153505,0.04496731,0.06580318,-0.064089
 58,0.00079138,-0.00166102,-0.00164162,-0.00017101,-0.00037887,0.000048
 15,0.00094203,-0.00219330,0.00184330,-0.00108835,0.00159275,0.00131649
 ,0.01632794,-0.00347347,-0.00283515,-0.00796818,0.01972482,-0.00288749
 ,0.00135682,-0.00000109,-0.00013063,0.01639439,0.00340406,-0.00285368,
 -0.00400436,0.01550558,-0.00365632,0.00012980,-0.00001571,0.00002925,0
 .00012286,0.00038086,0.00002095,-0.00043197,0.00076163,-0.00004072,-0.
 00003303,-0.00005569,-0.00002404,0.00000097,-0.00008514,-0.00010128,-0
 .00007716,-0.00011205,-0.00019645,0.00020960,0.00024354,-0.00002767,-0
 .00032146,0.00019883,0.00008632,0.00011385,0.00029544,0.00005516,-0.00
 004424,0.,-0.00021484,0.00011325,-0.00029585,0.00005513,-0.00032112,-0
 .00019544,0.00008616,0.00020895,-0.00024374,-0.00002731,-0.00007697,0.
 00011248,-0.00019610,0.00000126,0.00008504,-0.00010125,-0.00003286,0.0
 0005572,-0.00002409,-0.00007603,0.00000014,-0.00001356,0.03531861,-0.0
 0001395,0.33867072,-0.00018993,0.00005601,0.00009440,0.00036243,-0.000
 29627,0.00018436,0.00011894,0.00007906,-0.00020361,0.00005219,0.000065
 82,-0.00009504,0.00009136,0.00000044,0.00003954,0.00000484,-0.00018510
 ,0.00027033,0.00002496,-0.00004628,0.00013846,-0.00092416,0.00074889,-
 0.00028948,0.00006161,-0.00073717,-0.00039530,-0.00022429,-0.00082993,
 -0.00027505,-0.00125547,-0.00306923,-0.00218728,-0.00068876,0.00000359
 ,-0.00017310,-0.00207954,0.00085279,0.00151149,-0.00063014,0.00003262,
 0.00983032,0.00006416,0.00073581,-0.00039546,-0.00020675,-0.00000095,-
 0.00030893,-0.00207276,-0.00083441,0.00149987,-0.00092889,-0.00074447,
 -0.00028824,0.00005222,-0.00006609,-0.00009503,0.00011826,-0.00007937,
 -0.00020385,-0.00019063,-0.00005574,0.00009451,0.00081978,0.00041839,0
 .00009931,-0.00124024,0.00307154,-0.00218887,0.00011497,-0.00000048,0.
 00009809,0.00081547,-0.00041869,0.00010216,-0.00021825,0.00082801,-0.0
 0027498,0.00002491,0.00004644,0.00013848,0.00000576,0.00018551,0.00027
 008,0.00036425,0.00029509,0.00018417,-0.00006173,-0.00008364,-0.000086
 91,-0.00007872,-0.00012687,-0.00014232,-0.00010823,-0.00021655,-0.0000
 9730,0.00008234,-0.00008388,-0.00008488,0.00013139,-0.00025682,0.00000
 089,-0.00000302,-0.00022384,0.00007483,0.00030459,-0.00000047,0.000116
 39,-0.00000240,0.00022397,0.00007475,0.00013212,0.00025610,0.00000065,
 0.00008257,0.00008341,-0.00008491,-0.00010735,0.00021664,-0.00009746,-
 0.00007827,0.00012695,-0.00014240,-0.00006141,0.00008374,-0.00008698,-
 0.00009831,0.00000011,-0.00005463,-0.01985309,-0.00009441,-0.07012543,
 0.34072641,0.00019086,-0.00018269,0.00005489,-0.00029485,-0.00006277,0
 .00001790,0.00006011,0.00022043,0.00026588,-0.00010204,0.00001927,0.00
 000985,-0.00000034,-0.00008825,0.00000002,-0.00002503,0.00005791,0.000
 06159,0.00009525,0.00000927,-0.00001235,0.00084125,0.00063470,-0.00012
 318,-0.00028721,-0.00009637,-0.00030488,-0.00152602,-0.00101299,-0.000
 37058,-0.00095082,0.00000202,-0.00032379,-0.00000040,-0.00041006,0.000
 00033,-0.00474241,0.00412737,0.00483605,-0.00000303,-0.00532756,-0.000
 00808,0.00028773,-0.00009792,0.00030667,-0.00000052,-0.00019109,0.0000
 0027,0.00475784,0.00410295,-0.00484773,-0.00083736,0.00063647,0.000122
 88,0.00010244,0.00001910,-0.00000975,-0.00005815,0.00022107,-0.0002664
 6,-0.00019181,-0.00018194,-0.00005493,0.00181138,0.00125104,-0.0006988
 6,0.00095456,-0.00000254,0.00033063,0.00000021,-0.00016308,-0.00000003
 ,-0.00180939,0.00125968,0.00069675,0.00152312,-0.00101876,0.00037263,-
 0.00009500,0.00000920,0.00001208,0.00002529,0.00005780,-0.00006218,0.0
 0029376,-0.00006356,-0.00001815,-0.00000400,0.00000223,-0.00000009,0.0
 0000314,-0.00000780,0.00001678,-0.00003234,-0.00005278,0.00002953,0.00
 001848,-0.00002357,-0.00000401,0.00004578,-0.00011394,0.00000305,0.000
 05104,0.00002173,-0.00002891,-0.00000031,-0.00000194,-0.00000018,-0.00
 005138,0.00002156,0.00002844,-0.00004615,-0.00011467,-0.00000317,-0.00
 001813,-0.00002382,0.00000416,0.00003253,-0.00005284,-0.00002928,-0.00
 000327,-0.00000776,-0.00001647,0.00000381,0.00000211,0.00000026,0.,-0.
 00000487,0.00000006,0.00000958,0.00755805,0.00004951,-0.00019209,0.008
 19388,-0.00030235,-0.00011660,0.00016154,0.00041029,-0.00048805,0.0002
 3157,0.00028384,0.00028551,-0.00023710,0.00004758,0.00021229,-0.000108
 51,0.00012471,0.00000082,0.00004842,-0.00008491,-0.00031148,0.00034180
 ,0.00005046,-0.00005557,0.00016661,-0.00050790,0.00089291,-0.00057679,
 0.00010341,-0.00038734,-0.00012846,-0.00097669,-0.00176776,-0.00011650
 ,-0.00117142,-0.00494573,-0.00042117,-0.00090571,0.00000584,-0.0002235
 6,-0.00493140,0.00393051,0.00275690,0.00450829,0.00004403,0.00025121,0
 .00010328,0.00038639,-0.00012954,-0.00075446,0.00000070,-0.00041814,-0
 .00495572,-0.00391597,0.00276490,-0.00050978,-0.00089211,-0.00057592,0
 .00004658,-0.00021263,-0.00010829,0.00028268,-0.00028772,-0.00023597,-
 0.00030186,0.00011819,0.00016188,0.00175241,0.00089649,-0.00008270,-0.
 00115358,0.00494919,-0.00042587,0.00045973,-0.00000078,0.00011438,0.00
 175421,-0.00090478,-0.00008184,-0.00097279,0.00177275,-0.00011870,0.00
 005089,0.00005559,0.00016656,-0.00008366,0.00031205,0.00034163,0.00041
 164,0.00048716,0.00023126,-0.00009134,-0.00012620,-0.00010724,-0.00010
 730,-0.00018457,-0.00017974,-0.00015151,-0.00030387,-0.00013699,0.0001
 3948,-0.00011041,-0.00011830,0.00017012,-0.00039053,-0.00004895,0.0001
 1824,-0.00022990,0.00002902,0.00040241,-0.00000063,0.00011053,0.000119
 15,0.00022947,0.00002873,0.00017142,0.00038997,-0.00004928,0.00013984,
 0.00010980,-0.00011835,-0.00015041,0.00030421,-0.00013708,-0.00010664,
 0.00018474,-0.00017981,-0.00009089,0.00012637,-0.00010736,-0.00015227,
 0.00000020,-0.00006544,-0.04498544,-0.00011614,-0.07764845,0.44042160,
 -0.00025420,0.59511035,0.00053737,0.00015626,-0.00012784,-0.00060933,0
 .00049925,-0.00024047,-0.00004201,-0.00028178,-0.00008916,-0.00011660,
 0.00001642,0.00014794,-0.00019829,-0.00000012,-0.00005343,-0.00021791,
 0.00024883,-0.00035877,-0.00003413,0.00010360,-0.00021153,0.00208046,-
 0.00129052,0.00073992,-0.00026806,0.00112744,0.00041685,-0.00094655,0.
 00154359,0.00018601,0.00078327,0.00681264,0.00616310,0.00126271,-0.000
 00456,0.00033899,0.00623877,-0.00133013,0.00274666,-0.00368099,-0.0000
 2736,-0.03066230,-0.00027192,-0.00112467,0.00041670,-0.00078562,0.0000
 0449,0.00128424,0.00622853,0.00129271,0.00278634,0.00208905,0.00128178
 ,0.00073790,-0.00011736,-0.00001603,0.00014807,-0.00003975,0.00028092,
 -0.00008872,0.00053807,-0.00015739,-0.00012713,-0.00162590,0.00032033,
 0.00015723,0.00074972,-0.00680844,0.00616614,0.00020873,0.00000022,-0.
 00015174,-0.00162113,-0.00032223,0.00015498,-0.00096126,-0.00153845,0.
 00018441,-0.00003393,-0.00010392,-0.00021156,-0.00021948,-0.00024881,-
 0.00035829,-0.00061263,-0.00049685,-0.00024026,0.00009497,0.00013028,0
 .00012818,0.00011622,0.00019302,0.00023062,0.00016516,0.00033765,0.000
 14284,-0.00017212,0.00010657,0.00013832,-0.00017203,0.00045310,-0.0001
 0925,-0.00001957,0.00029644,-0.00024822,-0.00043750,0.00000069,-0.0001
 3809,-0.00002014,-0.00029667,-0.00024850,-0.00017329,-0.00045221,-0.00
 010896,-0.00017222,-0.00010577,0.00013832,0.00016374,-0.00033770,0.000
 14319,0.00011556,-0.00019311,0.00023070,0.00009448,-0.00013045,0.00012
 830,0.00015959,-0.00000020,0.00008083,-0.03639173,0.00012738,0.0208238
 4,-0.31326120,0.00016486,-0.38875861,0.34151556,-0.00034396,0.00026179
 ,-0.00016870,0.00043287,0.00014959,0.00001064,-0.00022298,-0.00037088,
 -0.00040408,0.00017460,-0.00005198,-0.00001392,0.00000068,0.00015891,0
 .,0.00009432,-0.00009737,-0.00011981,-0.00015996,-0.00002174,0.0000226
 2,-0.00154046,-0.00092456,0.00019663,0.00030279,0.00036161,0.00054379,
 0.00353345,0.00108016,0.00080771,0.00286550,0.00020799,0.00125093,0.00
 000072,0.00049771,-0.00000042,0.00609153,-0.00785621,-0.01398429,0.000
 01011,0.01447604,0.00002499,-0.00030570,0.00036245,-0.00054843,0.00000
 386,0.00064891,-0.00000197,-0.00612183,-0.00780786,0.01397748,0.001531
 89,-0.00092722,-0.00019703,-0.00017628,-0.00005144,0.00001379,0.000217
 63,-0.00037216,0.00040593,0.00034832,0.00026190,0.00016890,-0.00311827
 ,-0.00271551,0.00083856,-0.00287501,0.00022441,-0.00127268,-0.00000110
 ,0.00029844,0.00000005,0.00311601,-0.00272615,-0.00083652,-0.00352701,
 0.00109401,-0.00080827,0.00015841,-0.00002122,-0.00002191,-0.00009484,
 -0.00009838,0.00012105,-0.00043092,0.00014904,-0.00000999,0.00000680,-
 0.00000552,0.00000003,-0.00000852,0.00001248,-0.00001586,0.00005476,0.
 00009558,-0.00005207,-0.00006800,0.00001372,0.00001114,-0.00008430,0.0
 0016518,0.00005040,-0.00013007,-0.00003247,0.00009732,0.00000080,0.000
 00112,0.00000045,0.00013215,-0.00003228,-0.00009563,0.00008487,0.00016
 790,-0.00004974,0.00006617,0.00001504,-0.00001139,-0.00005587,0.000095
 45,0.00005154,0.00000867,0.00001204,0.00001513,-0.00000598,-0.00000531
 ,-0.00000047,0.00000011,0.00000592,-0.00000015,0.00002408,-0.03080495,
 -0.00000582,0.00013019,-0.01906423,0.00017160,-0.00012216,0.05301339,0
 .00090642,0.00054686,-0.00026235,-0.00078891,0.00081877,-0.00026562,-0
 .00021860,-0.00052501,-0.00013740,-0.00015192,-0.00020697,0.00017297,-
 0.00032171,-0.00000040,-0.00006461,-0.00020288,0.00047223,-0.00048261,
 -0.00008165,0.00016201,-0.00025694,0.00101003,-0.00031330,0.00097012,-
 0.00073503,-0.00043622,-0.00031953,0.00039900,0.00255922,0.00018967,-0
 .00044436,0.01001746,0.00078790,0.00158683,-0.00000604,0.00040285,0.01
 050927,-0.00597929,-0.00654532,-0.01941587,-0.00003539,-0.00819248,-0.
 00073348,0.00043765,-0.00031985,0.00057275,-0.00000069,0.00008392,0.01
 053270,0.00593218,-0.00655339,0.00101266,0.00030888,0.00096999,-0.0001
 5120,0.00020771,0.00017280,-0.00021603,0.00052574,-0.00013843,0.000905
 12,-0.00054995,-0.00026275,-0.00126518,-0.00236709,-0.00171455,-0.0004
 7474,-0.01001562,0.00080188,-0.00026846,0.00000056,-0.00025241,-0.0012
 5660,0.00237040,-0.00172142,0.00038922,-0.00255831,0.00019253,-0.00008
 224,-0.00016207,-0.00025682,-0.00020487,-0.00047204,-0.00048223,-0.000
 79263,-0.00081625,-0.00026498,0.00015071,0.00021780,0.00016430,0.00017
 616,0.00030421,0.00029006,0.00023533,0.00046850,0.00021280,-0.00026603
 ,0.00016484,0.00018491,-0.00021556,0.00078733,-0.00004471,-0.00041207,
 0.00017402,-0.00014417,-0.00054562,0.00000090,-0.00009559,-0.00041292,
 -0.00017268,-0.00014397,-0.00021803,-0.00078632,-0.00004368,-0.0002665
 7,-0.00016363,0.00018495,0.00023353,-0.00046890,0.00021299,0.00017507,
 -0.00030446,0.00029022,0.00014992,-0.00021811,0.00016451,0.00027558,-0
 .00000040,0.00009842,0.00029699,0.00016286,-0.01281589,-0.37700342,0.0
 0021469,-0.52027774,0.37767826,-0.00015727,0.55553021||0.00000801,-0.0
 0000050,-0.00000050,-0.00001380,-0.00000646,-0.00000004,-0.00000127,0.
 00000935,0.00000175,-0.00000556,0.00000155,0.00000077,-0.00000594,0.00
 000058,0.00000049,0.00000732,0.00000135,-0.00000018,0.00000283,0.00000
 287,-0.00000033,0.00001418,-0.00000686,0.00000076,0.00000338,-0.000007
 09,0.00000157,-0.00000537,-0.00000189,-0.00000571,-0.00000711,0.000008
 34,-0.00000531,-0.00000228,0.00000562,-0.00000081,-0.00000702,0.000013
 62,0.00002131,-0.00000409,-0.00002040,-0.00000812,-0.00000741,-0.00000
 123,-0.00000377,-0.00002369,0.00001117,0.00000448,-0.00001488,-0.00000
 427,-0.00000514,0.00001525,-0.00000518,0.00000150,-0.00000746,-0.00000
 424,0.00000130,0.00000106,0.00000111,0.00000243,0.00001655,0.00000400,
 0.00000089,0.00001079,-0.00002325,-0.00001242,0.00000962,0.00000097,0.
 00001042,0.00001531,0.00000228,-0.00000198,0.00001530,-0.00001537,0.00
 000012,-0.00001407,0.00000888,0.00000280,0.00000376,-0.00000135,-0.000
 00066,0.00000294,-0.00000061,0.00000025,-0.00001598,0.00000022,0.00000
 055,-0.00000192,-0.00000075,0.00000002,-0.00000036,-0.00000053,-0.0000
 0046,0.00000326,-0.00000036,-0.00000002,-0.00000287,-0.00000130,0.0000
 0141,-0.00000249,0.00000331,-0.00000294,-0.00000046,0.00000101,0.00000
 079,-0.00000047,-0.00000070,-0.00000009,0.00000005,0.00000063,-0.00000
 050,-0.00000058,0.00000226,-0.00000058,-0.00000240,0.00000023,0.000001
 58,0.00000205,0.00000141,-0.00000055,-0.00000042,-0.00000056,-0.000000
 48,-0.00000101,-0.00000008,0.00000010,0.00000054,0.,0.00000012,0.00001
 305,0.00002554,-0.00000440,0.00000247,0.00000230,0.00000393,0.00000119
 ,-0.00000562,-0.00000434|||@


 AND HERE I AM, FOR ALL MY LORE,
 THE WRETCHED FOOL I WAS BEFORE.
 CALLED MASTER OF ARTS, AND DOCTOR TO BOOT,
 FOR TEN YEARS ALMOST I CONFUTE
 AND UP AND DOWN, WHEREVER IT GOES
 I DRAG MY STUDENTS BY THE NOSE --
 AND SEE THAT FOR ALL OUR SCIENCE AND ART
 WE CAN KNOW NOTHING.  IT BURNS MY HEART.

                                       -- FAUST
 Job cpu time:       0 days  0 hours  0 minutes 25.0 seconds.
 File lengths (MBytes):  RWF=    858 Int=      0 D2E=      0 Chk=      6 Scr=      1
 Normal termination of Gaussian 09 at Sun Mar 15 19:28:32 2026.
