 Entering Link 1 = C:\Gaussian\G09W\l1.exe PID=     22788.
  
 Copyright (c) 1988,1990,1992,1993,1995,1998,2003,2009,2013,
            Gaussian, Inc.  All Rights Reserved.
  
 This is part of the Gaussian(R) 09 program.  It is based on
 the Gaussian(R) 03 system (copyright 2003, Gaussian, Inc.),
 the Gaussian(R) 98 system (copyright 1998, Gaussian, Inc.),
 the Gaussian(R) 94 system (copyright 1995, Gaussian, Inc.),
 the Gaussian 92(TM) system (copyright 1992, Gaussian, Inc.),
 the Gaussian 90(TM) system (copyright 1990, Gaussian, Inc.),
 the Gaussian 88(TM) system (copyright 1988, Gaussian, Inc.),
 the Gaussian 86(TM) system (copyright 1986, Carnegie Mellon
 University), and the Gaussian 82(TM) system (copyright 1983,
 Carnegie Mellon University). Gaussian is a federally registered
 trademark of Gaussian, Inc.
  
 This software contains proprietary and confidential information,
 including trade secrets, belonging to Gaussian, Inc.
  
 This software is provided under written license and may be
 used, copied, transmitted, or stored only in accord with that
 written license.
  
 The following legend is applicable only to US Government
 contracts under FAR:
  
                    RESTRICTED RIGHTS LEGEND
  
 Use, reproduction and disclosure by the US Government is
 subject to restrictions as set forth in subparagraphs (a)
 and (c) of the Commercial Computer Software - Restricted
 Rights clause in FAR 52.227-19.
  
 Gaussian, Inc.
 340 Quinnipiac St., Bldg. 40, Wallingford CT 06492
  
  
 ---------------------------------------------------------------
 Warning -- This program may not be used in any manner that
 competes with the business of Gaussian, Inc. or will provide
 assistance to any competitor of Gaussian, Inc.  The licensee
 of this program is prohibited from giving any competitor of
 Gaussian, Inc. access to this program.  By using this program,
 the user acknowledges that Gaussian, Inc. is engaged in the
 business of creating and licensing software in the field of
 computational chemistry and represents and warrants to the
 licensee that it is not a competitor of Gaussian, Inc. and that
 it will not use this program in any manner prohibited above.
 ---------------------------------------------------------------
  

 Cite this work as:
 Gaussian 09, Revision D.01,
 M. J. Frisch, G. W. Trucks, H. B. Schlegel, G. E. Scuseria, 
 M. A. Robb, J. R. Cheeseman, G. Scalmani, V. Barone, B. Mennucci, 
 G. A. Petersson, H. Nakatsuji, M. Caricato, X. Li, H. P. Hratchian, 
 A. F. Izmaylov, J. Bloino, G. Zheng, J. L. Sonnenberg, M. Hada, 
 M. Ehara, K. Toyota, R. Fukuda, J. Hasegawa, M. Ishida, T. Nakajima, 
 Y. Honda, O. Kitao, H. Nakai, T. Vreven, J. A. Montgomery, Jr., 
 J. E. Peralta, F. Ogliaro, M. Bearpark, J. J. Heyd, E. Brothers, 
 K. N. Kudin, V. N. Staroverov, T. Keith, R. Kobayashi, J. Normand, 
 K. Raghavachari, A. Rendell, J. C. Burant, S. S. Iyengar, J. Tomasi, 
 M. Cossi, N. Rega, J. M. Millam, M. Klene, J. E. Knox, J. B. Cross, 
 V. Bakken, C. Adamo, J. Jaramillo, R. Gomperts, R. E. Stratmann, 
 O. Yazyev, A. J. Austin, R. Cammi, C. Pomelli, J. W. Ochterski, 
 R. L. Martin, K. Morokuma, V. G. Zakrzewski, G. A. Voth, 
 P. Salvador, J. J. Dannenberg, S. Dapprich, A. D. Daniels, 
 O. Farkas, J. B. Foresman, J. V. Ortiz, J. Cioslowski, 
 and D. J. Fox, Gaussian, Inc., Wallingford CT, 2013.
 
 ******************************************
 Gaussian 09:  IA32W-G09RevD.01 24-Apr-2013
                15-Mar-2026 
 ******************************************
 %chk=C:\Users\User\Desktop\IMRG\ECE+ML\Cu_Gr_NS.chk
 ---------------------------------------
 # opt freq pm6 scf=qc geom=connectivity
 ---------------------------------------
 1/14=-1,18=20,19=15,26=1,38=1,57=2/1,3;
 2/9=110,12=2,17=6,18=5,40=1/2;
 3/5=2,16=1,25=1,41=3900000,71=1/1,2,3;
 4/35=1/1;
 5/5=2,8=3,35=1,38=5/8;
 6/7=2,8=2,9=2,10=2,28=1/1;
 7//1,2,3,16;
 1/14=-1,18=20,19=15,26=1/3(2);
 2/9=110/2;
 99//99;
 2/9=110/2;
 3/5=2,16=1,25=1,41=3900000,71=1,135=20/1,2,3;
 4/5=5,16=3,35=1/1;
 5/5=2,8=3,35=1,38=5/8;
 7//1,2,3,16;
 1/14=-1,18=20,19=15,26=1/3(-5);
 2/9=110/2;
 6/7=2,8=2,9=2,10=2,19=2,28=1/1;
 99/9=1/99;
 --------
 Cu_Gr_NS
 --------
 Symbolic Z-matrix:
 Charge =  0 Multiplicity = 2
 C                     0.17695   1.02371   2.99497 
 C                     1.43495   0.29741   2.57781 
 C                     2.69295   1.02371   2.99497 
 C                     5.20895   1.02371   2.99497 
 C                     7.72495   1.02371   2.99497 
 C                     3.95095   0.29741   2.57781 
 C                     6.46695   0.29741   2.57781 
 C                    -1.08105   3.20263   2.99497 
 C                    -2.33905   5.38155   2.99497 
 C                     0.17695   2.47633   2.57781 
 C                    -1.08105   4.65525   2.57781 
 C                    -2.33905   6.83417   2.57781 
 C                     1.43495   3.20263   2.99497 
 C                     0.17695   5.38155   2.99497 
 C                    -1.08105   7.56047   2.99497 
 C                     3.95095   3.20263   2.99497 
 C                     2.69295   5.38155   2.99497 
 C                     1.43495   7.56047   2.99497 
 C                     6.46695   3.20263   2.99497 
 C                     5.20895   5.38155   2.99497 
 C                     3.95095   7.56047   2.99497 
 C                     2.69295   2.47633   2.57781 
 C                     0.17695   6.83417   2.57781 
 C                     5.20895   2.47633   2.57781 
 C                     3.95095   4.65525   2.57781 
 C                     2.69295   6.83417   2.57781 
 C                     7.72495   2.47633   2.57781 
 C                     6.46695   4.65525   2.57781 
 C                     5.20895   6.83417   2.57781 
 H                     8.6156    2.99054   2.87315 
 H                     7.3576    5.16946   2.87315 
 H                     6.0996    7.34838   2.87315 
 H                     3.95095   8.58891   2.69962 
 H                     1.43495   8.58891   2.69962 
 H                    -1.08105   8.58891   2.69962 
 H                    -3.2297    7.34838   2.87315 
 H                    -3.2297    4.86734   2.69962 
 H                    -1.9717    2.68842   2.69962 
 H                    -0.7137    0.5095    2.69962 
 H                     1.43495  -0.73103   2.87315 
 H                     3.95095  -0.73103   2.87315 
 H                     6.49522  -0.60455   3.15277 
 H                     8.37341   0.35071   3.51599 
 Cu                    1.43495   4.65525   2.57781 
 

 GradGradGradGradGradGradGradGradGradGradGradGradGradGradGradGradGradGrad
 Berny optimization.
 Initialization pass.
                           ----------------------------
                           !    Initial Parameters    !
                           ! (Angstroms and Degrees)  !
 --------------------------                            --------------------------
 ! Name  Definition              Value          Derivative Info.                !
 --------------------------------------------------------------------------------
 ! R1    R(1,2)                  1.5113         estimate D2E/DX2                !
 ! R2    R(1,10)                 1.5113         estimate D2E/DX2                !
 ! R3    R(1,39)                 1.07           estimate D2E/DX2                !
 ! R4    R(2,3)                  1.5113         estimate D2E/DX2                !
 ! R5    R(2,40)                 1.07           estimate D2E/DX2                !
 ! R6    R(3,6)                  1.5113         estimate D2E/DX2                !
 ! R7    R(3,22)                 1.5113         estimate D2E/DX2                !
 ! R8    R(4,6)                  1.5113         estimate D2E/DX2                !
 ! R9    R(4,7)                  1.5113         estimate D2E/DX2                !
 ! R10   R(4,24)                 1.5113         estimate D2E/DX2                !
 ! R11   R(5,7)                  1.5113         estimate D2E/DX2                !
 ! R12   R(5,27)                 1.5113         estimate D2E/DX2                !
 ! R13   R(5,43)                 1.07           estimate D2E/DX2                !
 ! R14   R(6,41)                 1.07           estimate D2E/DX2                !
 ! R15   R(7,42)                 1.07           estimate D2E/DX2                !
 ! R16   R(8,10)                 1.5113         estimate D2E/DX2                !
 ! R17   R(8,11)                 1.5113         estimate D2E/DX2                !
 ! R18   R(8,38)                 1.07           estimate D2E/DX2                !
 ! R19   R(9,11)                 1.5113         estimate D2E/DX2                !
 ! R20   R(9,12)                 1.5113         estimate D2E/DX2                !
 ! R21   R(9,37)                 1.07           estimate D2E/DX2                !
 ! R22   R(10,13)                1.5113         estimate D2E/DX2                !
 ! R23   R(11,14)                1.5113         estimate D2E/DX2                !
 ! R24   R(12,15)                1.5113         estimate D2E/DX2                !
 ! R25   R(12,36)                1.07           estimate D2E/DX2                !
 ! R26   R(13,22)                1.5113         estimate D2E/DX2                !
 ! R27   R(13,44)                1.5113         estimate D2E/DX2                !
 ! R28   R(14,23)                1.5113         estimate D2E/DX2                !
 ! R29   R(14,44)                1.5113         estimate D2E/DX2                !
 ! R30   R(15,23)                1.5113         estimate D2E/DX2                !
 ! R31   R(15,35)                1.07           estimate D2E/DX2                !
 ! R32   R(16,22)                1.5113         estimate D2E/DX2                !
 ! R33   R(16,24)                1.5113         estimate D2E/DX2                !
 ! R34   R(16,25)                1.5113         estimate D2E/DX2                !
 ! R35   R(17,25)                1.5113         estimate D2E/DX2                !
 ! R36   R(17,26)                1.5113         estimate D2E/DX2                !
 ! R37   R(17,44)                1.5113         estimate D2E/DX2                !
 ! R38   R(18,23)                1.5113         estimate D2E/DX2                !
 ! R39   R(18,26)                1.5113         estimate D2E/DX2                !
 ! R40   R(18,34)                1.07           estimate D2E/DX2                !
 ! R41   R(19,24)                1.5113         estimate D2E/DX2                !
 ! R42   R(19,27)                1.5113         estimate D2E/DX2                !
 ! R43   R(19,28)                1.5113         estimate D2E/DX2                !
 ! R44   R(20,25)                1.5113         estimate D2E/DX2                !
 ! R45   R(20,28)                1.5113         estimate D2E/DX2                !
 ! R46   R(20,29)                1.5113         estimate D2E/DX2                !
 ! R47   R(21,26)                1.5113         estimate D2E/DX2                !
 ! R48   R(21,29)                1.5113         estimate D2E/DX2                !
 ! R49   R(21,33)                1.07           estimate D2E/DX2                !
 ! R50   R(27,30)                1.07           estimate D2E/DX2                !
 ! R51   R(28,31)                1.07           estimate D2E/DX2                !
 ! R52   R(29,32)                1.07           estimate D2E/DX2                !
 ! A1    A(2,1,10)             112.6884         estimate D2E/DX2                !
 ! A2    A(2,1,39)             112.6884         estimate D2E/DX2                !
 ! A3    A(10,1,39)            112.6884         estimate D2E/DX2                !
 ! A4    A(1,2,3)              112.6884         estimate D2E/DX2                !
 ! A5    A(1,2,40)             112.6884         estimate D2E/DX2                !
 ! A6    A(3,2,40)             112.6884         estimate D2E/DX2                !
 ! A7    A(2,3,6)              112.6884         estimate D2E/DX2                !
 ! A8    A(2,3,22)             112.6884         estimate D2E/DX2                !
 ! A9    A(6,3,22)             112.6884         estimate D2E/DX2                !
 ! A10   A(6,4,7)              112.6884         estimate D2E/DX2                !
 ! A11   A(6,4,24)             112.6884         estimate D2E/DX2                !
 ! A12   A(7,4,24)             112.6884         estimate D2E/DX2                !
 ! A13   A(7,5,27)             112.6884         estimate D2E/DX2                !
 ! A14   A(7,5,43)             109.6693         estimate D2E/DX2                !
 ! A15   A(27,5,43)            137.6415         estimate D2E/DX2                !
 ! A16   A(3,6,4)              112.6884         estimate D2E/DX2                !
 ! A17   A(3,6,41)             112.6884         estimate D2E/DX2                !
 ! A18   A(4,6,41)             112.6884         estimate D2E/DX2                !
 ! A19   A(4,7,5)              112.6884         estimate D2E/DX2                !
 ! A20   A(4,7,42)             106.187          estimate D2E/DX2                !
 ! A21   A(5,7,42)             103.5792         estimate D2E/DX2                !
 ! A22   A(10,8,11)            112.6884         estimate D2E/DX2                !
 ! A23   A(10,8,38)            112.6884         estimate D2E/DX2                !
 ! A24   A(11,8,38)            112.6884         estimate D2E/DX2                !
 ! A25   A(11,9,12)            112.6884         estimate D2E/DX2                !
 ! A26   A(11,9,37)            112.6884         estimate D2E/DX2                !
 ! A27   A(12,9,37)            112.6884         estimate D2E/DX2                !
 ! A28   A(1,10,8)             112.6884         estimate D2E/DX2                !
 ! A29   A(1,10,13)            112.6884         estimate D2E/DX2                !
 ! A30   A(8,10,13)            112.6884         estimate D2E/DX2                !
 ! A31   A(8,11,9)             112.6884         estimate D2E/DX2                !
 ! A32   A(8,11,14)            112.6884         estimate D2E/DX2                !
 ! A33   A(9,11,14)            112.6884         estimate D2E/DX2                !
 ! A34   A(9,12,15)            112.6884         estimate D2E/DX2                !
 ! A35   A(9,12,36)            112.6884         estimate D2E/DX2                !
 ! A36   A(15,12,36)           112.6884         estimate D2E/DX2                !
 ! A37   A(10,13,22)           112.6884         estimate D2E/DX2                !
 ! A38   A(10,13,44)           112.6884         estimate D2E/DX2                !
 ! A39   A(22,13,44)           112.6884         estimate D2E/DX2                !
 ! A40   A(11,14,23)           112.6884         estimate D2E/DX2                !
 ! A41   A(11,14,44)           112.6884         estimate D2E/DX2                !
 ! A42   A(23,14,44)           112.6884         estimate D2E/DX2                !
 ! A43   A(12,15,23)           112.6884         estimate D2E/DX2                !
 ! A44   A(12,15,35)           112.6884         estimate D2E/DX2                !
 ! A45   A(23,15,35)           112.6884         estimate D2E/DX2                !
 ! A46   A(22,16,24)           112.6884         estimate D2E/DX2                !
 ! A47   A(22,16,25)           112.6884         estimate D2E/DX2                !
 ! A48   A(24,16,25)           112.6884         estimate D2E/DX2                !
 ! A49   A(25,17,26)           112.6884         estimate D2E/DX2                !
 ! A50   A(25,17,44)           112.6884         estimate D2E/DX2                !
 ! A51   A(26,17,44)           112.6884         estimate D2E/DX2                !
 ! A52   A(23,18,26)           112.6884         estimate D2E/DX2                !
 ! A53   A(23,18,34)           112.6884         estimate D2E/DX2                !
 ! A54   A(26,18,34)           112.6884         estimate D2E/DX2                !
 ! A55   A(24,19,27)           112.6884         estimate D2E/DX2                !
 ! A56   A(24,19,28)           112.6884         estimate D2E/DX2                !
 ! A57   A(27,19,28)           112.6884         estimate D2E/DX2                !
 ! A58   A(25,20,28)           112.6884         estimate D2E/DX2                !
 ! A59   A(25,20,29)           112.6884         estimate D2E/DX2                !
 ! A60   A(28,20,29)           112.6884         estimate D2E/DX2                !
 ! A61   A(26,21,29)           112.6884         estimate D2E/DX2                !
 ! A62   A(26,21,33)           112.6884         estimate D2E/DX2                !
 ! A63   A(29,21,33)           112.6884         estimate D2E/DX2                !
 ! A64   A(3,22,13)            112.6884         estimate D2E/DX2                !
 ! A65   A(3,22,16)            112.6884         estimate D2E/DX2                !
 ! A66   A(13,22,16)           112.6884         estimate D2E/DX2                !
 ! A67   A(14,23,15)           112.6884         estimate D2E/DX2                !
 ! A68   A(14,23,18)           112.6884         estimate D2E/DX2                !
 ! A69   A(15,23,18)           112.6884         estimate D2E/DX2                !
 ! A70   A(4,24,16)            112.6884         estimate D2E/DX2                !
 ! A71   A(4,24,19)            112.6884         estimate D2E/DX2                !
 ! A72   A(16,24,19)           112.6884         estimate D2E/DX2                !
 ! A73   A(16,25,17)           112.6884         estimate D2E/DX2                !
 ! A74   A(16,25,20)           112.6884         estimate D2E/DX2                !
 ! A75   A(17,25,20)           112.6884         estimate D2E/DX2                !
 ! A76   A(17,26,18)           112.6884         estimate D2E/DX2                !
 ! A77   A(17,26,21)           112.6884         estimate D2E/DX2                !
 ! A78   A(18,26,21)           112.6884         estimate D2E/DX2                !
 ! A79   A(5,27,19)            112.6884         estimate D2E/DX2                !
 ! A80   A(5,27,30)            112.6884         estimate D2E/DX2                !
 ! A81   A(19,27,30)           112.6884         estimate D2E/DX2                !
 ! A82   A(19,28,20)           112.6884         estimate D2E/DX2                !
 ! A83   A(19,28,31)           112.6884         estimate D2E/DX2                !
 ! A84   A(20,28,31)           112.6884         estimate D2E/DX2                !
 ! A85   A(20,29,21)           112.6884         estimate D2E/DX2                !
 ! A86   A(20,29,32)           112.6884         estimate D2E/DX2                !
 ! A87   A(21,29,32)           112.6884         estimate D2E/DX2                !
 ! A88   A(13,44,14)           112.6884         estimate D2E/DX2                !
 ! A89   A(13,44,17)           112.6884         estimate D2E/DX2                !
 ! A90   A(14,44,17)           112.6884         estimate D2E/DX2                !
 ! D1    D(10,1,2,3)            51.1032         estimate D2E/DX2                !
 ! D2    D(10,1,2,40)          180.0            estimate D2E/DX2                !
 ! D3    D(39,1,2,3)           180.0            estimate D2E/DX2                !
 ! D4    D(39,1,2,40)          -51.1032         estimate D2E/DX2                !
 ! D5    D(2,1,10,8)           180.0            estimate D2E/DX2                !
 ! D6    D(2,1,10,13)          -51.1032         estimate D2E/DX2                !
 ! D7    D(39,1,10,8)           51.1032         estimate D2E/DX2                !
 ! D8    D(39,1,10,13)         180.0            estimate D2E/DX2                !
 ! D9    D(1,2,3,6)            180.0            estimate D2E/DX2                !
 ! D10   D(1,2,3,22)           -51.1032         estimate D2E/DX2                !
 ! D11   D(40,2,3,6)            51.1032         estimate D2E/DX2                !
 ! D12   D(40,2,3,22)         -180.0            estimate D2E/DX2                !
 ! D13   D(2,3,6,4)            180.0            estimate D2E/DX2                !
 ! D14   D(2,3,6,41)           -51.1032         estimate D2E/DX2                !
 ! D15   D(22,3,6,4)            51.1032         estimate D2E/DX2                !
 ! D16   D(22,3,6,41)          180.0            estimate D2E/DX2                !
 ! D17   D(2,3,22,13)           51.1032         estimate D2E/DX2                !
 ! D18   D(2,3,22,16)          180.0            estimate D2E/DX2                !
 ! D19   D(6,3,22,13)          180.0            estimate D2E/DX2                !
 ! D20   D(6,3,22,16)          -51.1032         estimate D2E/DX2                !
 ! D21   D(7,4,6,3)            180.0            estimate D2E/DX2                !
 ! D22   D(7,4,6,41)            51.1032         estimate D2E/DX2                !
 ! D23   D(24,4,6,3)           -51.1032         estimate D2E/DX2                !
 ! D24   D(24,4,6,41)          180.0            estimate D2E/DX2                !
 ! D25   D(6,4,7,5)            180.0            estimate D2E/DX2                !
 ! D26   D(6,4,7,42)           -67.2727         estimate D2E/DX2                !
 ! D27   D(24,4,7,5)            51.1032         estimate D2E/DX2                !
 ! D28   D(24,4,7,42)          163.8304         estimate D2E/DX2                !
 ! D29   D(6,4,24,16)           51.1032         estimate D2E/DX2                !
 ! D30   D(6,4,24,19)          180.0            estimate D2E/DX2                !
 ! D31   D(7,4,24,16)          180.0            estimate D2E/DX2                !
 ! D32   D(7,4,24,19)          -51.1032         estimate D2E/DX2                !
 ! D33   D(27,5,7,4)           -51.1032         estimate D2E/DX2                !
 ! D34   D(27,5,7,42)         -165.4227         estimate D2E/DX2                !
 ! D35   D(43,5,7,4)           128.6399         estimate D2E/DX2                !
 ! D36   D(43,5,7,42)           14.3203         estimate D2E/DX2                !
 ! D37   D(7,5,27,19)           51.1032         estimate D2E/DX2                !
 ! D38   D(7,5,27,30)          180.0            estimate D2E/DX2                !
 ! D39   D(43,5,27,19)        -128.5377         estimate D2E/DX2                !
 ! D40   D(43,5,27,30)           0.3591         estimate D2E/DX2                !
 ! D41   D(11,8,10,1)          180.0            estimate D2E/DX2                !
 ! D42   D(11,8,10,13)          51.1032         estimate D2E/DX2                !
 ! D43   D(38,8,10,1)          -51.1032         estimate D2E/DX2                !
 ! D44   D(38,8,10,13)        -180.0            estimate D2E/DX2                !
 ! D45   D(10,8,11,9)          180.0            estimate D2E/DX2                !
 ! D46   D(10,8,11,14)         -51.1032         estimate D2E/DX2                !
 ! D47   D(38,8,11,9)           51.1032         estimate D2E/DX2                !
 ! D48   D(38,8,11,14)         180.0            estimate D2E/DX2                !
 ! D49   D(12,9,11,8)         -180.0            estimate D2E/DX2                !
 ! D50   D(12,9,11,14)          51.1032         estimate D2E/DX2                !
 ! D51   D(37,9,11,8)          -51.1032         estimate D2E/DX2                !
 ! D52   D(37,9,11,14)         180.0            estimate D2E/DX2                !
 ! D53   D(11,9,12,15)         -51.1032         estimate D2E/DX2                !
 ! D54   D(11,9,12,36)        -180.0            estimate D2E/DX2                !
 ! D55   D(37,9,12,15)         180.0            estimate D2E/DX2                !
 ! D56   D(37,9,12,36)          51.1032         estimate D2E/DX2                !
 ! D57   D(1,10,13,22)          51.1032         estimate D2E/DX2                !
 ! D58   D(1,10,13,44)         180.0            estimate D2E/DX2                !
 ! D59   D(8,10,13,22)         180.0            estimate D2E/DX2                !
 ! D60   D(8,10,13,44)         -51.1032         estimate D2E/DX2                !
 ! D61   D(8,11,14,23)         180.0            estimate D2E/DX2                !
 ! D62   D(8,11,14,44)          51.1032         estimate D2E/DX2                !
 ! D63   D(9,11,14,23)         -51.1032         estimate D2E/DX2                !
 ! D64   D(9,11,14,44)         180.0            estimate D2E/DX2                !
 ! D65   D(9,12,15,23)          51.1032         estimate D2E/DX2                !
 ! D66   D(9,12,15,35)         180.0            estimate D2E/DX2                !
 ! D67   D(36,12,15,23)        180.0            estimate D2E/DX2                !
 ! D68   D(36,12,15,35)        -51.1032         estimate D2E/DX2                !
 ! D69   D(10,13,22,3)         -51.1032         estimate D2E/DX2                !
 ! D70   D(10,13,22,16)        180.0            estimate D2E/DX2                !
 ! D71   D(44,13,22,3)         180.0            estimate D2E/DX2                !
 ! D72   D(44,13,22,16)         51.1032         estimate D2E/DX2                !
 ! D73   D(10,13,44,14)         51.1032         estimate D2E/DX2                !
 ! D74   D(10,13,44,17)        180.0            estimate D2E/DX2                !
 ! D75   D(22,13,44,14)       -180.0            estimate D2E/DX2                !
 ! D76   D(22,13,44,17)        -51.1032         estimate D2E/DX2                !
 ! D77   D(11,14,23,15)         51.1032         estimate D2E/DX2                !
 ! D78   D(11,14,23,18)        180.0            estimate D2E/DX2                !
 ! D79   D(44,14,23,15)        180.0            estimate D2E/DX2                !
 ! D80   D(44,14,23,18)        -51.1032         estimate D2E/DX2                !
 ! D81   D(11,14,44,13)        -51.1032         estimate D2E/DX2                !
 ! D82   D(11,14,44,17)        180.0            estimate D2E/DX2                !
 ! D83   D(23,14,44,13)       -180.0            estimate D2E/DX2                !
 ! D84   D(23,14,44,17)         51.1032         estimate D2E/DX2                !
 ! D85   D(12,15,23,14)        -51.1032         estimate D2E/DX2                !
 ! D86   D(12,15,23,18)        180.0            estimate D2E/DX2                !
 ! D87   D(35,15,23,14)        180.0            estimate D2E/DX2                !
 ! D88   D(35,15,23,18)         51.1032         estimate D2E/DX2                !
 ! D89   D(24,16,22,3)          51.1032         estimate D2E/DX2                !
 ! D90   D(24,16,22,13)        180.0            estimate D2E/DX2                !
 ! D91   D(25,16,22,3)         180.0            estimate D2E/DX2                !
 ! D92   D(25,16,22,13)        -51.1032         estimate D2E/DX2                !
 ! D93   D(22,16,24,4)         -51.1032         estimate D2E/DX2                !
 ! D94   D(22,16,24,19)        180.0            estimate D2E/DX2                !
 ! D95   D(25,16,24,4)         180.0            estimate D2E/DX2                !
 ! D96   D(25,16,24,19)         51.1032         estimate D2E/DX2                !
 ! D97   D(22,16,25,17)         51.1032         estimate D2E/DX2                !
 ! D98   D(22,16,25,20)        180.0            estimate D2E/DX2                !
 ! D99   D(24,16,25,17)        180.0            estimate D2E/DX2                !
 ! D100  D(24,16,25,20)        -51.1032         estimate D2E/DX2                !
 ! D101  D(26,17,25,16)       -180.0            estimate D2E/DX2                !
 ! D102  D(26,17,25,20)         51.1032         estimate D2E/DX2                !
 ! D103  D(44,17,25,16)        -51.1032         estimate D2E/DX2                !
 ! D104  D(44,17,25,20)        180.0            estimate D2E/DX2                !
 ! D105  D(25,17,26,18)        180.0            estimate D2E/DX2                !
 ! D106  D(25,17,26,21)        -51.1032         estimate D2E/DX2                !
 ! D107  D(44,17,26,18)         51.1032         estimate D2E/DX2                !
 ! D108  D(44,17,26,21)        180.0            estimate D2E/DX2                !
 ! D109  D(25,17,44,13)         51.1032         estimate D2E/DX2                !
 ! D110  D(25,17,44,14)        180.0            estimate D2E/DX2                !
 ! D111  D(26,17,44,13)        180.0            estimate D2E/DX2                !
 ! D112  D(26,17,44,14)        -51.1032         estimate D2E/DX2                !
 ! D113  D(26,18,23,14)         51.1032         estimate D2E/DX2                !
 ! D114  D(26,18,23,15)        180.0            estimate D2E/DX2                !
 ! D115  D(34,18,23,14)        180.0            estimate D2E/DX2                !
 ! D116  D(34,18,23,15)        -51.1032         estimate D2E/DX2                !
 ! D117  D(23,18,26,17)        -51.1032         estimate D2E/DX2                !
 ! D118  D(23,18,26,21)        180.0            estimate D2E/DX2                !
 ! D119  D(34,18,26,17)        180.0            estimate D2E/DX2                !
 ! D120  D(34,18,26,21)         51.1032         estimate D2E/DX2                !
 ! D121  D(27,19,24,4)          51.1032         estimate D2E/DX2                !
 ! D122  D(27,19,24,16)        180.0            estimate D2E/DX2                !
 ! D123  D(28,19,24,4)         180.0            estimate D2E/DX2                !
 ! D124  D(28,19,24,16)        -51.1032         estimate D2E/DX2                !
 ! D125  D(24,19,27,5)         -51.1032         estimate D2E/DX2                !
 ! D126  D(24,19,27,30)        180.0            estimate D2E/DX2                !
 ! D127  D(28,19,27,5)         180.0            estimate D2E/DX2                !
 ! D128  D(28,19,27,30)         51.1032         estimate D2E/DX2                !
 ! D129  D(24,19,28,20)         51.1032         estimate D2E/DX2                !
 ! D130  D(24,19,28,31)        180.0            estimate D2E/DX2                !
 ! D131  D(27,19,28,20)        180.0            estimate D2E/DX2                !
 ! D132  D(27,19,28,31)        -51.1032         estimate D2E/DX2                !
 ! D133  D(28,20,25,16)         51.1032         estimate D2E/DX2                !
 ! D134  D(28,20,25,17)        180.0            estimate D2E/DX2                !
 ! D135  D(29,20,25,16)        180.0            estimate D2E/DX2                !
 ! D136  D(29,20,25,17)        -51.1032         estimate D2E/DX2                !
 ! D137  D(25,20,28,19)        -51.1032         estimate D2E/DX2                !
 ! D138  D(25,20,28,31)        180.0            estimate D2E/DX2                !
 ! D139  D(29,20,28,19)       -180.0            estimate D2E/DX2                !
 ! D140  D(29,20,28,31)         51.1032         estimate D2E/DX2                !
 ! D141  D(25,20,29,21)         51.1032         estimate D2E/DX2                !
 ! D142  D(25,20,29,32)        180.0            estimate D2E/DX2                !
 ! D143  D(28,20,29,21)        180.0            estimate D2E/DX2                !
 ! D144  D(28,20,29,32)        -51.1032         estimate D2E/DX2                !
 ! D145  D(29,21,26,17)         51.1032         estimate D2E/DX2                !
 ! D146  D(29,21,26,18)       -180.0            estimate D2E/DX2                !
 ! D147  D(33,21,26,17)        180.0            estimate D2E/DX2                !
 ! D148  D(33,21,26,18)        -51.1032         estimate D2E/DX2                !
 ! D149  D(26,21,29,20)        -51.1032         estimate D2E/DX2                !
 ! D150  D(26,21,29,32)        180.0            estimate D2E/DX2                !
 ! D151  D(33,21,29,20)        180.0            estimate D2E/DX2                !
 ! D152  D(33,21,29,32)         51.1032         estimate D2E/DX2                !
 --------------------------------------------------------------------------------
 Trust Radius=3.00D-01 FncErr=1.00D-07 GrdErr=1.00D-07
 Number of steps in this run=    264 maximum allowed number of steps=    264.
 GradGradGradGradGradGradGradGradGradGradGradGradGradGradGradGradGradGrad

                          Input orientation:                          
 ---------------------------------------------------------------------
 Center     Atomic      Atomic             Coordinates (Angstroms)
 Number     Number       Type             X           Y           Z
 ---------------------------------------------------------------------
      1          6           0        0.176948    1.023714    2.994967
      2          6           0        1.434948    0.297407    2.577810
      3          6           0        2.692948    1.023714    2.994967
      4          6           0        5.208948    1.023714    2.994967
      5          6           0        7.724948    1.023714    2.994967
      6          6           0        3.950948    0.297407    2.577810
      7          6           0        6.466948    0.297407    2.577810
      8          6           0       -1.081052    3.202634    2.994967
      9          6           0       -2.339052    5.381554    2.994967
     10          6           0        0.176948    2.476327    2.577810
     11          6           0       -1.081052    4.655247    2.577810
     12          6           0       -2.339052    6.834167    2.577810
     13          6           0        1.434948    3.202634    2.994967
     14          6           0        0.176948    5.381554    2.994967
     15          6           0       -1.081052    7.560474    2.994967
     16          6           0        3.950948    3.202634    2.994967
     17          6           0        2.692948    5.381554    2.994967
     18          6           0        1.434948    7.560474    2.994967
     19          6           0        6.466948    3.202634    2.994967
     20          6           0        5.208948    5.381554    2.994967
     21          6           0        3.950948    7.560474    2.994967
     22          6           0        2.692948    2.476327    2.577810
     23          6           0        0.176948    6.834167    2.577810
     24          6           0        5.208948    2.476327    2.577810
     25          6           0        3.950948    4.655247    2.577810
     26          6           0        2.692948    6.834167    2.577810
     27          6           0        7.724948    2.476327    2.577810
     28          6           0        6.466948    4.655247    2.577810
     29          6           0        5.208948    6.834167    2.577810
     30          1           0        8.615597    2.990544    2.873152
     31          1           0        7.357597    5.169464    2.873152
     32          1           0        6.099597    7.348383    2.873152
     33          1           0        3.950948    8.588906    2.699625
     34          1           0        1.434948    8.588906    2.699625
     35          1           0       -1.081052    8.588906    2.699625
     36          1           0       -3.229701    7.348383    2.873152
     37          1           0       -3.229701    4.867338    2.699625
     38          1           0       -1.971701    2.688418    2.699625
     39          1           0       -0.713701    0.509498    2.699625
     40          1           0        1.434948   -0.731025    2.873152
     41          1           0        3.950948   -0.731025    2.873152
     42          1           0        6.495217   -0.604546    3.152772
     43          1           0        8.373408    0.350713    3.515994
     44         29           0        1.434948    4.655247    2.577810
 ---------------------------------------------------------------------
                    Distance matrix (angstroms):
                    1          2          3          4          5
     1  C    0.000000
     2  C    1.511326   0.000000
     3  C    2.516000   1.511326   0.000000
     4  C    5.032000   3.865827   2.516000   0.000000
     5  C    7.548000   6.345521   5.032000   2.516000   0.000000
     6  C    3.865827   2.516000   1.511326   1.511326   3.865827
     7  C    6.345521   5.032000   3.865827   1.511326   1.511326
     8  C    2.516000   3.865827   4.357840   6.656710   9.071567
     9  C    5.032000   6.345521   6.656710   8.715680  10.966990
    10  C    1.511326   2.516000   2.935023   5.254058   7.697818
    11  C    3.865827   5.032000   5.254058   7.275036   9.534552
    12  C    6.345521   7.548000   7.697818   9.534552  11.628391
    13  C    2.516000   2.935023   2.516000   4.357840   6.656710
    14  C    4.357840   5.254058   5.032000   6.656710   8.715680
    15  C    6.656710   7.697818   7.548000   9.071567  10.966990
    16  C    4.357840   3.865827   2.516000   2.516000   4.357840
    17  C    5.032000   5.254058   4.357840   5.032000   6.656710
    18  C    6.656710   7.275036   6.656710   7.548000   9.071567
    19  C    6.656710   5.825409   4.357840   2.516000   2.516000
    20  C    6.656710   6.345521   5.032000   4.357840   5.032000
    21  C    7.548000   7.697818   6.656710   6.656710   7.548000
    22  C    2.935023   2.516000   1.511326   2.935023   5.254058
    23  C    5.825409   6.656710   6.345521   7.697818   9.534552
    24  C    5.254058   4.357840   2.935023   1.511326   2.935023
    25  C    5.254058   5.032000   3.865827   3.865827   5.254058
    26  C    6.345521   6.656710   5.825409   6.345521   7.697818
    27  C    7.697818   6.656710   5.254058   2.935023   1.511326
    28  C    7.275036   6.656710   5.254058   3.865827   3.865827
    29  C    7.697818   7.548000   6.345521   5.825409   6.345521
    30  H    8.665682   7.674759   6.241877   3.935545   2.162524
    31  H    8.292394   7.674759   6.241877   4.671056   4.163775
    32  H    8.665682   8.459458   7.184813   6.388234   6.531313
    33  H    8.459458   8.665682   7.674759   7.674759   8.459458
    34  H    7.674759   8.292394   7.674759   8.459458   9.842940
    35  H    7.674759   8.665682   8.459458   9.842940  11.613139
    36  H    7.184813   8.459458   8.665682  10.546425  12.649925
    37  H    5.144504   6.531313   7.066713   9.277471  11.613139
    38  H    2.734073   4.163775   4.961594   7.377003   9.842940
    39  H    1.070000   2.162524   3.457875   5.952261   8.459458
    40  H    2.162524   1.070000   2.162524   4.163775   6.531313
    41  H    4.163775   2.734073   2.162524   2.162524   4.163775
    42  H    6.526612   5.172082   4.139249   2.081015   2.046551
    43  H    8.240531   7.001804   5.743868   3.276920   1.070000
    44  Cu   3.865827   4.357840   3.865827   5.254058   7.275036
                    6          7          8          9         10
     6  C    0.000000
     7  C    2.516000   0.000000
     8  C    5.825409   8.098559   0.000000
     9  C    8.098559  10.176846   2.516000   0.000000
    10  C    4.357840   6.656710   1.511326   3.865827   0.000000
    11  C    6.656710   8.715680   1.511326   1.511326   2.516000
    12  C    9.071567  10.966990   3.865827   1.511326   5.032000
    13  C    3.865827   5.825409   2.516000   4.357840   1.511326
    14  C    6.345521   8.098559   2.516000   2.516000   2.935023
    15  C    8.845743  10.483246   4.357840   2.516000   5.254058
    16  C    2.935023   3.865827   5.032000   6.656710   3.865827
    17  C    5.254058   6.345521   4.357840   5.032000   3.865827
    18  C    7.697818   8.845743   5.032000   4.357840   5.254058
    19  C    3.865827   2.935023   7.548000   9.071567   6.345521
    20  C    5.254058   5.254058   6.656710   7.548000   5.825409
    21  C    7.275036   7.697818   6.656710   6.656710   6.345521
    22  C    2.516000   4.357840   3.865827   5.825409   2.516000
    23  C    7.548000   9.071567   3.865827   2.935023   4.357840
    24  C    2.516000   2.516000   6.345521   8.098559   5.032000
    25  C    4.357840   5.032000   5.254058   6.345521   4.357840
    26  C    6.656710   7.548000   5.254058   5.254058   5.032000
    27  C    4.357840   2.516000   8.845743  10.483246   7.548000
    28  C    5.032000   4.357840   7.697818   8.845743   6.656710
    29  C    6.656710   6.656710   7.275036   7.697818   6.656710
    30  H    5.394363   3.457875   9.699733  11.213211   8.459458
    31  H    5.952261   4.961594   8.665682   9.699733   7.674759
    32  H    7.377003   7.066713   8.292394   8.665682   7.674759
    33  H    8.292394   8.665682   7.377003   7.066713   7.184813
    34  H    8.665682   9.699733   5.952261   4.961594   6.241877
    35  H    9.699733  11.213211   5.394363   3.457875   6.241877
    36  H   10.068029  11.992851   4.671056   2.162524   5.952261
    37  H    8.512392  10.720266   2.734073   1.070000   4.163775
    38  H    6.388234   8.771691   1.070000   2.734073   2.162524
    39  H    4.671056   7.184813   2.734073   5.144504   2.162524
    40  H    2.734073   5.144504   4.671056   7.184813   3.457875
    41  H    1.070000   2.734073   6.388234   8.771691   4.961594
    42  H    2.759965   1.070000   8.480529  10.672516   7.052864
    43  H    4.521192   2.125469   9.888970  11.846418   8.519412
    44  Cu   5.032000   6.656710   2.935023   3.865827   2.516000
                   11         12         13         14         15
    11  C    0.000000
    12  C    2.516000   0.000000
    13  C    2.935023   5.254058   0.000000
    14  C    1.511326   2.935023   2.516000   0.000000
    15  C    2.935023   1.511326   5.032000   2.516000   0.000000
    16  C    5.254058   7.275036   2.516000   4.357840   6.656710
    17  C    3.865827   5.254058   2.516000   2.516000   4.357840
    18  C    3.865827   3.865827   4.357840   2.516000   2.516000
    19  C    7.697818   9.534552   5.032000   6.656710   8.715680
    20  C    6.345521   7.697818   4.357840   5.032000   6.656710
    21  C    5.825409   6.345521   5.032000   4.357840   5.032000
    22  C    4.357840   6.656710   1.511326   3.865827   6.345521
    23  C    2.516000   2.516000   3.865827   1.511326   1.511326
    24  C    6.656710   8.715680   3.865827   5.825409   8.098559
    25  C    5.032000   6.656710   2.935023   3.865827   5.825409
    26  C    4.357840   5.032000   3.865827   2.935023   3.865827
    27  C    9.071567  10.966990   6.345521   8.098559  10.176846
    28  C    7.548000   9.071567   5.254058   6.345521   8.098559
    29  C    6.656710   7.548000   5.254058   5.254058   6.345521
    30  H    9.842940  11.613139   7.184813   8.771691  10.720266
    31  H    8.459458   9.842940   6.241877   7.184813   8.771691
    32  H    7.674759   8.459458   6.241877   6.241877   7.184813
    33  H    6.388234   6.531313   5.952261   4.961594   5.144504
    34  H    4.671056   4.163775   5.394363   3.457875   2.734073
    35  H    3.935545   2.162524   5.952261   3.457875   1.070000
    36  H    3.457875   1.070000   6.241877   3.935545   2.162524
    37  H    2.162524   2.162524   4.961594   3.457875   3.457875
    38  H    2.162524   4.163775   3.457875   3.457875   4.961594
    39  H    4.163775   6.531313   3.457875   4.961594   7.066713
    40  H    5.952261   8.459458   3.935545   6.241877   8.665682
    41  H    7.377003   9.842940   4.671056   7.184813   9.699733
    42  H    9.240988  11.563276   6.334497   8.705103  11.139673
    43  H   10.430533  12.556757   7.519784   9.631344  11.901215
    44  Cu   2.516000   4.357840   1.511326   1.511326   3.865827
                   16         17         18         19         20
    16  C    0.000000
    17  C    2.516000   0.000000
    18  C    5.032000   2.516000   0.000000
    19  C    2.516000   4.357840   6.656710   0.000000
    20  C    2.516000   2.516000   4.357840   2.516000   0.000000
    21  C    4.357840   2.516000   2.516000   5.032000   2.516000
    22  C    1.511326   2.935023   5.254058   3.865827   3.865827
    23  C    5.254058   2.935023   1.511326   7.275036   5.254058
    24  C    1.511326   3.865827   6.345521   1.511326   2.935023
    25  C    1.511326   1.511326   3.865827   2.935023   1.511326
    26  C    3.865827   1.511326   1.511326   5.254058   2.935023
    27  C    3.865827   5.825409   8.098559   1.511326   3.865827
    28  C    2.935023   3.865827   5.825409   1.511326   1.511326
    29  C    3.865827   2.935023   3.865827   3.865827   1.511326
    30  H    4.671056   6.388234   8.512392   2.162524   4.163775
    31  H    3.935545   4.671056   6.388234   2.162524   2.162524
    32  H    4.671056   3.935545   4.671056   4.163775   2.162524
    33  H    5.394363   3.457875   2.734073   5.952261   3.457875
    34  H    5.952261   3.457875   1.070000   7.377003   4.961594
    35  H    7.377003   4.961594   2.734073   9.277471   7.066713
    36  H    8.292394   6.241877   4.671056  10.546425   8.665682
    37  H    7.377003   5.952261   5.394363   9.842940   8.459458
    38  H    5.952261   5.394363   5.952261   8.459458   7.674759
    39  H    5.394363   5.952261   7.377003   7.674759   7.674759
    40  H    4.671056   6.241877   8.292394   6.388234   7.184813
    41  H    3.935545   6.241877   8.665682   4.671056   6.241877
    42  H    4.581793   7.093345   9.607225   3.810554   6.124768
    43  H    5.288012   7.605817  10.019698   3.469800   5.966124
    44  Cu   2.935023   1.511326   2.935023   5.254058   3.865827
                   21         22         23         24         25
    21  C    0.000000
    22  C    5.254058   0.000000
    23  C    3.865827   5.032000   0.000000
    24  C    5.254058   2.516000   6.656710   0.000000
    25  C    2.935023   2.516000   4.357840   2.516000   0.000000
    26  C    1.511326   4.357840   2.516000   5.032000   2.516000
    27  C    6.345521   5.032000   8.715680   2.516000   4.357840
    28  C    3.865827   4.357840   6.656710   2.516000   2.516000
    29  C    1.511326   5.032000   5.032000   4.357840   2.516000
    30  H    6.531313   5.952261   9.277471   3.457875   4.961594
    31  H    4.163775   5.394363   7.377003   3.457875   3.457875
    32  H    2.162524   5.952261   5.952261   4.961594   3.457875
    33  H    1.070000   6.241877   4.163775   6.241877   3.935545
    34  H    2.734073   6.241877   2.162524   7.184813   4.671056
    35  H    5.144504   7.184813   2.162524   8.771691   6.388234
    36  H    7.184813   7.674759   3.457875   9.748587   7.674759
    37  H    7.674759   6.388234   3.935545   8.771691   7.184813
    38  H    7.674759   4.671056   4.671056   7.184813   6.241877
    39  H    8.459458   3.935545   6.388234   6.241877   6.241877
    40  H    8.665682   3.457875   7.674759   4.961594   5.952261
    41  H    8.292394   3.457875   8.459458   3.457875   5.394363
    42  H    8.553698   4.927435   9.776787   3.387750   5.871057
    43  H    8.474094   6.137267  10.492727   3.925841   6.242384
    44  Cu   3.865827   2.516000   2.516000   4.357840   2.516000
                   26         27         28         29         30
    26  C    0.000000
    27  C    6.656710   0.000000
    28  C    4.357840   2.516000   0.000000
    29  C    2.516000   5.032000   2.516000   0.000000
    30  H    7.066713   1.070000   2.734073   5.144504   0.000000
    31  H    4.961594   2.734073   1.070000   2.734073   2.516000
    32  H    3.457875   5.144504   2.734073   1.070000   5.032000
    33  H    2.162524   7.184813   4.671056   2.162524   7.289082
    34  H    2.162524   8.771691   6.388234   4.163775   9.106783
    35  H    4.163775  10.720266   8.512392   6.531313  11.198070
    36  H    5.952261  11.992851  10.068029   8.459458  12.621483
    37  H    6.241877  11.213211   9.699733   8.665682  11.994313
    38  H    6.241877   9.699733   8.665682   8.292394  10.593029
    39  H    7.184813   8.665682   8.292394   8.665682   9.655127
    40  H    7.674759   7.066713   7.377003   8.459458   8.087755
    41  H    7.674759   4.961594   5.952261   7.674759   5.967329
    42  H    8.373905   3.366689   5.291201   7.570966   4.183164
    43  H    8.670812   2.412245   4.800395   7.275244   2.727747
    44  Cu   2.516000   6.656710   5.032000   4.357840   7.377003
                   31         32         33         34         35
    31  H    0.000000
    32  H    2.516000   0.000000
    33  H    4.829902   2.487107   0.000000
    34  H    6.841087   4.829902   2.516000   0.000000
    35  H    9.106783   7.289082   5.032000   2.516000   0.000000
    36  H   10.809188   9.329297   7.289082   4.829902   2.487107
    37  H   10.593029   9.655127   8.087755   5.967329   4.297297
    38  H    9.655127   9.321547   8.360235   6.813297   5.967329
    39  H    9.321547   9.655127   9.329297   8.360235   8.087755
    40  H    8.360235   9.329297   9.655127   9.321547   9.655127
    41  H    6.813297   8.360235   9.321547   9.655127  10.593029
    42  H    5.844747   7.967671   9.549775  10.503867  11.921609
    43  H    4.966435   7.385855   9.385757  10.801690  12.566666
    44  Cu   5.952261   5.394363   4.671056   3.935545   4.671056
                   36         37         38         39         40
    36  H    0.000000
    37  H    2.487107   0.000000
    38  H    4.829902   2.516000   0.000000
    39  H    7.289082   5.032000   2.516000   0.000000
    40  H    9.329297   7.289082   4.829902   2.487107   0.000000
    41  H   10.809188   9.106783   6.841087   4.829902   2.516000
    42  H   12.565878  11.167850   9.096024   7.308552   5.069567
    43  H   13.565130  12.477920  10.637321   9.125087   7.051640
    44  Cu   5.394363   4.671056   3.935545   4.671056   5.394363
                   41         42         43         44
    41  H    0.000000
    42  H    2.562712   0.000000
    43  H    4.597995   2.138235   0.000000
    44  Cu   5.952261   7.321361   8.218967   0.000000
 Stoichiometry    C29H14Cu(2)
 Framework group  C1[X(C29H14Cu)]
 Deg. of freedom   126
 Full point group                 C1      NOp   1
 Largest Abelian subgroup         C1      NOp   1
 Largest concise Abelian subgroup C1      NOp   1
                         Standard orientation:                         
 ---------------------------------------------------------------------
 Center     Atomic      Atomic             Coordinates (Angstroms)
 Number     Number       Type             X           Y           Z
 ---------------------------------------------------------------------
      1          6           0       -0.567782   -3.774053    0.223886
      2          6           0        0.883829   -3.772459   -0.196741
      3          6           0        1.610050   -2.514179    0.219717
      4          6           0        3.787883   -1.254304    0.215549
      5          6           0        5.965716    0.005570    0.211380
      6          6           0        3.061662   -2.512585   -0.200909
      7          6           0        5.239494   -1.252711   -0.205078
      8          6           0       -2.747775   -2.517929    0.230131
      9          6           0       -4.927769   -1.261806    0.236376
     10          6           0       -1.296164   -2.516336   -0.190495
     11          6           0       -3.476157   -1.260212   -0.184250
     12          6           0       -5.656150   -0.004088   -0.178005
     13          6           0       -0.569943   -1.258055    0.225962
     14          6           0       -2.749936   -0.001931    0.232207
     15          6           0       -4.929929    1.254192    0.238453
     16          6           0        1.607890    0.001820    0.221794
     17          6           0       -0.572103    1.257943    0.228039
     18          6           0       -2.752097    2.514067    0.234284
     19          6           0        3.785722    1.261694    0.217625
     20          6           0        1.605729    2.517818    0.223870
     21          6           0       -0.574264    3.773941    0.230115
     22          6           0        0.881669   -1.256461   -0.194664
     23          6           0       -3.478318    1.255786   -0.182174
     24          6           0        3.059501    0.003413   -0.198833
     25          6           0        0.879508    1.259537   -0.192587
     26          6           0       -1.300485    2.515661   -0.186342
     27          6           0        5.237334    1.263288   -0.203001
     28          6           0        3.057341    2.519411   -0.196756
     29          6           0        0.877348    3.775535   -0.190511
     30          1           0        5.751490    2.154135    0.091846
     31          1           0        3.571496    3.410259    0.098091
     32          1           0        1.391503    4.666383    0.104336
     33          1           0       -1.089949    4.664390   -0.063261
     34          1           0       -3.267782    3.404516   -0.059093
     35          1           0       -5.445614    2.144641   -0.054924
     36          1           0       -6.683873   -0.005217    0.119793
     37          1           0       -5.441924   -2.152653   -0.058471
     38          1           0       -3.261931   -3.408777   -0.064716
     39          1           0       -1.081938   -4.664901   -0.070961
     40          1           0        1.399515   -4.662908    0.096636
     41          1           0        3.577347   -3.403034    0.092468
     42          1           0        5.716985   -2.019754    0.368113
     43          1           0        6.865263   -0.252691    0.730046
     44         29           0       -1.298325   -0.000338   -0.188419
 ---------------------------------------------------------------------
 Rotational constants (GHZ):      0.2989794      0.1302858      0.0913474
 Standard basis: VSTO-6G (5D, 7F)
 There are   140 symmetry adapted cartesian basis functions of A   symmetry.
 There are   139 symmetry adapted basis functions of A   symmetry.
   139 basis functions,   840 primitive gaussians,   140 cartesian basis functions
    71 alpha electrons       70 beta electrons
       nuclear repulsion energy      1389.8998514039 Hartrees.
 Integral buffers will be    262144 words long.
 Regular integral format.
 Two-electron integral symmetry is turned off.
 Do NDO integrals.
 One-electron integrals computed using PRISM.
 NBasis=   139 RedAO= F EigKep=  0.00D+00  NBF=   139
 NBsUse=   139 1.00D-04 EigRej=  0.00D+00 NBFU=   139
 Simple Huckel Guess.
 Initial guess <Sx>= 0.0000 <Sy>= 0.0000 <Sz>= 0.5000 <S**2>= 0.7500 S= 0.5000
 Keep J ints in memory in canonical form, NReq=2111950.
 Gradient too large for Newton-Raphson -- use scaled steepest descent instead.
     Minimum is close to point  2 DX= -3.55D-03 DF= -9.00D-04 DXR=  1.20D-02 DFR=  1.43D-04 which will be used.
 Gradient too large for Newton-Raphson -- use scaled steepest descent instead.
     Minimum is close to point  3 DX=  2.18D-02 DF= -2.04D-03 DXR=  5.18D-02 DFR=  2.70D-03 which will be used.
 Gradient too large for Newton-Raphson -- use scaled steepest descent instead.
     Accept linear search using points  3 and  4.
 Gradient too large for Newton-Raphson -- use scaled steepest descent instead.
     Minimum is close to point  2 DX=  1.05D-02 DF= -7.57D-05 DXR=  2.06D-02 DFR=  4.24D-04 which will be used.
 Gradient too large for Newton-Raphson -- use scaled steepest descent instead.
     Minimum is close to point  2 DX=  3.12D-02 DF= -2.77D-04 DXR=  4.94D-02 DFR=  2.45D-03 which will be used.
 Gradient too large for Newton-Raphson -- use scaled steepest descent instead.
     Accept linear search using points  1 and  2.
 Gradient too large for Newton-Raphson -- use scaled steepest descent instead.
 Gradient too large for Newton-Raphson -- use scaled steepest descent instead.
     Accept linear search using points  1 and  2.
 Gradient too large for Newton-Raphson -- use scaled steepest descent instead.
     Accept linear search using points  2 and  3.
 Gradient too large for Newton-Raphson -- use scaled steepest descent instead.
     Accept linear search using points  1 and  2.
 Gradient too large for Newton-Raphson -- use scaled steepest descent instead.
     Accept linear search using points  3 and  4.
 Gradient too large for Newton-Raphson -- use scaled steepest descent instead.
     Minimum is close to point  3 DX=  1.15D-02 DF= -2.42D-05 DXR=  3.70D-02 DFR=  1.37D-03 which will be used.
 Gradient too large for Newton-Raphson -- use scaled steepest descent instead.
     Accept linear search using points  3 and  4.
     Minimum is close to point  4 DX= -4.96D-02 DF= -9.82D-06 DXR=  1.68D-02 DFR=  5.02D-04 which will be used.
 Gradient too large for Newton-Raphson -- use scaled steepest descent instead.
     Minimum is close to point  3 DX= -7.82D-03 DF= -1.06D-05 DXR=  2.68D-02 DFR=  7.17D-04 which will be used.
 Gradient too large for Newton-Raphson -- use scaled steepest descent instead.
     Accept linear search using points  1 and  2.
 Gradient too large for Newton-Raphson -- use scaled steepest descent instead.
     Minimum is close to point  3 DX= -8.65D-03 DF= -9.53D-06 DXR=  2.97D-02 DFR=  8.82D-04 which will be used.
 Gradient too large for Newton-Raphson -- use scaled steepest descent instead.
 Gradient too large for Newton-Raphson -- use scaled steepest descent instead.
     Minimum is close to point  3 DX=  1.57D-02 DF= -1.11D-05 DXR=  4.96D-02 DFR=  2.46D-03 which will be used.
 Gradient too large for Newton-Raphson -- use scaled steepest descent instead.
     Minimum is close to point  4 DX=  1.49D-01 DF= -1.54D-05 DXR=  4.73D-02 DFR=  2.31D-03 which will be used.
 Gradient too large for Newton-Raphson -- use scaled steepest descent instead.
     Minimum is close to point  3 DX= -5.21D-03 DF= -1.37D-06 DXR=  1.77D-02 DFR=  3.12D-04 which will be used.
 Gradient too large for Newton-Raphson -- use scaled steepest descent instead.
 Gradient too large for Newton-Raphson -- use scaled steepest descent instead.
     Minimum is close to point  3 DX=  8.47D-03 DF= -1.54D-06 DXR=  2.75D-02 DFR=  7.55D-04 which will be used.
 Gradient too large for Newton-Raphson -- use scaled steepest descent instead.
     Accept linear search using points  3 and  4.
     Minimum is close to point  4 DX= -1.92D-01 DF= -1.32D-05 DXR=  6.59D-02 DFR=  5.80D-03 which will be used.
 Gradient too large for Newton-Raphson -- use scaled steepest descent instead.
     Minimum is close to point  3 DX= -1.22D-02 DF= -3.81D-06 DXR=  4.25D-02 DFR=  1.81D-03 which will be used.
 Gradient too large for Newton-Raphson -- use scaled steepest descent instead.
     Accept linear search using points  1 and  2.
 Gradient too large for Newton-Raphson -- use scaled steepest descent instead.
     Minimum is close to point  3 DX=  1.59D-02 DF= -1.62D-06 DXR=  5.05D-02 DFR=  2.55D-03 which will be used.
 Gradient too large for Newton-Raphson -- use scaled steepest descent instead.
     Minimum is close to point  4 DX=  8.71D-02 DF= -7.98D-07 DXR=  3.02D-02 DFR=  9.24D-04 which will be used.
 Gradient too large for Newton-Raphson -- use scaled steepest descent instead.
     Minimum is close to point  3 DX= -7.95D-03 DF= -4.10D-07 DXR=  2.72D-02 DFR=  7.41D-04 which will be used.
 Gradient too large for Newton-Raphson -- use scaled steepest descent instead.
     Accept linear search using points  1 and  2.
 Gradient too large for Newton-Raphson -- use scaled steepest descent instead.
     Minimum is close to point  3 DX= -8.67D-03 DF= -2.81D-07 DXR=  2.98D-02 DFR=  8.87D-04 which will be used.
 LinEq1:  Iter=  0 NonCon=     1 RMS=2.10D-04 Max=7.85D-03 NDo=     1
 AX will form     1 AO Fock derivatives at one time.
 LinEq1:  Iter=  1 NonCon=     1 RMS=3.86D-05 Max=1.14D-03 NDo=     1
 LinEq1:  Iter=  2 NonCon=     1 RMS=7.96D-06 Max=2.09D-04 NDo=     1
 LinEq1:  Iter=  3 NonCon=     1 RMS=2.96D-06 Max=9.50D-05 NDo=     1
 LinEq1:  Iter=  4 NonCon=     1 RMS=9.61D-07 Max=1.74D-05 NDo=     1
 LinEq1:  Iter=  5 NonCon=     1 RMS=2.57D-07 Max=6.98D-06 NDo=     1
 LinEq1:  Iter=  6 NonCon=     1 RMS=8.11D-08 Max=1.76D-06 NDo=     1
 LinEq1:  Iter=  7 NonCon=     1 RMS=2.60D-08 Max=6.26D-07 NDo=     1
 LinEq1:  Iter=  8 NonCon=     1 RMS=8.55D-09 Max=1.77D-07 NDo=     1
 LinEq1:  Iter=  9 NonCon=     0 RMS=1.96D-09 Max=5.01D-08 NDo=     1
 Linear equations converged to 9.828D-09 9.828D-08 after     9 iterations.
     Accept linear search using points  1 and  2.
     Minimum is close to point  2 DX= -8.04D-02 DF= -7.44D-06 DXR=  8.75D-02 DFR=  8.18D-03 which will be used.
 LinEq1:  Iter=  0 NonCon=     1 RMS=3.32D-05 Max=5.28D-04 NDo=     1
 LinEq1:  Iter=  1 NonCon=     1 RMS=1.45D-05 Max=2.95D-04 NDo=     1
 LinEq1:  Iter=  2 NonCon=     1 RMS=3.13D-06 Max=7.01D-05 NDo=     1
 LinEq1:  Iter=  3 NonCon=     1 RMS=6.71D-07 Max=1.91D-05 NDo=     1
 LinEq1:  Iter=  4 NonCon=     1 RMS=2.14D-07 Max=6.86D-06 NDo=     1
 LinEq1:  Iter=  5 NonCon=     1 RMS=7.90D-08 Max=2.10D-06 NDo=     1
 LinEq1:  Iter=  6 NonCon=     1 RMS=2.65D-08 Max=4.08D-07 NDo=     1
 LinEq1:  Iter=  7 NonCon=     1 RMS=6.65D-09 Max=1.19D-07 NDo=     1
 LinEq1:  Iter=  8 NonCon=     0 RMS=1.92D-09 Max=2.96D-08 NDo=     1
 Linear equations converged to 9.828D-09 9.828D-08 after     8 iterations.
     Minimum is close to point  2 DX=  1.32D-02 DF= -2.16D-09 DXR=  1.30D-02 DFR=  1.69D-04 which will be used.
 LinEq1:  Iter=  0 NonCon=     1 RMS=8.15D-07 Max=1.36D-05 NDo=     1
 LinEq1:  Iter=  1 NonCon=     1 RMS=3.40D-07 Max=6.16D-06 NDo=     1
 LinEq1:  Iter=  2 NonCon=     1 RMS=9.01D-08 Max=1.60D-06 NDo=     1
 LinEq1:  Iter=  3 NonCon=     1 RMS=2.93D-08 Max=6.15D-07 NDo=     1
 LinEq1:  Iter=  4 NonCon=     1 RMS=1.14D-08 Max=2.92D-07 NDo=     1
 LinEq1:  Iter=  5 NonCon=     1 RMS=3.11D-09 Max=5.39D-08 NDo=     1
 LinEq1:  Iter=  6 NonCon=     1 RMS=8.79D-10 Max=2.35D-08 NDo=     1
 LinEq1:  Iter=  7 NonCon=     0 RMS=2.32D-10 Max=4.74D-09 NDo=     1
 Linear equations converged to 6.479D-10 6.479D-09 after     7 iterations.
 LinEq1:  Iter=  0 NonCon=     1 RMS=1.18D-07 Max=2.40D-06 NDo=     1
 LinEq1:  Iter=  1 NonCon=     1 RMS=4.98D-08 Max=1.38D-06 NDo=     1
 LinEq1:  Iter=  2 NonCon=     1 RMS=1.14D-08 Max=1.96D-07 NDo=     1
 LinEq1:  Iter=  3 NonCon=     1 RMS=3.24D-09 Max=5.37D-08 NDo=     1
 LinEq1:  Iter=  4 NonCon=     1 RMS=1.21D-09 Max=3.21D-08 NDo=     1
 LinEq1:  Iter=  5 NonCon=     1 RMS=3.71D-10 Max=5.80D-09 NDo=     1
 LinEq1:  Iter=  6 NonCon=     1 RMS=1.06D-10 Max=2.75D-09 NDo=     1
 LinEq1:  Iter=  7 NonCon=     0 RMS=3.63D-11 Max=4.57D-10 NDo=     1
 Linear equations converged to 6.432D-11 6.432D-10 after     7 iterations.
 LinEq1:  Iter=  0 NonCon=     1 RMS=7.49D-09 Max=9.44D-08 NDo=     1
 LinEq1:  Iter=  1 NonCon=     1 RMS=3.55D-09 Max=9.41D-08 NDo=     1
 LinEq1:  Iter=  2 NonCon=     1 RMS=1.11D-09 Max=1.97D-08 NDo=     1
 LinEq1:  Iter=  3 NonCon=     1 RMS=3.78D-10 Max=7.43D-09 NDo=     1
 LinEq1:  Iter=  4 NonCon=     1 RMS=1.11D-10 Max=3.08D-09 NDo=     1
 LinEq1:  Iter=  5 NonCon=     1 RMS=3.46D-11 Max=6.51D-10 NDo=     1
 LinEq1:  Iter=  6 NonCon=     1 RMS=1.23D-11 Max=3.78D-10 NDo=     1
 LinEq1:  Iter=  7 NonCon=     0 RMS=3.71D-12 Max=7.26D-11 NDo=     1
 Linear equations converged to 1.211D-11 1.211D-10 after     7 iterations.
 Search did not lower the energy significantly.
 No lower point found -- using Newton-Raphson step.
 SCF Done:  E(UPM6) =   1.56055850804     a.u. after   36 cycles
            Convg  =    0.1250D-06                   136 Fock formations.
              S**2 =  5.9149                  -V/T =  1.0162
 <Sx>= 0.0000 <Sy>= 0.0000 <Sz>= 0.5000 <S**2>= 5.9149 S= 1.9829
 <L.S>= 0.000000000000E+00
 Annihilation of the first spin contaminant:
 S**2 before annihilation     5.9149,   after    20.9510

 **********************************************************************

            Population analysis using the SCF density.

 **********************************************************************

 Orbital symmetries:
 Alpha Orbitals:
       Occupied  (A) (A) (A) (A) (A) (A) (A) (A) (A) (A) (A) (A)
                 (A) (A) (A) (A) (A) (A) (A) (A) (A) (A) (A) (A)
                 (A) (A) (A) (A) (A) (A) (A) (A) (A) (A) (A) (A)
                 (A) (A) (A) (A) (A) (A) (A) (A) (A) (A) (A) (A)
                 (A) (A) (A) (A) (A) (A) (A) (A) (A) (A) (A) (A)
                 (A) (A) (A) (A) (A) (A) (A) (A) (A) (A) (A)
       Virtual   (A) (A) (A) (A) (A) (A) (A) (A) (A) (A) (A) (A)
                 (A) (A) (A) (A) (A) (A) (A) (A) (A) (A) (A) (A)
                 (A) (A) (A) (A) (A) (A) (A) (A) (A) (A) (A) (A)
                 (A) (A) (A) (A) (A) (A) (A) (A) (A) (A) (A) (A)
                 (A) (A) (A) (A) (A) (A) (A) (A) (A) (A) (A) (A)
                 (A) (A) (A) (A) (A) (A) (A) (A)
 Beta  Orbitals:
       Occupied  (A) (A) (A) (A) (A) (A) (A) (A) (A) (A) (A) (A)
                 (A) (A) (A) (A) (A) (A) (A) (A) (A) (A) (A) (A)
                 (A) (A) (A) (A) (A) (A) (A) (A) (A) (A) (A) (A)
                 (A) (A) (A) (A) (A) (A) (A) (A) (A) (A) (A) (A)
                 (A) (A) (A) (A) (A) (A) (A) (A) (A) (A) (A) (A)
                 (A) (A) (A) (A) (A) (A) (A) (A) (A) (A)
       Virtual   (A) (A) (A) (A) (A) (A) (A) (A) (A) (A) (A) (A)
                 (A) (A) (A) (A) (A) (A) (A) (A) (A) (A) (A) (A)
                 (A) (A) (A) (A) (A) (A) (A) (A) (A) (A) (A) (A)
                 (A) (A) (A) (A) (A) (A) (A) (A) (A) (A) (A) (A)
                 (A) (A) (A) (A) (A) (A) (A) (A) (A) (A) (A) (A)
                 (A) (A) (A) (A) (A) (A) (A) (A) (A)
 The electronic state is 2-A.
 Alpha  occ. eigenvalues --   -1.20233  -1.06351  -1.04093  -1.03889  -1.00235
 Alpha  occ. eigenvalues --   -1.00043  -0.98735  -0.97066  -0.94209  -0.91779
 Alpha  occ. eigenvalues --   -0.91445  -0.90886  -0.88422  -0.86130  -0.85622
 Alpha  occ. eigenvalues --   -0.79949  -0.78886  -0.77932  -0.77224  -0.74445
 Alpha  occ. eigenvalues --   -0.73412  -0.72971  -0.71512  -0.67709  -0.67257
 Alpha  occ. eigenvalues --   -0.65187  -0.63466  -0.61597  -0.61179  -0.60374
 Alpha  occ. eigenvalues --   -0.60281  -0.58312  -0.58172  -0.56965  -0.56294
 Alpha  occ. eigenvalues --   -0.53585  -0.53154  -0.52744  -0.52604  -0.52099
 Alpha  occ. eigenvalues --   -0.51630  -0.51052  -0.50207  -0.50038  -0.49193
 Alpha  occ. eigenvalues --   -0.48879  -0.47495  -0.47220  -0.46640  -0.46549
 Alpha  occ. eigenvalues --   -0.45856  -0.45441  -0.44331  -0.43763  -0.43484
 Alpha  occ. eigenvalues --   -0.43344  -0.42590  -0.42502  -0.41365  -0.41273
 Alpha  occ. eigenvalues --   -0.40991  -0.40723  -0.40407  -0.38901  -0.37917
 Alpha  occ. eigenvalues --   -0.37537  -0.37309  -0.35843  -0.35353  -0.31024
 Alpha  occ. eigenvalues --   -0.29995
 Alpha virt. eigenvalues --   -0.05318  -0.03889  -0.03851  -0.02601  -0.01152
 Alpha virt. eigenvalues --   -0.01095  -0.00361  -0.00126   0.00293   0.02343
 Alpha virt. eigenvalues --    0.02567   0.03535   0.05152   0.06071   0.06609
 Alpha virt. eigenvalues --    0.10224   0.10822   0.10917   0.10981   0.11434
 Alpha virt. eigenvalues --    0.12286   0.12842   0.12882   0.13028   0.13655
 Alpha virt. eigenvalues --    0.13827   0.13967   0.14033   0.14172   0.14224
 Alpha virt. eigenvalues --    0.14444   0.14555   0.14904   0.15103   0.15170
 Alpha virt. eigenvalues --    0.15298   0.15546   0.15692   0.15874   0.16217
 Alpha virt. eigenvalues --    0.16412   0.16575   0.16678   0.16975   0.17248
 Alpha virt. eigenvalues --    0.17697   0.17734   0.18483   0.18527   0.18762
 Alpha virt. eigenvalues --    0.18844   0.21012   0.21109   0.21527   0.21547
 Alpha virt. eigenvalues --    0.21645   0.21698   0.21928   0.22287   0.22307
 Alpha virt. eigenvalues --    0.22332   0.23169   0.23205   0.23218   0.23238
 Alpha virt. eigenvalues --    4.31369   4.31775   4.33307
  Beta  occ. eigenvalues --   -1.20269  -1.06272  -1.04120  -1.03821  -1.00201
  Beta  occ. eigenvalues --   -0.99987  -0.98848  -0.96885  -0.94111  -0.91680
  Beta  occ. eigenvalues --   -0.91467  -0.90819  -0.88463  -0.85906  -0.85147
  Beta  occ. eigenvalues --   -0.79560  -0.78845  -0.77874  -0.77395  -0.74354
  Beta  occ. eigenvalues --   -0.73526  -0.73048  -0.71282  -0.67705  -0.67203
  Beta  occ. eigenvalues --   -0.64800  -0.63912  -0.61650  -0.60970  -0.60210
  Beta  occ. eigenvalues --   -0.59995  -0.58530  -0.58318  -0.56898  -0.55950
  Beta  occ. eigenvalues --   -0.53550  -0.52964  -0.52683  -0.52620  -0.51841
  Beta  occ. eigenvalues --   -0.51724  -0.50777  -0.50143  -0.49875  -0.48803
  Beta  occ. eigenvalues --   -0.48271  -0.47445  -0.46993  -0.46678  -0.46459
  Beta  occ. eigenvalues --   -0.45818  -0.45454  -0.44220  -0.43564  -0.43527
  Beta  occ. eigenvalues --   -0.42942  -0.42891  -0.42255  -0.42214  -0.40909
  Beta  occ. eigenvalues --   -0.40549  -0.40231  -0.39937  -0.38553  -0.37788
  Beta  occ. eigenvalues --   -0.37357  -0.36715  -0.35597  -0.29749  -0.28960
  Beta virt. eigenvalues --   -0.04849  -0.04720  -0.03262  -0.02452  -0.01441
  Beta virt. eigenvalues --   -0.01008  -0.00911  -0.00380   0.01262   0.01338
  Beta virt. eigenvalues --    0.01786   0.02878   0.03955   0.04877   0.05035
  Beta virt. eigenvalues --    0.06570   0.10433   0.10695   0.11032   0.11077
  Beta virt. eigenvalues --    0.11565   0.12151   0.12646   0.12718   0.13027
  Beta virt. eigenvalues --    0.13562   0.13662   0.13847   0.13963   0.14178
  Beta virt. eigenvalues --    0.14337   0.14397   0.14487   0.14904   0.15067
  Beta virt. eigenvalues --    0.15311   0.15411   0.15509   0.15558   0.15932
  Beta virt. eigenvalues --    0.16107   0.16668   0.16688   0.16921   0.16980
  Beta virt. eigenvalues --    0.17279   0.17672   0.17801   0.18416   0.18477
  Beta virt. eigenvalues --    0.18598   0.18673   0.20875   0.21471   0.21679
  Beta virt. eigenvalues --    0.21928   0.21996   0.22110   0.22143   0.22496
  Beta virt. eigenvalues --    0.22621   0.22640   0.22743   0.22758   0.23469
  Beta virt. eigenvalues --    0.23523   4.31320   4.31846   4.33143
          Condensed to atoms (all electrons):
               1          2          3          4          5          6
     1  C    4.087198   0.000000   0.000000   0.000000   0.000000   0.000000
     2  C    0.000000   4.155553   0.000000   0.000000   0.000000   0.000000
     3  C    0.000000   0.000000   3.966947   0.000000   0.000000   0.000000
     4  C    0.000000   0.000000   0.000000   4.001055   0.000000   0.000000
     5  C    0.000000   0.000000   0.000000   0.000000   4.167596   0.000000
     6  C    0.000000   0.000000   0.000000   0.000000   0.000000   4.144395
     7  C    0.000000   0.000000   0.000000   0.000000   0.000000   0.000000
     8  C    0.000000   0.000000   0.000000   0.000000   0.000000   0.000000
     9  C    0.000000   0.000000   0.000000   0.000000   0.000000   0.000000
    10  C    0.000000   0.000000   0.000000   0.000000   0.000000   0.000000
    11  C    0.000000   0.000000   0.000000   0.000000   0.000000   0.000000
    12  C    0.000000   0.000000   0.000000   0.000000   0.000000   0.000000
    13  C    0.000000   0.000000   0.000000   0.000000   0.000000   0.000000
    14  C    0.000000   0.000000   0.000000   0.000000   0.000000   0.000000
    15  C    0.000000   0.000000   0.000000   0.000000   0.000000   0.000000
    16  C    0.000000   0.000000   0.000000   0.000000   0.000000   0.000000
    17  C    0.000000   0.000000   0.000000   0.000000   0.000000   0.000000
    18  C    0.000000   0.000000   0.000000   0.000000   0.000000   0.000000
    19  C    0.000000   0.000000   0.000000   0.000000   0.000000   0.000000
    20  C    0.000000   0.000000   0.000000   0.000000   0.000000   0.000000
    21  C    0.000000   0.000000   0.000000   0.000000   0.000000   0.000000
    22  C    0.000000   0.000000   0.000000   0.000000   0.000000   0.000000
    23  C    0.000000   0.000000   0.000000   0.000000   0.000000   0.000000
    24  C    0.000000   0.000000   0.000000   0.000000   0.000000   0.000000
    25  C    0.000000   0.000000   0.000000   0.000000   0.000000   0.000000
    26  C    0.000000   0.000000   0.000000   0.000000   0.000000   0.000000
    27  C    0.000000   0.000000   0.000000   0.000000   0.000000   0.000000
    28  C    0.000000   0.000000   0.000000   0.000000   0.000000   0.000000
    29  C    0.000000   0.000000   0.000000   0.000000   0.000000   0.000000
    30  H    0.000000   0.000000   0.000000   0.000000   0.000000   0.000000
    31  H    0.000000   0.000000   0.000000   0.000000   0.000000   0.000000
    32  H    0.000000   0.000000   0.000000   0.000000   0.000000   0.000000
    33  H    0.000000   0.000000   0.000000   0.000000   0.000000   0.000000
    34  H    0.000000   0.000000   0.000000   0.000000   0.000000   0.000000
    35  H    0.000000   0.000000   0.000000   0.000000   0.000000   0.000000
    36  H    0.000000   0.000000   0.000000   0.000000   0.000000   0.000000
    37  H    0.000000   0.000000   0.000000   0.000000   0.000000   0.000000
    38  H    0.000000   0.000000   0.000000   0.000000   0.000000   0.000000
    39  H    0.000000   0.000000   0.000000   0.000000   0.000000   0.000000
    40  H    0.000000   0.000000   0.000000   0.000000   0.000000   0.000000
    41  H    0.000000   0.000000   0.000000   0.000000   0.000000   0.000000
    42  H    0.000000   0.000000   0.000000   0.000000   0.000000   0.000000
    43  H    0.000000   0.000000   0.000000   0.000000   0.000000   0.000000
    44  Cu   0.000000   0.000000   0.000000   0.000000   0.000000   0.000000
               7          8          9         10         11         12
     1  C    0.000000   0.000000   0.000000   0.000000   0.000000   0.000000
     2  C    0.000000   0.000000   0.000000   0.000000   0.000000   0.000000
     3  C    0.000000   0.000000   0.000000   0.000000   0.000000   0.000000
     4  C    0.000000   0.000000   0.000000   0.000000   0.000000   0.000000
     5  C    0.000000   0.000000   0.000000   0.000000   0.000000   0.000000
     6  C    0.000000   0.000000   0.000000   0.000000   0.000000   0.000000
     7  C    4.135041   0.000000   0.000000   0.000000   0.000000   0.000000
     8  C    0.000000   4.214928   0.000000   0.000000   0.000000   0.000000
     9  C    0.000000   0.000000   4.091681   0.000000   0.000000   0.000000
    10  C    0.000000   0.000000   0.000000   4.179177   0.000000   0.000000
    11  C    0.000000   0.000000   0.000000   0.000000   4.094984   0.000000
    12  C    0.000000   0.000000   0.000000   0.000000   0.000000   4.152026
    13  C    0.000000   0.000000   0.000000   0.000000   0.000000   0.000000
    14  C    0.000000   0.000000   0.000000   0.000000   0.000000   0.000000
    15  C    0.000000   0.000000   0.000000   0.000000   0.000000   0.000000
    16  C    0.000000   0.000000   0.000000   0.000000   0.000000   0.000000
    17  C    0.000000   0.000000   0.000000   0.000000   0.000000   0.000000
    18  C    0.000000   0.000000   0.000000   0.000000   0.000000   0.000000
    19  C    0.000000   0.000000   0.000000   0.000000   0.000000   0.000000
    20  C    0.000000   0.000000   0.000000   0.000000   0.000000   0.000000
    21  C    0.000000   0.000000   0.000000   0.000000   0.000000   0.000000
    22  C    0.000000   0.000000   0.000000   0.000000   0.000000   0.000000
    23  C    0.000000   0.000000   0.000000   0.000000   0.000000   0.000000
    24  C    0.000000   0.000000   0.000000   0.000000   0.000000   0.000000
    25  C    0.000000   0.000000   0.000000   0.000000   0.000000   0.000000
    26  C    0.000000   0.000000   0.000000   0.000000   0.000000   0.000000
    27  C    0.000000   0.000000   0.000000   0.000000   0.000000   0.000000
    28  C    0.000000   0.000000   0.000000   0.000000   0.000000   0.000000
    29  C    0.000000   0.000000   0.000000   0.000000   0.000000   0.000000
    30  H    0.000000   0.000000   0.000000   0.000000   0.000000   0.000000
    31  H    0.000000   0.000000   0.000000   0.000000   0.000000   0.000000
    32  H    0.000000   0.000000   0.000000   0.000000   0.000000   0.000000
    33  H    0.000000   0.000000   0.000000   0.000000   0.000000   0.000000
    34  H    0.000000   0.000000   0.000000   0.000000   0.000000   0.000000
    35  H    0.000000   0.000000   0.000000   0.000000   0.000000   0.000000
    36  H    0.000000   0.000000   0.000000   0.000000   0.000000   0.000000
    37  H    0.000000   0.000000   0.000000   0.000000   0.000000   0.000000
    38  H    0.000000   0.000000   0.000000   0.000000   0.000000   0.000000
    39  H    0.000000   0.000000   0.000000   0.000000   0.000000   0.000000
    40  H    0.000000   0.000000   0.000000   0.000000   0.000000   0.000000
    41  H    0.000000   0.000000   0.000000   0.000000   0.000000   0.000000
    42  H    0.000000   0.000000   0.000000   0.000000   0.000000   0.000000
    43  H    0.000000   0.000000   0.000000   0.000000   0.000000   0.000000
    44  Cu   0.000000   0.000000   0.000000   0.000000   0.000000   0.000000
              13         14         15         16         17         18
     1  C    0.000000   0.000000   0.000000   0.000000   0.000000   0.000000
     2  C    0.000000   0.000000   0.000000   0.000000   0.000000   0.000000
     3  C    0.000000   0.000000   0.000000   0.000000   0.000000   0.000000
     4  C    0.000000   0.000000   0.000000   0.000000   0.000000   0.000000
     5  C    0.000000   0.000000   0.000000   0.000000   0.000000   0.000000
     6  C    0.000000   0.000000   0.000000   0.000000   0.000000   0.000000
     7  C    0.000000   0.000000   0.000000   0.000000   0.000000   0.000000
     8  C    0.000000   0.000000   0.000000   0.000000   0.000000   0.000000
     9  C    0.000000   0.000000   0.000000   0.000000   0.000000   0.000000
    10  C    0.000000   0.000000   0.000000   0.000000   0.000000   0.000000
    11  C    0.000000   0.000000   0.000000   0.000000   0.000000   0.000000
    12  C    0.000000   0.000000   0.000000   0.000000   0.000000   0.000000
    13  C    4.304299   0.000000   0.000000   0.000000   0.000000   0.000000
    14  C    0.000000   4.191100   0.000000   0.000000   0.000000   0.000000
    15  C    0.000000   0.000000   4.091712   0.000000   0.000000   0.000000
    16  C    0.000000   0.000000   0.000000   4.039298   0.000000   0.000000
    17  C    0.000000   0.000000   0.000000   0.000000   4.304164   0.000000
    18  C    0.000000   0.000000   0.000000   0.000000   0.000000   4.214706
    19  C    0.000000   0.000000   0.000000   0.000000   0.000000   0.000000
    20  C    0.000000   0.000000   0.000000   0.000000   0.000000   0.000000
    21  C    0.000000   0.000000   0.000000   0.000000   0.000000   0.000000
    22  C    0.000000   0.000000   0.000000   0.000000   0.000000   0.000000
    23  C    0.000000   0.000000   0.000000   0.000000   0.000000   0.000000
    24  C    0.000000   0.000000   0.000000   0.000000   0.000000   0.000000
    25  C    0.000000   0.000000   0.000000   0.000000   0.000000   0.000000
    26  C    0.000000   0.000000   0.000000   0.000000   0.000000   0.000000
    27  C    0.000000   0.000000   0.000000   0.000000   0.000000   0.000000
    28  C    0.000000   0.000000   0.000000   0.000000   0.000000   0.000000
    29  C    0.000000   0.000000   0.000000   0.000000   0.000000   0.000000
    30  H    0.000000   0.000000   0.000000   0.000000   0.000000   0.000000
    31  H    0.000000   0.000000   0.000000   0.000000   0.000000   0.000000
    32  H    0.000000   0.000000   0.000000   0.000000   0.000000   0.000000
    33  H    0.000000   0.000000   0.000000   0.000000   0.000000   0.000000
    34  H    0.000000   0.000000   0.000000   0.000000   0.000000   0.000000
    35  H    0.000000   0.000000   0.000000   0.000000   0.000000   0.000000
    36  H    0.000000   0.000000   0.000000   0.000000   0.000000   0.000000
    37  H    0.000000   0.000000   0.000000   0.000000   0.000000   0.000000
    38  H    0.000000   0.000000   0.000000   0.000000   0.000000   0.000000
    39  H    0.000000   0.000000   0.000000   0.000000   0.000000   0.000000
    40  H    0.000000   0.000000   0.000000   0.000000   0.000000   0.000000
    41  H    0.000000   0.000000   0.000000   0.000000   0.000000   0.000000
    42  H    0.000000   0.000000   0.000000   0.000000   0.000000   0.000000
    43  H    0.000000   0.000000   0.000000   0.000000   0.000000   0.000000
    44  Cu   0.000000   0.000000   0.000000   0.000000   0.000000   0.000000
              19         20         21         22         23         24
     1  C    0.000000   0.000000   0.000000   0.000000   0.000000   0.000000
     2  C    0.000000   0.000000   0.000000   0.000000   0.000000   0.000000
     3  C    0.000000   0.000000   0.000000   0.000000   0.000000   0.000000
     4  C    0.000000   0.000000   0.000000   0.000000   0.000000   0.000000
     5  C    0.000000   0.000000   0.000000   0.000000   0.000000   0.000000
     6  C    0.000000   0.000000   0.000000   0.000000   0.000000   0.000000
     7  C    0.000000   0.000000   0.000000   0.000000   0.000000   0.000000
[...]
 .00000060,-0.00123322,0.00090433,-0.00011094,-0.00675028,0.02804014,-0
 .00469573,-0.00702841,-0.02847093,0.00355671,0.00002659,0.00001405,-0.
 00000455,-0.03325054,-0.00036662,0.00058996,-0.00140428,-0.00106906,0.
 00011322,0.00003214,-0.00006001,0.00000459,-0.00000225,-0.00000744,0.0
 0000257,-0.00002175,-0.00000755,0.00000301,0.00000242,0.00003268,-0.00
 000265,-0.00000074,-0.00000298,0.00000015,-0.00005102,0.00035808,-0.00
 010353,0.00000664,-0.00001193,-0.00000465,0.00000496,-0.00000239,0.000
 00052,-0.00008260,-0.00001762,0.00000870,-0.00000538,0.00000176,0.0000
 0660,0.00000915,-0.00000374,0.00000197,0.00008089,-0.00043167,0.000011
 19,-0.00001860,0.00001019,0.00000005,-0.00000254,-0.00000622,-0.000000
 33,-0.00223559,0.00093290,-0.00030447,-0.00001585,0.00000323,0.0000031
 1,-0.00232590,-0.00095560,-0.00019714,0.00000715,0.00003434,0.00000393
 ,0.00000127,0.00000465,-0.00000029,0.00004634,0.00000853,0.00000248,-0
 .00011462,-0.00008309,-0.00002254,-0.00000421,-0.00000375,-0.00000131,
 -0.00001218,0.00000125,0.00000058,0.00000796,-0.00002505,-0.00000053,0
 .00000211,0.00000007,0.00000041,0.00000101,0.00000227,-0.00000012,0.00
 000039,0.00000101,-0.00000045,-0.00000085,0.00000203,-0.00000039,-0.00
 000056,0.00000040,-0.00000041,0.00000047,0.00000310,-0.00000003,0.0000
 0126,0.00000976,0.00000078,-0.00000393,-0.00000680,-0.00000159,-0.0008
 8807,-0.00007441,0.00005850,0.05606845,-0.00028615,-0.00004189,0.00000
 940,0.00065069,-0.00019816,-0.00019339,0.01462745,-0.02441297,0.005143
 86,-0.01540311,-0.02563330,0.00376708,0.00023827,-0.00010506,0.0000165
 4,-0.00015410,-0.21673420,0.02641799,-0.00074800,-0.00016877,-0.000143
 03,0.00000300,-0.00006738,0.00001342,-0.00000547,-0.00002559,-0.000001
 50,-0.00011595,-0.00011054,-0.00001794,-0.00003314,0.00005388,0.000016
 64,-0.00002407,0.00001970,0.00000902,0.00008535,-0.00028578,0.00012257
 ,-0.00000305,-0.00000393,-0.00003408,0.00000781,0.00001775,0.00000280,
 0.00011678,0.00029699,-0.00007548,0.00003521,0.00017254,0.00003553,0.0
 0003957,0.00001775,-0.00000367,-0.00000385,-0.00018540,-0.00002791,0.0
 0001081,-0.00004703,-0.00000963,0.00005563,0.00005446,0.00001385,0.000
 96946,-0.00038127,0.00056106,-0.00005120,-0.00000464,0.00001323,-0.001
 12248,-0.00020045,0.00053971,0.00004211,-0.00013716,-0.00004370,-0.000
 04162,-0.00005101,-0.00001977,0.00013535,-0.00003457,0.00000889,-0.000
 01762,0.00003566,-0.00001838,-0.00001790,0.00007240,0.00000698,-0.0000
 7332,-0.00003786,-0.00000014,-0.00004208,-0.00003057,-0.00000380,-0.00
 002834,-0.00001967,-0.00000501,-0.00000282,-0.00004486,-0.00000792,0.0
 0000135,-0.00002128,0.00000209,0.00000095,-0.00002204,-0.00000263,0.00
 002263,-0.00001164,-0.00000810,0.00002441,0.00001461,-0.00000440,0.000
 03245,0.00002131,0.00000109,0.00003395,0.00008985,-0.00000184,0.000119
 71,0.00042209,-0.00002521,0.00106241,0.26718301,-0.00015571,0.00028013
 ,-0.00029983,0.00050325,-0.00010629,-0.00104963,-0.00469316,0.00667991
 ,0.00569250,0.00019161,0.00263394,0.00579068,-0.00007914,-0.00009426,-
 0.00000397,0.00281520,0.02624482,-0.04071768,0.00035817,-0.00031988,-0
 .00115853,0.00005025,0.00001565,0.00005431,-0.00000579,0.00001171,-0.0
 0001741,-0.00012104,-0.00025658,0.00009695,0.00001334,-0.00002831,0.00
 000704,0.00000136,-0.00000743,-0.00000333,0.00024064,-0.00003917,-0.00
 021205,-0.00003502,-0.00000803,-0.00003875,0.00000661,-0.00001083,-0.0
 0000167,0.00064691,0.00013605,0.00006317,0.00000462,0.00006373,-0.0000
 0081,-0.00000680,-0.00000012,-0.00001136,-0.00005322,0.00017476,-0.000
 15649,-0.00000456,-0.00001634,0.00004086,0.00002203,-0.00000734,-0.000
 00404,-0.00075374,-0.00016564,0.00314082,0.00002619,0.00001833,0.00002
 183,-0.00028224,0.00096059,0.00387076,0.00010122,-0.00009044,-0.000499
 14,-0.00001832,-0.00003558,0.00001135,0.00004691,0.00004069,-0.0000302
 9,0.00001646,-0.00004723,-0.00008375,-0.00002063,0.00000609,0.00001976
 ,0.00000579,0.00000446,0.00003239,0.00000316,0.00000250,0.00000518,0.0
 0000381,0.00000130,0.00000599,0.00000017,0.00000638,0.00000114,-0.0000
 0024,0.00000242,0.00000594,0.00000114,0.00000331,0.00000018,-0.0000030
 2,0.00000125,0.00000474,-0.00000155,-0.00000380,0.00000784,-0.00000141
 ,-0.00000154,0.00001203,0.00000279,-0.00000021,0.00009857,0.00003187,-
 0.00000542,0.00035602,0.00116707,-0.03605560,0.02451417,0.00002282,-0.
 00001605,0.00000447,0.00000352,-0.00004586,0.00000622,0.00006653,-0.00
 001825,-0.00000473,-0.00713571,0.02832631,-0.00290359,-0.00692223,-0.0
 2878968,0.00084147,-0.00149089,0.00106638,-0.00009986,-0.03352284,0.00
 088913,0.00048014,0.00000504,-0.00000444,-0.00000007,-0.00000292,0.000
 00154,0.00000138,0.00000425,0.00000884,0.00000557,0.00000680,-0.000000
 59,-0.00000244,0.00000051,-0.00000472,-0.00000053,-0.00004021,0.000012
 61,-0.00002094,-0.00000380,-0.00000901,-0.00000050,0.00000160,-0.00000
 435,-0.00000074,0.00006067,0.00047099,-0.00004250,0.00003131,0.0000323
 4,0.00001205,-0.00000450,0.00000014,0.00000172,-0.00006218,-0.00000698
 ,-0.00000268,-0.00000469,-0.00000519,-0.00000508,-0.00000077,0.0000018
 3,-0.00000070,0.00008005,0.00000768,0.00001288,0.00000370,0.00000439,0
 .00000019,-0.00234294,0.00088596,-0.00050331,-0.00011367,0.00003582,-0
 .00002770,-0.00000868,-0.00000184,-0.00000242,-0.00244451,-0.00119999,
 -0.00049691,0.00000826,0.00002255,0.00003120,0.00000169,-0.00000039,-0
 .00000002,0.00006495,-0.00042870,0.00002429,-0.00000040,0.00000801,-0.
 00000095,0.00000199,0.00000256,0.00000025,-0.00000009,0.00000076,0.000
 00007,-0.00000022,0.00000310,-0.00000029,0.00000007,0.00000311,-0.0000
 0008,-0.00000228,0.00000122,0.00000056,-0.00000158,-0.00000006,0.00000
 032,-0.00000169,0.00000105,-0.00000004,-0.00000325,-0.00000340,-0.0000
 0014,-0.00002757,0.00002013,-0.00000360,-0.00091048,-0.00011790,0.0000
 0286,0.05501523,-0.00001968,-0.00002138,0.00000270,-0.00004277,-0.0000
 3081,-0.00001020,-0.00014116,-0.00004995,0.00002614,0.01465000,-0.0246
 2550,0.00319140,-0.01496665,-0.02707465,0.00095826,0.00079309,-0.00016
 716,-0.00006882,0.00061006,-0.21965392,0.01206358,0.00004147,-0.000087
 10,-0.00000300,-0.00000504,-0.00002112,0.00000054,-0.00006723,0.000011
 62,-0.00002247,-0.00002032,0.00006918,0.00000742,-0.00002290,0.0000111
 7,0.00000693,-0.00006315,-0.00005861,0.00006017,-0.00001423,-0.0000037
 4,-0.00001680,0.00001487,0.00000886,-0.00000069,-0.00000386,-0.0002071
 0,0.00001650,0.00006049,0.00006822,0.00007162,0.00006624,0.00000834,-0
 .00000041,0.00012649,0.00037268,-0.00000100,-0.00004830,0.00001008,-0.
 00000895,-0.00000807,0.00002456,-0.00000124,0.00001553,-0.00007259,-0.
 00000055,-0.00006189,-0.00000613,0.00000947,0.00100669,-0.00032904,0.0
 0033526,0.00005030,0.00000622,-0.00000402,-0.00003544,0.00003055,-0.00
 002532,-0.00119318,-0.00020539,0.00021769,0.00005231,-0.00008272,-0.00
 003008,-0.00001416,0.00001688,-0.00000502,-0.00012171,-0.00025103,-0.0
 0004097,-0.00006657,-0.00004967,-0.00000688,-0.00002666,-0.00002697,-0
 .00000395,-0.00000501,-0.00003515,-0.00000511,0.00000250,-0.00002022,0
 .00000155,0.00000124,-0.00001888,-0.00000271,0.00001888,-0.00001047,-0
 .00000684,0.00002013,0.00001160,-0.00000293,0.00002429,0.00001459,0.00
 000262,0.00003048,0.00003179,-0.00000665,-0.00001523,0.00010780,-0.000
 01194,0.00011523,0.00046108,-0.00002372,-0.00026219,0.27140102,0.00002
 564,-0.00001460,-0.00000195,-0.00000584,0.00002171,-0.00001709,-0.0000
 5491,0.00007728,0.00001601,-0.00319463,0.00446590,0.00567731,-0.000749
 41,-0.00080175,0.00633067,0.00028756,0.00013211,-0.00091086,0.00179381
 ,0.01207082,-0.03861547,0.00001246,-0.00001256,-0.00001327,0.00000302,
 0.00000092,-0.00000416,0.00001468,0.00002905,-0.00000371,0.00000066,0.
 00000251,0.00000178,0.00000206,-0.00000036,-0.00000268,-0.00003738,-0.
 00001209,0.00000895,-0.00001996,0.00000861,0.00000726,-0.00000093,-0.0
 0000253,-0.00000342,-0.00000967,-0.00005766,-0.00013786,0.00002769,-0.
 00001112,-0.00001202,-0.00000088,-0.00000072,-0.00000427,0.00019062,0.
 00006087,0.00006577,-0.00003612,0.00003562,0.00002629,-0.00001358,-0.0
 0000343,-0.00000671,0.00005347,-0.00003508,0.00001849,0.00000431,0.000
 00188,0.00000189,-0.00061562,0.00014203,0.00325196,0.00000786,0.000043
 25,-0.00008363,0.00000500,0.00000743,0.00000698,-0.00043860,0.00060062
 ,0.00449581,0.00008178,-0.00005899,-0.00044624,0.00000177,-0.00002580,
 0.00001604,0.00004721,-0.00000032,-0.00038651,0.00000067,-0.00000019,0
 .00003241,0.00000229,0.00000116,0.00000659,0.00000002,0.00000250,0.000
 00250,-0.00000010,0.00000137,0.00000208,0.00000066,0.00000117,0.000002
 22,-0.00000119,0.00000063,0.00000236,-0.00000082,-0.00000143,0.0000027
 7,-0.00000123,-0.00000054,0.00000603,-0.00000235,-0.00000186,0.0000081
 8,0.00000395,-0.00000642,0.00003056,-0.00001937,-0.00000629,0.00030296
 ,0.00257162,-0.01652822,0.02136882,0.00000445,0.00002588,-0.00000522,0
 .00003015,0.00002047,0.00000141,-0.00006641,-0.00007858,0.00003711,-0.
 00169889,-0.00151241,-0.00038411,-0.17141529,0.07979494,-0.01396013,-0
 .00041253,0.00019851,-0.00002691,-0.04091224,0.00426944,-0.00375067,-0
 .00002371,0.00005820,0.00000257,0.00000652,0.00001533,-0.00000136,0.00
 003272,-0.00002734,0.00002064,0.00001615,-0.00005201,-0.00000738,0.000
 02148,-0.00001040,-0.00000651,0.00006127,0.00006570,-0.00005135,0.0000
 0599,-0.00000134,0.00001986,-0.00001329,-0.00001148,-0.00000043,-0.000
 05207,0.00003383,0.00001767,-0.00004068,-0.00008375,-0.00006342,-0.000
 06815,-0.00000710,0.00000264,0.00007617,-0.00027646,-0.00037206,0.0000
 0564,0.00000641,0.00001990,-0.00001604,-0.00002547,-0.00000499,-0.0000
 1608,-0.00000133,0.00000686,0.00005661,0.00001047,-0.00000814,0.000229
 03,-0.00017297,0.00003388,-0.00000260,0.00001057,0.00001002,0.00004443
 ,-0.00002331,0.00002454,-0.00258726,0.01220814,-0.00113427,0.00005924,
 -0.00002551,0.00003397,0.00002056,-0.00005050,0.00000533,0.00084641,-0
 .00019750,0.00015306,0.00009268,0.00005948,0.00000198,0.00003592,0.000
 02836,0.00000515,0.00000630,0.00003604,0.00000527,-0.00000134,0.000021
 40,-0.00000215,-0.00000069,0.00001875,0.00000253,-0.00001712,0.0000100
 7,0.00000621,-0.00001637,-0.00000873,0.00000232,-0.00001820,-0.0000089
 9,-0.00000186,-0.00002697,-0.00001933,0.00000488,-0.00000526,-0.000034
 89,0.00000388,0.00000122,-0.00004814,-0.00000659,-0.00033443,-0.000484
 20,0.00007448,0.21610780,-0.00001370,-0.00001577,0.00000291,-0.0000450
 0,0.00000331,-0.00000522,-0.00003497,-0.00003595,-0.00000216,-0.001295
 14,-0.00094831,0.00021904,0.07979507,-0.07978421,0.00806890,-0.0002963
 8,0.00015839,-0.00005505,-0.00978629,0.00687146,-0.00087081,0.00001839
 ,-0.00003883,-0.00000142,-0.00000012,-0.00001107,-0.00000022,-0.000030
 07,0.00001528,-0.00001645,-0.00001272,0.00003279,0.00000500,-0.0000103
 8,0.00000957,0.00000376,-0.00002512,-0.00005079,0.00004409,-0.00000140
 ,0.00000440,-0.00001150,0.00000397,0.00000873,0.00000125,0.00003384,-0
 .00001334,-0.00001113,0.00000732,0.00005109,0.00002252,0.00003268,0.00
 000561,-0.00000162,-0.00049410,-0.00272350,0.00024782,-0.00003720,-0.0
 0010790,-0.00003143,0.00001412,0.00000470,0.00000308,0.00000284,0.0000
 0269,-0.00000764,-0.00002876,-0.00000765,0.00000399,-0.00017288,0.0000
 3032,-0.00001940,0.00000637,-0.00001085,-0.00000213,-0.00002065,0.0000
 0359,-0.00000969,0.02626411,-0.03144039,0.00375209,0.00046918,-0.00031
 309,0.00005027,0.00001496,0.00001290,0.00000128,0.00019350,-0.00072596
 ,0.00000217,0.00000435,0.00000774,0.00000910,-0.00001126,-0.00000902,-
 0.00000137,-0.00000026,-0.00001740,-0.00000247,0.00000069,-0.00001107,
 0.00000099,0.00000027,-0.00001062,-0.00000115,0.00001006,-0.00000558,-
 0.00000359,0.00000975,0.00000505,-0.00000165,0.00001172,0.00000579,0.0
 0000134,0.00001693,0.00001586,-0.00000340,0.00000472,0.00003214,-0.000
 00387,0.00000700,0.00009919,-0.00000627,-0.00087515,0.00045445,-0.0001
 3684,-0.09374694,0.10844224,0.00000083,0.00000648,0.00001281,0.0000066
 5,0.,-0.00000923,0.00000351,-0.00005802,-0.00023466,-0.00044705,0.0003
 3567,0.00481617,-0.01383275,0.00799442,-0.04152028,-0.00005289,0.00000
 373,-0.00020471,-0.00304661,0.00024746,0.00541010,-0.00000582,0.000006
 97,-0.00000952,0.00000054,0.00000266,-0.00000230,0.00000471,-0.0000026
 7,0.00000123,0.00000202,-0.00000894,0.00000095,0.00000228,-0.00000133,
 -0.00000234,0.00000389,0.00000431,0.00002809,-0.00001063,0.00000616,0.
 00000586,-0.00000203,-0.00000181,-0.00000230,0.00002069,-0.00001290,-0
 .00043644,-0.00000170,-0.00000546,0.00002816,-0.00000895,0.00000155,-0
 .00000950,-0.00050373,0.00024375,0.00481675,0.00005179,0.00002543,-0.0
 0023479,-0.00000521,-0.00000388,0.00001284,0.00001354,0.00001602,0.000
 00079,0.00000876,0.00000270,0.00000093,0.00007674,-0.00004429,0.000039
 87,-0.00000719,-0.00001968,0.00000085,0.00000465,-0.00000271,0.0000012
 2,-0.00179635,0.00261032,0.00539640,-0.00003143,0.00004450,-0.00020500
 ,0.00000322,-0.00000575,-0.00000923,0.00015997,-0.00004013,-0.00104776
 ,-0.00000050,-0.00000266,0.00009523,0.00000465,0.00000261,0.00000724,0
 .00000004,0.00000390,0.00000424,-0.00000016,0.00000216,0.00000295,0.00
 000046,0.00000203,0.00000195,-0.00000184,0.00000107,0.00000210,-0.0000
 0153,-0.00000141,0.00000196,-0.00000196,-0.00000093,0.00000296,-0.0000
 0336,-0.00000198,0.00000425,0.00000006,-0.00000535,0.00000726,0.000002
 21,0.00000183,0.00009524,0.00011577,-0.00012241,-0.00104718,0.01928411
 ,-0.01122885,0.02417886,-0.00068863,-0.00092795,0.00002236,-0.00028813
 ,-0.00000173,0.00001582,-0.00039049,0.00040592,-0.00034190,0.00002562,
 0.00015592,-0.00004517,-0.00003855,-0.00009519,0.00000426,-0.00011564,
 0.00018119,0.00006908,0.00005050,0.00000302,0.00001481,-0.00083745,0.0
 0119223,0.00084717,-0.00161793,-0.00157678,0.00144271,-0.00131569,-0.0
 0713027,0.00312795,-0.01998566,-0.00149082,0.01024400,-0.00032766,0.00
 018627,0.00014729,-0.00120420,0.00133673,0.00108713,-0.05163446,0.0280
 9300,0.03466915,0.00067110,0.00120186,0.00108886,-0.00164694,0.0007252
 6,-0.00077647,-0.04130419,-0.02295989,-0.02844829,-0.00265519,-0.00081
 364,0.00071392,0.00006693,-0.00041148,-0.00003162,-0.00007018,0.001525
 25,-0.00148372,0.00023227,-0.00071414,-0.00201922,-0.00117615,0.007295
 29,-0.00335146,-0.00165104,0.01355984,0.00653178,0.00008558,-0.0000850
 0,0.00001844,-0.01969237,-0.00294132,-0.00794706,-0.00679118,-0.010553
 03,-0.00546952,-0.00010689,0.00017987,-0.00000382,-0.00070377,0.000211
 85,0.00007697,0.00031941,-0.00035637,0.00005453,-0.00001066,-0.0000119
 0,-0.00001517,-0.00006331,0.00004975,-0.00004822,0.00002619,0.00001564
 ,0.00019120,-0.00028324,-0.00011581,0.00006580,-0.00007779,0.00001994,
 0.00002992,-0.00016258,0.00006627,-0.00000429,-0.00003194,0.00001541,-
 0.00009783,-0.00024673,0.00021685,0.00004475,-0.00000465,0.00004781,0.
 00030369,0.00007118,-0.00014682,-0.00004224,0.00000211,0.00004562,0.00
 003477,-0.00002108,0.00002752,-0.00002328,0.00000138,0.00001456,-0.000
 01090,-0.00001447,0.00000991,-0.00000866,0.15358807,-0.00123676,-0.000
 69951,0.00234327,-0.00070332,0.00011248,-0.00005298,0.00134268,0.00104
 154,0.00150974,-0.00043424,-0.00007900,0.00001180,-0.00009519,-0.00014
 781,-0.00000206,0.00054805,-0.00047785,-0.00004866,0.00026992,-0.00000
 187,0.00001248,0.00022737,-0.00244068,-0.00032865,-0.00011140,0.000454
 34,-0.00043147,-0.00739880,-0.01689765,0.00814681,0.00304855,0.0052483
 8,-0.00170763,0.00018613,-0.00011453,-0.00008533,0.00010677,-0.0535295
 0,0.03351587,0.02812269,-0.01957705,-0.02015780,-0.00026705,-0.0018411
 5,-0.00102806,0.00072436,-0.00081049,0.00045075,-0.02174914,-0.0136595
 0,-0.01765285,0.00014741,-0.00062252,-0.00056943,0.00017967,-0.0001219
 4,0.00003330,0.00059086,0.00072105,-0.00045722,-0.00040177,-0.00163381
 ,-0.00117929,0.00769699,-0.01714395,0.00728546,0.00902091,-0.01311416,
 -0.00802714,-0.00008380,-0.00001275,-0.00001037,-0.00334294,0.00132458
 ,-0.00072336,-0.01029481,-0.01148454,-0.00672133,-0.00008754,0.0001555
 9,-0.00001939,-0.00015753,0.00011030,-0.00003611,0.00034884,-0.0004945
 8,0.00001385,0.00000770,0.00000295,0.00000382,0.00000326,0.00002345,-0
 .00000081,0.00005942,0.00003717,0.00006934,-0.00035068,-0.00007945,0.0
 0008652,0.00000529,0.00003322,-0.00033334,0.00026548,-0.00008463,-0.00
 005435,0.00001555,-0.00001389,0.00005636,0.00001838,-0.00000041,0.0000
 3067,0.00006182,-0.00003912,0.00013961,0.00008717,-0.00043358,-0.00009
 941,0.00000142,0.00006061,-0.00020070,0.00007394,-0.00001879,0.0000422
 6,-0.00000495,-0.00000911,0.00001130,0.00000994,-0.00000308,0.00000501
 ,-0.00643695,0.14625847,0.00075506,0.00163256,0.00019428,0.00087731,-0
 .00062799,0.00010167,-0.00086258,-0.00076009,0.00026715,0.00044624,0.0
 0028922,-0.00001938,0.00000681,-0.00000354,-0.00000091,-0.00055587,0.0
 0031919,-0.00011697,-0.00013903,0.00004041,-0.00000528,-0.00028386,-0.
 00009038,0.00005078,0.00114920,0.00107611,0.00082167,0.00098473,0.0101
 2580,-0.00235119,0.01064723,-0.00122264,-0.00516345,0.00007871,-0.0000
 4562,-0.00001977,0.00024819,0.04302340,-0.03685133,0.04934307,-0.02865
 630,-0.04228876,-0.00036037,-0.00152633,0.00082819,-0.00122442,0.00071
 014,0.00012080,-0.03711561,-0.02165462,-0.03661345,-0.00005850,0.00029
 469,0.00005049,-0.00002950,-0.00052994,-0.00001776,0.00022875,0.001122
 40,0.00026727,-0.00103903,-0.00146061,0.00020769,-0.00116678,0.0111069
 8,-0.00209972,0.00632552,-0.00862626,-0.00513547,0.00061096,-0.0003535
 0,0.00009475,-0.01017324,-0.00452092,-0.00205179,-0.00825356,-0.005846
 72,-0.00228851,-0.00010377,0.00009967,-0.00000533,-0.00055199,0.000322
 21,-0.00011700,0.00097981,-0.00044595,0.00010116,0.00001384,0.00000022
 ,0.00000346,-0.00003847,0.00005604,0.00003526,0.00002174,0.00001777,-0
 .00005716,-0.00029488,-0.00004476,-0.00014448,0.00003125,0.00003466,-0
 .00011103,0.00021738,-0.00008975,-0.00002147,-0.00003125,0.00001780,-0
 .00015020,0.00018637,-0.00014433,-0.00002153,-0.00001489,-0.00004466,-
 0.00011184,-0.00010857,0.00027918,-0.00014476,-0.00000470,-0.00002814,
 -0.00005653,-0.00006788,0.00000559,0.00003528,0.00000671,-0.00001210,0
 .00000347,0.00000763,-0.00000442,0.00000084,-0.01068534,0.00616407,0.1
 3277730||0.00001251,0.00001697,0.00000670,-0.00000175,-0.00000425,-0.0
 0000783,-0.00000455,-0.00000288,-0.00001997,0.00001112,0.00000671,-0.0
 0003342,0.00001478,0.00000666,0.00001422,-0.00000297,-0.00000069,0.000
 00953,-0.00001451,0.00000707,0.00000366,0.00001539,0.00004007,0.000012
 27,0.00002941,0.00002558,0.00002572,0.00001328,-0.00002540,-0.00001390
 ,-0.00003552,0.00000546,-0.00001099,0.00002103,-0.00001199,-0.00004148
 ,-0.00000325,-0.00007313,0.00006035,0.00006040,-0.00003495,-0.00004479
 ,-0.00000810,-0.00003809,0.00002558,-0.00000126,-0.00000095,-0.0000159
 8,0.00006308,0.00004052,0.00006156,-0.00002768,-0.00003321,0.00001198,
 0.00000126,-0.00002731,-0.00003525,0.00000480,0.00000842,-0.00002122,-
 0.00000907,-0.00002059,0.00000689,-0.00000179,-0.00001053,-0.00000587,
 -0.00002209,0.00002785,-0.00001058,0.00000612,-0.00000487,0.00006738,0
 .00000629,0.00000639,-0.00000536,0.00003003,0.00000185,-0.00001441,-0.
 00001100,-0.00000163,0.00000238,-0.00000486,0.00001253,0.00001279,0.00
 000313,0.00000161,-0.00000811,0.00000462,0.00000279,0.00000117,0.00000
 249,0.00000727,0.00000287,-0.00000607,-0.00000483,0.00000684,-0.000003
 27,0.00000671,-0.00000153,0.00000188,0.00001592,-0.00000280,-0.0000009
 9,-0.00000251,-0.00000253,0.00001116,-0.00000643,-0.00000034,0.0000016
 4,0.00000208,-0.00000271,-0.00001274,-0.00000949,-0.00000299,-0.000007
 16,-0.00000023,-0.00000164,0.00000096,0.00000720,0.00000671,-0.0000047
 6,-0.00000243,0.00000351,-0.00000036,-0.00000735,-0.00000016,-0.000002
 25,0.00000151,-0.00000825,-0.00012940,0.00007258,-0.00002999|||@


 IT PROBABLY IS NOT POSSIBLE FOR A SCIENTIST TO INTERROGATE NATURE 
 FROM A WHOLLY DISINTERESTED VIEWPOINT.
 EVEN IF HE HAS NO PARTICULAR AXE TO GRIND, HE IS LIKELY TO HAVE 
 A DISTINCTIVE WAY OF VIEWING NATURE.

                                                   -- JOHN LOSEE
 Job cpu time:       0 days  0 hours  0 minutes 17.0 seconds.
 File lengths (MBytes):  RWF=    715 Int=      0 D2E=      0 Chk=      5 Scr=      1
 Normal termination of Gaussian 09 at Sun Mar 15 20:45:34 2026.
