 Entering Link 1 = C:\Gaussian\G09W\l1.exe PID=     27216.
  
 Copyright (c) 1988,1990,1992,1993,1995,1998,2003,2009,2013,
            Gaussian, Inc.  All Rights Reserved.
  
 This is part of the Gaussian(R) 09 program.  It is based on
 the Gaussian(R) 03 system (copyright 2003, Gaussian, Inc.),
 the Gaussian(R) 98 system (copyright 1998, Gaussian, Inc.),
 the Gaussian(R) 94 system (copyright 1995, Gaussian, Inc.),
 the Gaussian 92(TM) system (copyright 1992, Gaussian, Inc.),
 the Gaussian 90(TM) system (copyright 1990, Gaussian, Inc.),
 the Gaussian 88(TM) system (copyright 1988, Gaussian, Inc.),
 the Gaussian 86(TM) system (copyright 1986, Carnegie Mellon
 University), and the Gaussian 82(TM) system (copyright 1983,
 Carnegie Mellon University). Gaussian is a federally registered
 trademark of Gaussian, Inc.
  
 This software contains proprietary and confidential information,
 including trade secrets, belonging to Gaussian, Inc.
  
 This software is provided under written license and may be
 used, copied, transmitted, or stored only in accord with that
 written license.
  
 The following legend is applicable only to US Government
 contracts under FAR:
  
                    RESTRICTED RIGHTS LEGEND
  
 Use, reproduction and disclosure by the US Government is
 subject to restrictions as set forth in subparagraphs (a)
 and (c) of the Commercial Computer Software - Restricted
 Rights clause in FAR 52.227-19.
  
 Gaussian, Inc.
 340 Quinnipiac St., Bldg. 40, Wallingford CT 06492
  
  
 ---------------------------------------------------------------
 Warning -- This program may not be used in any manner that
 competes with the business of Gaussian, Inc. or will provide
 assistance to any competitor of Gaussian, Inc.  The licensee
 of this program is prohibited from giving any competitor of
 Gaussian, Inc. access to this program.  By using this program,
 the user acknowledges that Gaussian, Inc. is engaged in the
 business of creating and licensing software in the field of
 computational chemistry and represents and warrants to the
 licensee that it is not a competitor of Gaussian, Inc. and that
 it will not use this program in any manner prohibited above.
 ---------------------------------------------------------------
  

 Cite this work as:
 Gaussian 09, Revision D.01,
 M. J. Frisch, G. W. Trucks, H. B. Schlegel, G. E. Scuseria, 
 M. A. Robb, J. R. Cheeseman, G. Scalmani, V. Barone, B. Mennucci, 
 G. A. Petersson, H. Nakatsuji, M. Caricato, X. Li, H. P. Hratchian, 
 A. F. Izmaylov, J. Bloino, G. Zheng, J. L. Sonnenberg, M. Hada, 
 M. Ehara, K. Toyota, R. Fukuda, J. Hasegawa, M. Ishida, T. Nakajima, 
 Y. Honda, O. Kitao, H. Nakai, T. Vreven, J. A. Montgomery, Jr., 
 J. E. Peralta, F. Ogliaro, M. Bearpark, J. J. Heyd, E. Brothers, 
 K. N. Kudin, V. N. Staroverov, T. Keith, R. Kobayashi, J. Normand, 
 K. Raghavachari, A. Rendell, J. C. Burant, S. S. Iyengar, J. Tomasi, 
 M. Cossi, N. Rega, J. M. Millam, M. Klene, J. E. Knox, J. B. Cross, 
 V. Bakken, C. Adamo, J. Jaramillo, R. Gomperts, R. E. Stratmann, 
 O. Yazyev, A. J. Austin, R. Cammi, C. Pomelli, J. W. Ochterski, 
 R. L. Martin, K. Morokuma, V. G. Zakrzewski, G. A. Voth, 
 P. Salvador, J. J. Dannenberg, S. Dapprich, A. D. Daniels, 
 O. Farkas, J. B. Foresman, J. V. Ortiz, J. Cioslowski, 
 and D. J. Fox, Gaussian, Inc., Wallingford CT, 2013.
 
 ******************************************
 Gaussian 09:  IA32W-G09RevD.01 24-Apr-2013
                15-Mar-2026 
 ******************************************
 %chk=C:\Users\User\Desktop\IMRG\ECE+ML\Cu_Gr_NS_CO.chk
 ----------------------------------------------------
 # opt freq pm6 guess=huckel scf=qc geom=connectivity
 ----------------------------------------------------
 1/14=-1,18=20,19=15,26=1,38=1,57=2/1,3;
 2/9=110,12=2,17=6,18=5,40=1/2;
 3/5=2,16=1,25=1,41=3900000,71=1/1,2,3;
 4/11=4,35=1/1;
 5/5=2,8=3,35=1,38=5/8;
 6/7=2,8=2,9=2,10=2,28=1/1;
 7//1,2,3,16;
 1/14=-1,18=20,19=15,26=1/3(2);
 2/9=110/2;
 99//99;
 2/9=110/2;
 3/5=2,16=1,25=1,41=3900000,71=1,135=20/1,2,3;
 4/5=5,11=4,16=3,35=1/1;
 5/5=2,8=3,35=1,38=5/8;
 7//1,2,3,16;
 1/14=-1,18=20,19=15,26=1/3(-5);
 2/9=110/2;
 6/7=2,8=2,9=2,10=2,19=2,28=1/1;
 99/9=1/99;
 -----------
 Cu_Gr_NS_CO
 -----------
 Symbolic Z-matrix:
 Charge =  0 Multiplicity = 2
 C                     0.17695   1.02371   2.99497 
 C                     1.43495   0.29741   2.57781 
 C                     2.69295   1.02371   2.99497 
 C                     5.20895   1.02371   2.99497 
 C                     7.72495   1.02371   2.99497 
 C                     3.95095   0.29741   2.57781 
 C                     6.46695   0.29741   2.57781 
 C                    -1.08105   3.20263   2.99497 
 C                    -2.33905   5.38155   2.99497 
 C                     0.17695   2.47633   2.57781 
 C                    -1.08105   4.65525   2.57781 
 C                    -2.33905   6.83417   2.57781 
 C                     1.43495   3.20263   2.99497 
 C                     0.17695   5.38155   2.99497 
 C                    -1.08105   7.56047   2.99497 
 C                     3.95095   3.20263   2.99497 
 C                     2.69295   5.38155   2.99497 
 C                     1.43495   7.56047   2.99497 
 C                     6.46695   3.20263   2.99497 
 C                     5.20895   5.38155   2.99497 
 C                     3.95095   7.56047   2.99497 
 C                     2.69295   2.47633   2.57781 
 C                     0.17695   6.83417   2.57781 
 C                     5.20895   2.47633   2.57781 
 C                     3.95095   4.65525   2.57781 
 C                     2.69295   6.83417   2.57781 
 C                     7.72495   2.47633   2.57781 
 C                     6.46695   4.65525   2.57781 
 C                     5.20895   6.83417   2.57781 
 H                     8.6156    2.99054   2.87315 
 H                     7.3576    5.16946   2.87315 
 H                     6.0996    7.34838   2.87315 
 H                     3.95095   8.58891   2.69962 
 H                     1.43495   8.58891   2.69962 
 H                    -1.08105   8.58891   2.69962 
 H                    -3.2297    7.34838   2.87315 
 H                    -3.2297    4.86734   2.69962 
 H                    -1.9717    2.68842   2.69962 
 H                    -0.7137    0.5095    2.69962 
 H                     1.43495  -0.73103   2.87315 
 H                     3.95095  -0.73103   2.87315 
 H                     6.49522  -0.60455   3.15277 
 H                     8.37341   0.35071   3.51599 
 Cu                    1.43495   4.65525   2.57781 
 C                     2.78615   4.02244   3.03729 
 O                     2.78615   4.02244   4.17692 
 
 Add virtual bond connecting atoms C45        and C16        Dist= 2.69D+00.
 Add virtual bond connecting atoms C45        and C17        Dist= 2.58D+00.
 Add virtual bond connecting atoms C45        and C25        Dist= 2.65D+00.

 GradGradGradGradGradGradGradGradGradGradGradGradGradGradGradGradGradGrad
 Berny optimization.
 Initialization pass.
                           ----------------------------
                           !    Initial Parameters    !
                           ! (Angstroms and Degrees)  !
 --------------------------                            --------------------------
 ! Name  Definition              Value          Derivative Info.                !
 --------------------------------------------------------------------------------
 ! R1    R(1,2)                  1.5113         estimate D2E/DX2                !
 ! R2    R(1,10)                 1.5113         estimate D2E/DX2                !
 ! R3    R(1,39)                 1.07           estimate D2E/DX2                !
 ! R4    R(2,3)                  1.5113         estimate D2E/DX2                !
 ! R5    R(2,40)                 1.07           estimate D2E/DX2                !
 ! R6    R(3,6)                  1.5113         estimate D2E/DX2                !
 ! R7    R(3,22)                 1.5113         estimate D2E/DX2                !
 ! R8    R(4,6)                  1.5113         estimate D2E/DX2                !
 ! R9    R(4,7)                  1.5113         estimate D2E/DX2                !
 ! R10   R(4,24)                 1.5113         estimate D2E/DX2                !
 ! R11   R(5,7)                  1.5113         estimate D2E/DX2                !
 ! R12   R(5,27)                 1.5113         estimate D2E/DX2                !
 ! R13   R(5,43)                 1.07           estimate D2E/DX2                !
 ! R14   R(6,41)                 1.07           estimate D2E/DX2                !
 ! R15   R(7,42)                 1.07           estimate D2E/DX2                !
 ! R16   R(8,10)                 1.5113         estimate D2E/DX2                !
 ! R17   R(8,11)                 1.5113         estimate D2E/DX2                !
 ! R18   R(8,38)                 1.07           estimate D2E/DX2                !
 ! R19   R(9,11)                 1.5113         estimate D2E/DX2                !
 ! R20   R(9,12)                 1.5113         estimate D2E/DX2                !
 ! R21   R(9,37)                 1.07           estimate D2E/DX2                !
 ! R22   R(10,13)                1.5113         estimate D2E/DX2                !
 ! R23   R(11,14)                1.5113         estimate D2E/DX2                !
 ! R24   R(12,15)                1.5113         estimate D2E/DX2                !
 ! R25   R(12,36)                1.07           estimate D2E/DX2                !
 ! R26   R(13,22)                1.5113         estimate D2E/DX2                !
 ! R27   R(13,44)                1.5113         estimate D2E/DX2                !
 ! R28   R(14,23)                1.5113         estimate D2E/DX2                !
 ! R29   R(14,44)                1.5113         estimate D2E/DX2                !
 ! R30   R(15,23)                1.5113         estimate D2E/DX2                !
 ! R31   R(15,35)                1.07           estimate D2E/DX2                !
 ! R32   R(16,22)                1.5113         estimate D2E/DX2                !
 ! R33   R(16,24)                1.5113         estimate D2E/DX2                !
 ! R34   R(16,25)                1.5113         estimate D2E/DX2                !
 ! R35   R(16,45)                1.425          estimate D2E/DX2                !
 ! R36   R(17,25)                1.5113         estimate D2E/DX2                !
 ! R37   R(17,26)                1.5113         estimate D2E/DX2                !
 ! R38   R(17,44)                1.5113         estimate D2E/DX2                !
 ! R39   R(17,45)                1.363          estimate D2E/DX2                !
 ! R40   R(18,23)                1.5113         estimate D2E/DX2                !
 ! R41   R(18,26)                1.5113         estimate D2E/DX2                !
 ! R42   R(18,34)                1.07           estimate D2E/DX2                !
 ! R43   R(19,24)                1.5113         estimate D2E/DX2                !
 ! R44   R(19,27)                1.5113         estimate D2E/DX2                !
 ! R45   R(19,28)                1.5113         estimate D2E/DX2                !
 ! R46   R(20,25)                1.5113         estimate D2E/DX2                !
 ! R47   R(20,28)                1.5113         estimate D2E/DX2                !
 ! R48   R(20,29)                1.5113         estimate D2E/DX2                !
 ! R49   R(21,26)                1.5113         estimate D2E/DX2                !
 ! R50   R(21,29)                1.5113         estimate D2E/DX2                !
 ! R51   R(21,33)                1.07           estimate D2E/DX2                !
 ! R52   R(25,45)                1.403          estimate D2E/DX2                !
 ! R53   R(27,30)                1.07           estimate D2E/DX2                !
 ! R54   R(28,31)                1.07           estimate D2E/DX2                !
 ! R55   R(29,32)                1.07           estimate D2E/DX2                !
 ! R56   R(45,46)                1.1396         estimate D2E/DX2                !
 ! A1    A(2,1,10)             112.6884         estimate D2E/DX2                !
 ! A2    A(2,1,39)             112.6884         estimate D2E/DX2                !
 ! A3    A(10,1,39)            112.6884         estimate D2E/DX2                !
 ! A4    A(1,2,3)              112.6884         estimate D2E/DX2                !
 ! A5    A(1,2,40)             112.6884         estimate D2E/DX2                !
 ! A6    A(3,2,40)             112.6884         estimate D2E/DX2                !
 ! A7    A(2,3,6)              112.6884         estimate D2E/DX2                !
 ! A8    A(2,3,22)             112.6884         estimate D2E/DX2                !
 ! A9    A(6,3,22)             112.6884         estimate D2E/DX2                !
 ! A10   A(6,4,7)              112.6884         estimate D2E/DX2                !
 ! A11   A(6,4,24)             112.6884         estimate D2E/DX2                !
 ! A12   A(7,4,24)             112.6884         estimate D2E/DX2                !
 ! A13   A(7,5,27)             112.6884         estimate D2E/DX2                !
 ! A14   A(7,5,43)             109.6693         estimate D2E/DX2                !
 ! A15   A(27,5,43)            137.6415         estimate D2E/DX2                !
 ! A16   A(3,6,4)              112.6884         estimate D2E/DX2                !
 ! A17   A(3,6,41)             112.6884         estimate D2E/DX2                !
 ! A18   A(4,6,41)             112.6884         estimate D2E/DX2                !
 ! A19   A(4,7,5)              112.6884         estimate D2E/DX2                !
 ! A20   A(4,7,42)             106.187          estimate D2E/DX2                !
 ! A21   A(5,7,42)             103.5792         estimate D2E/DX2                !
 ! A22   A(10,8,11)            112.6884         estimate D2E/DX2                !
 ! A23   A(10,8,38)            112.6884         estimate D2E/DX2                !
 ! A24   A(11,8,38)            112.6884         estimate D2E/DX2                !
 ! A25   A(11,9,12)            112.6884         estimate D2E/DX2                !
 ! A26   A(11,9,37)            112.6884         estimate D2E/DX2                !
 ! A27   A(12,9,37)            112.6884         estimate D2E/DX2                !
 ! A28   A(1,10,8)             112.6884         estimate D2E/DX2                !
 ! A29   A(1,10,13)            112.6884         estimate D2E/DX2                !
 ! A30   A(8,10,13)            112.6884         estimate D2E/DX2                !
 ! A31   A(8,11,9)             112.6884         estimate D2E/DX2                !
 ! A32   A(8,11,14)            112.6884         estimate D2E/DX2                !
 ! A33   A(9,11,14)            112.6884         estimate D2E/DX2                !
 ! A34   A(9,12,15)            112.6884         estimate D2E/DX2                !
 ! A35   A(9,12,36)            112.6884         estimate D2E/DX2                !
 ! A36   A(15,12,36)           112.6884         estimate D2E/DX2                !
 ! A37   A(10,13,22)           112.6884         estimate D2E/DX2                !
 ! A38   A(10,13,44)           112.6884         estimate D2E/DX2                !
 ! A39   A(22,13,44)           112.6884         estimate D2E/DX2                !
 ! A40   A(11,14,23)           112.6884         estimate D2E/DX2                !
 ! A41   A(11,14,44)           112.6884         estimate D2E/DX2                !
 ! A42   A(23,14,44)           112.6884         estimate D2E/DX2                !
 ! A43   A(12,15,23)           112.6884         estimate D2E/DX2                !
 ! A44   A(12,15,35)           112.6884         estimate D2E/DX2                !
 ! A45   A(23,15,35)           112.6884         estimate D2E/DX2                !
 ! A46   A(22,16,24)           112.6884         estimate D2E/DX2                !
 ! A47   A(22,16,25)           112.6884         estimate D2E/DX2                !
 ! A48   A(22,16,45)            66.6895         estimate D2E/DX2                !
 ! A49   A(24,16,25)           112.6884         estimate D2E/DX2                !
 ! A50   A(24,16,45)           164.8105         estimate D2E/DX2                !
 ! A51   A(25,17,26)           112.6884         estimate D2E/DX2                !
 ! A52   A(25,17,44)           112.6884         estimate D2E/DX2                !
 ! A53   A(26,17,44)           112.6884         estimate D2E/DX2                !
 ! A54   A(44,17,45)            65.5608         estimate D2E/DX2                !
 ! A55   A(23,18,26)           112.6884         estimate D2E/DX2                !
 ! A56   A(23,18,34)           112.6884         estimate D2E/DX2                !
 ! A57   A(26,18,34)           112.6884         estimate D2E/DX2                !
 ! A58   A(24,19,27)           112.6884         estimate D2E/DX2                !
 ! A59   A(24,19,28)           112.6884         estimate D2E/DX2                !
 ! A60   A(27,19,28)           112.6884         estimate D2E/DX2                !
 ! A61   A(25,20,28)           112.6884         estimate D2E/DX2                !
 ! A62   A(25,20,29)           112.6884         estimate D2E/DX2                !
 ! A63   A(28,20,29)           112.6884         estimate D2E/DX2                !
 ! A64   A(26,21,29)           112.6884         estimate D2E/DX2                !
 ! A65   A(26,21,33)           112.6884         estimate D2E/DX2                !
 ! A66   A(29,21,33)           112.6884         estimate D2E/DX2                !
 ! A67   A(3,22,13)            112.6884         estimate D2E/DX2                !
 ! A68   A(3,22,16)            112.6884         estimate D2E/DX2                !
 ! A69   A(13,22,16)           112.6884         estimate D2E/DX2                !
 ! A70   A(14,23,15)           112.6884         estimate D2E/DX2                !
 ! A71   A(14,23,18)           112.6884         estimate D2E/DX2                !
 ! A72   A(15,23,18)           112.6884         estimate D2E/DX2                !
 ! A73   A(4,24,16)            112.6884         estimate D2E/DX2                !
 ! A74   A(4,24,19)            112.6884         estimate D2E/DX2                !
 ! A75   A(16,24,19)           112.6884         estimate D2E/DX2                !
 ! A76   A(16,25,17)           112.6884         estimate D2E/DX2                !
 ! A77   A(16,25,20)           112.6884         estimate D2E/DX2                !
 ! A78   A(17,25,20)           112.6884         estimate D2E/DX2                !
 ! A79   A(20,25,45)           144.8293         estimate D2E/DX2                !
 ! A80   A(17,26,18)           112.6884         estimate D2E/DX2                !
 ! A81   A(17,26,21)           112.6884         estimate D2E/DX2                !
 ! A82   A(18,26,21)           112.6884         estimate D2E/DX2                !
 ! A83   A(5,27,19)            112.6884         estimate D2E/DX2                !
 ! A84   A(5,27,30)            112.6884         estimate D2E/DX2                !
 ! A85   A(19,27,30)           112.6884         estimate D2E/DX2                !
 ! A86   A(19,28,20)           112.6884         estimate D2E/DX2                !
 ! A87   A(19,28,31)           112.6884         estimate D2E/DX2                !
 ! A88   A(20,28,31)           112.6884         estimate D2E/DX2                !
 ! A89   A(20,29,21)           112.6884         estimate D2E/DX2                !
 ! A90   A(20,29,32)           112.6884         estimate D2E/DX2                !
 ! A91   A(21,29,32)           112.6884         estimate D2E/DX2                !
 ! A92   A(13,44,14)           112.6884         estimate D2E/DX2                !
 ! A93   A(13,44,17)           112.6884         estimate D2E/DX2                !
 ! A94   A(14,44,17)           112.6884         estimate D2E/DX2                !
 ! A95   A(16,45,17)           128.9508         estimate D2E/DX2                !
 ! A96   A(16,45,46)            91.702          estimate D2E/DX2                !
 ! A97   A(17,45,46)            91.7795         estimate D2E/DX2                !
 ! A98   A(25,45,46)           109.1175         estimate D2E/DX2                !
 ! A99   L(26,17,45,44,-1)     178.2492         estimate D2E/DX2                !
 ! A100  L(26,17,45,44,-2)     164.0034         estimate D2E/DX2                !
 ! D1    D(10,1,2,3)            51.1032         estimate D2E/DX2                !
 ! D2    D(10,1,2,40)          180.0            estimate D2E/DX2                !
 ! D3    D(39,1,2,3)           180.0            estimate D2E/DX2                !
 ! D4    D(39,1,2,40)          -51.1032         estimate D2E/DX2                !
 ! D5    D(2,1,10,8)           180.0            estimate D2E/DX2                !
 ! D6    D(2,1,10,13)          -51.1032         estimate D2E/DX2                !
 ! D7    D(39,1,10,8)           51.1032         estimate D2E/DX2                !
 ! D8    D(39,1,10,13)         180.0            estimate D2E/DX2                !
 ! D9    D(1,2,3,6)            180.0            estimate D2E/DX2                !
 ! D10   D(1,2,3,22)           -51.1032         estimate D2E/DX2                !
 ! D11   D(40,2,3,6)            51.1032         estimate D2E/DX2                !
 ! D12   D(40,2,3,22)         -180.0            estimate D2E/DX2                !
 ! D13   D(2,3,6,4)            180.0            estimate D2E/DX2                !
 ! D14   D(2,3,6,41)           -51.1032         estimate D2E/DX2                !
 ! D15   D(22,3,6,4)            51.1032         estimate D2E/DX2                !
 ! D16   D(22,3,6,41)          180.0            estimate D2E/DX2                !
 ! D17   D(2,3,22,13)           51.1032         estimate D2E/DX2                !
 ! D18   D(2,3,22,16)          180.0            estimate D2E/DX2                !
 ! D19   D(6,3,22,13)          180.0            estimate D2E/DX2                !
 ! D20   D(6,3,22,16)          -51.1032         estimate D2E/DX2                !
 ! D21   D(7,4,6,3)            180.0            estimate D2E/DX2                !
 ! D22   D(7,4,6,41)            51.1032         estimate D2E/DX2                !
 ! D23   D(24,4,6,3)           -51.1032         estimate D2E/DX2                !
 ! D24   D(24,4,6,41)          180.0            estimate D2E/DX2                !
 ! D25   D(6,4,7,5)            180.0            estimate D2E/DX2                !
 ! D26   D(6,4,7,42)           -67.2727         estimate D2E/DX2                !
 ! D27   D(24,4,7,5)            51.1032         estimate D2E/DX2                !
 ! D28   D(24,4,7,42)          163.8304         estimate D2E/DX2                !
 ! D29   D(6,4,24,16)           51.1032         estimate D2E/DX2                !
 ! D30   D(6,4,24,19)          180.0            estimate D2E/DX2                !
 ! D31   D(7,4,24,16)          180.0            estimate D2E/DX2                !
 ! D32   D(7,4,24,19)          -51.1032         estimate D2E/DX2                !
 ! D33   D(27,5,7,4)           -51.1032         estimate D2E/DX2                !
 ! D34   D(27,5,7,42)         -165.4227         estimate D2E/DX2                !
 ! D35   D(43,5,7,4)           128.6399         estimate D2E/DX2                !
 ! D36   D(43,5,7,42)           14.3203         estimate D2E/DX2                !
 ! D37   D(7,5,27,19)           51.1032         estimate D2E/DX2                !
 ! D38   D(7,5,27,30)          180.0            estimate D2E/DX2                !
 ! D39   D(43,5,27,19)        -128.5377         estimate D2E/DX2                !
 ! D40   D(43,5,27,30)           0.3591         estimate D2E/DX2                !
 ! D41   D(11,8,10,1)          180.0            estimate D2E/DX2                !
 ! D42   D(11,8,10,13)          51.1032         estimate D2E/DX2                !
 ! D43   D(38,8,10,1)          -51.1032         estimate D2E/DX2                !
 ! D44   D(38,8,10,13)        -180.0            estimate D2E/DX2                !
 ! D45   D(10,8,11,9)          180.0            estimate D2E/DX2                !
 ! D46   D(10,8,11,14)         -51.1032         estimate D2E/DX2                !
 ! D47   D(38,8,11,9)           51.1032         estimate D2E/DX2                !
 ! D48   D(38,8,11,14)         180.0            estimate D2E/DX2                !
 ! D49   D(12,9,11,8)         -180.0            estimate D2E/DX2                !
 ! D50   D(12,9,11,14)          51.1032         estimate D2E/DX2                !
 ! D51   D(37,9,11,8)          -51.1032         estimate D2E/DX2                !
 ! D52   D(37,9,11,14)         180.0            estimate D2E/DX2                !
 ! D53   D(11,9,12,15)         -51.1032         estimate D2E/DX2                !
 ! D54   D(11,9,12,36)        -180.0            estimate D2E/DX2                !
 ! D55   D(37,9,12,15)         180.0            estimate D2E/DX2                !
 ! D56   D(37,9,12,36)          51.1032         estimate D2E/DX2                !
 ! D57   D(1,10,13,22)          51.1032         estimate D2E/DX2                !
 ! D58   D(1,10,13,44)         180.0            estimate D2E/DX2                !
 ! D59   D(8,10,13,22)         180.0            estimate D2E/DX2                !
 ! D60   D(8,10,13,44)         -51.1032         estimate D2E/DX2                !
 ! D61   D(8,11,14,23)         180.0            estimate D2E/DX2                !
 ! D62   D(8,11,14,44)          51.1032         estimate D2E/DX2                !
 ! D63   D(9,11,14,23)         -51.1032         estimate D2E/DX2                !
 ! D64   D(9,11,14,44)         180.0            estimate D2E/DX2                !
 ! D65   D(9,12,15,23)          51.1032         estimate D2E/DX2                !
 ! D66   D(9,12,15,35)         180.0            estimate D2E/DX2                !
 ! D67   D(36,12,15,23)        180.0            estimate D2E/DX2                !
 ! D68   D(36,12,15,35)        -51.1032         estimate D2E/DX2                !
 ! D69   D(10,13,22,3)         -51.1032         estimate D2E/DX2                !
 ! D70   D(10,13,22,16)        180.0            estimate D2E/DX2                !
 ! D71   D(44,13,22,3)         180.0            estimate D2E/DX2                !
 ! D72   D(44,13,22,16)         51.1032         estimate D2E/DX2                !
 ! D73   D(10,13,44,14)         51.1032         estimate D2E/DX2                !
 ! D74   D(10,13,44,17)        180.0            estimate D2E/DX2                !
 ! D75   D(22,13,44,14)       -180.0            estimate D2E/DX2                !
 ! D76   D(22,13,44,17)        -51.1032         estimate D2E/DX2                !
 ! D77   D(11,14,23,15)         51.1032         estimate D2E/DX2                !
 ! D78   D(11,14,23,18)        180.0            estimate D2E/DX2                !
 ! D79   D(44,14,23,15)        180.0            estimate D2E/DX2                !
 ! D80   D(44,14,23,18)        -51.1032         estimate D2E/DX2                !
 ! D81   D(11,14,44,13)        -51.1032         estimate D2E/DX2                !
 ! D82   D(11,14,44,17)        180.0            estimate D2E/DX2                !
 ! D83   D(23,14,44,13)       -180.0            estimate D2E/DX2                !
 ! D84   D(23,14,44,17)         51.1032         estimate D2E/DX2                !
 ! D85   D(12,15,23,14)        -51.1032         estimate D2E/DX2                !
 ! D86   D(12,15,23,18)        180.0            estimate D2E/DX2                !
 ! D87   D(35,15,23,14)        180.0            estimate D2E/DX2                !
 ! D88   D(35,15,23,18)         51.1032         estimate D2E/DX2                !
 ! D89   D(24,16,22,3)          51.1032         estimate D2E/DX2                !
 ! D90   D(24,16,22,13)        180.0            estimate D2E/DX2                !
 ! D91   D(25,16,22,3)         180.0            estimate D2E/DX2                !
 ! D92   D(25,16,22,13)        -51.1032         estimate D2E/DX2                !
 ! D93   D(45,16,22,3)        -145.3931         estimate D2E/DX2                !
 ! D94   D(45,16,22,13)        -16.4962         estimate D2E/DX2                !
 ! D95   D(22,16,24,4)         -51.1032         estimate D2E/DX2                !
 ! D96   D(22,16,24,19)        180.0            estimate D2E/DX2                !
 ! D97   D(25,16,24,4)         180.0            estimate D2E/DX2                !
 ! D98   D(25,16,24,19)         51.1032         estimate D2E/DX2                !
 ! D99   D(45,16,24,4)        -135.5315         estimate D2E/DX2                !
 ! D100  D(45,16,24,19)         95.5716         estimate D2E/DX2                !
 ! D101  D(22,16,25,17)         51.1032         estimate D2E/DX2                !
 ! D102  D(22,16,25,20)        180.0            estimate D2E/DX2                !
 ! D103  D(24,16,25,17)        180.0            estimate D2E/DX2                !
 ! D104  D(24,16,25,20)        -51.1032         estimate D2E/DX2                !
 ! D105  D(22,16,45,17)       -158.0627         estimate D2E/DX2                !
 ! D106  D(22,16,45,46)        108.2697         estimate D2E/DX2                !
 ! D107  D(24,16,45,17)        -67.1508         estimate D2E/DX2                !
 ! D108  D(24,16,45,46)       -160.8185         estimate D2E/DX2                !
 ! D109  D(26,17,25,16)       -180.0            estimate D2E/DX2                !
 ! D110  D(26,17,25,20)         51.1032         estimate D2E/DX2                !
 ! D111  D(44,17,25,16)        -51.1032         estimate D2E/DX2                !
 ! D112  D(44,17,25,20)        180.0            estimate D2E/DX2                !
 ! D113  D(25,17,26,18)        180.0            estimate D2E/DX2                !
 ! D114  D(25,17,26,21)        -51.1032         estimate D2E/DX2                !
 ! D115  D(44,17,26,18)         51.1032         estimate D2E/DX2                !
 ! D116  D(44,17,26,21)        180.0            estimate D2E/DX2                !
 ! D117  D(18,26,45,16)       -165.5304         estimate D2E/DX2                !
 ! D118  D(18,26,45,46)        -66.5313         estimate D2E/DX2                !
 ! D119  D(21,26,45,16)        -31.1636         estimate D2E/DX2                !
 ! D120  D(21,26,45,46)         67.8355         estimate D2E/DX2                !
 ! D121  D(25,17,44,13)         51.1032         estimate D2E/DX2                !
 ! D122  D(25,17,44,14)        180.0            estimate D2E/DX2                !
 ! D123  D(26,17,44,13)        180.0            estimate D2E/DX2                !
 ! D124  D(26,17,44,14)        -51.1032         estimate D2E/DX2                !
 ! D125  D(45,17,44,13)         15.9966         estimate D2E/DX2                !
 ! D126  D(45,17,44,14)        144.8934         estimate D2E/DX2                !
 ! D127  D(44,17,45,16)        157.8605         estimate D2E/DX2                !
 ! D128  D(44,17,45,46)       -108.5088         estimate D2E/DX2                !
 ! D129  D(26,18,23,14)         51.1032         estimate D2E/DX2                !
 ! D130  D(26,18,23,15)        180.0            estimate D2E/DX2                !
 ! D131  D(34,18,23,14)        180.0            estimate D2E/DX2                !
 ! D132  D(34,18,23,15)        -51.1032         estimate D2E/DX2                !
 ! D133  D(23,18,26,17)        -51.1032         estimate D2E/DX2                !
 ! D134  D(23,18,26,21)        180.0            estimate D2E/DX2                !
 ! D135  D(34,18,26,17)        180.0            estimate D2E/DX2                !
 ! D136  D(34,18,26,21)         51.1032         estimate D2E/DX2                !
 ! D137  D(27,19,24,4)          51.1032         estimate D2E/DX2                !
 ! D138  D(27,19,24,16)        180.0            estimate D2E/DX2                !
 ! D139  D(28,19,24,4)         180.0            estimate D2E/DX2                !
 ! D140  D(28,19,24,16)        -51.1032         estimate D2E/DX2                !
 ! D141  D(24,19,27,5)         -51.1032         estimate D2E/DX2                !
 ! D142  D(24,19,27,30)        180.0            estimate D2E/DX2                !
 ! D143  D(28,19,27,5)         180.0            estimate D2E/DX2                !
 ! D144  D(28,19,27,30)         51.1032         estimate D2E/DX2                !
 ! D145  D(24,19,28,20)         51.1032         estimate D2E/DX2                !
 ! D146  D(24,19,28,31)        180.0            estimate D2E/DX2                !
 ! D147  D(27,19,28,20)        180.0            estimate D2E/DX2                !
 ! D148  D(27,19,28,31)        -51.1032         estimate D2E/DX2                !
 ! D149  D(28,20,25,16)         51.1032         estimate D2E/DX2                !
 ! D150  D(28,20,25,17)        180.0            estimate D2E/DX2                !
 ! D151  D(28,20,25,45)        117.9894         estimate D2E/DX2                !
 ! D152  D(29,20,25,16)        180.0            estimate D2E/DX2                !
 ! D153  D(29,20,25,17)        -51.1032         estimate D2E/DX2                !
 ! D154  D(29,20,25,45)       -113.1138         estimate D2E/DX2                !
 ! D155  D(25,20,28,19)        -51.1032         estimate D2E/DX2                !
 ! D156  D(25,20,28,31)        180.0            estimate D2E/DX2                !
 ! D157  D(29,20,28,19)       -180.0            estimate D2E/DX2                !
 ! D158  D(29,20,28,31)         51.1032         estimate D2E/DX2                !
 ! D159  D(25,20,29,21)         51.1032         estimate D2E/DX2                !
 ! D160  D(25,20,29,32)        180.0            estimate D2E/DX2                !
 ! D161  D(28,20,29,21)        180.0            estimate D2E/DX2                !
 ! D162  D(28,20,29,32)        -51.1032         estimate D2E/DX2                !
 ! D163  D(29,21,26,17)         51.1032         estimate D2E/DX2                !
 ! D164  D(29,21,26,18)       -180.0            estimate D2E/DX2                !
 ! D165  D(33,21,26,17)        180.0            estimate D2E/DX2                !
 ! D166  D(33,21,26,18)        -51.1032         estimate D2E/DX2                !
 ! D167  D(26,21,29,20)        -51.1032         estimate D2E/DX2                !
 ! D168  D(26,21,29,32)        180.0            estimate D2E/DX2                !
 ! D169  D(33,21,29,20)        180.0            estimate D2E/DX2                !
 ! D170  D(33,21,29,32)         51.1032         estimate D2E/DX2                !
 ! D171  D(20,25,45,46)         -2.4799         estimate D2E/DX2                !
 --------------------------------------------------------------------------------
 Trust Radius=3.00D-01 FncErr=1.00D-07 GrdErr=1.00D-07
 Number of steps in this run=    276 maximum allowed number of steps=    276.
 GradGradGradGradGradGradGradGradGradGradGradGradGradGradGradGradGradGrad

                          Input orientation:                          
 ---------------------------------------------------------------------
 Center     Atomic      Atomic             Coordinates (Angstroms)
 Number     Number       Type             X           Y           Z
 ---------------------------------------------------------------------
      1          6           0        0.176948    1.023714    2.994967
      2          6           0        1.434948    0.297407    2.577810
      3          6           0        2.692948    1.023714    2.994967
      4          6           0        5.208948    1.023714    2.994967
      5          6           0        7.724948    1.023714    2.994967
      6          6           0        3.950948    0.297407    2.577810
      7          6           0        6.466948    0.297407    2.577810
      8          6           0       -1.081052    3.202634    2.994967
      9          6           0       -2.339052    5.381554    2.994967
     10          6           0        0.176948    2.476327    2.577810
     11          6           0       -1.081052    4.655247    2.577810
     12          6           0       -2.339052    6.834167    2.577810
     13          6           0        1.434948    3.202634    2.994967
     14          6           0        0.176948    5.381554    2.994967
     15          6           0       -1.081052    7.560474    2.994967
     16          6           0        3.950948    3.202634    2.994967
     17          6           0        2.692948    5.381554    2.994967
     18          6           0        1.434948    7.560474    2.994967
     19          6           0        6.466948    3.202634    2.994967
     20          6           0        5.208948    5.381554    2.994967
     21          6           0        3.950948    7.560474    2.994967
     22          6           0        2.692948    2.476327    2.577810
     23          6           0        0.176948    6.834167    2.577810
     24          6           0        5.208948    2.476327    2.577810
     25          6           0        3.950948    4.655247    2.577810
     26          6           0        2.692948    6.834167    2.577810
     27          6           0        7.724948    2.476327    2.577810
     28          6           0        6.466948    4.655247    2.577810
     29          6           0        5.208948    6.834167    2.577810
     30          1           0        8.615597    2.990544    2.873152
     31          1           0        7.357597    5.169464    2.873152
     32          1           0        6.099597    7.348383    2.873152
     33          1           0        3.950948    8.588906    2.699625
     34          1           0        1.434948    8.588906    2.699625
     35          1           0       -1.081052    8.588906    2.699625
     36          1           0       -3.229701    7.348383    2.873152
     37          1           0       -3.229701    4.867338    2.699625
     38          1           0       -1.971701    2.688418    2.699625
     39          1           0       -0.713701    0.509498    2.699625
     40          1           0        1.434948   -0.731025    2.873152
     41          1           0        3.950948   -0.731025    2.873152
     42          1           0        6.495217   -0.604546    3.152772
     43          1           0        8.373408    0.350713    3.515994
     44         29           0        1.434948    4.655247    2.577810
     45          6           0        2.786151    4.022442    3.037291
     46          8           0        2.786151    4.022442    4.176920
 ---------------------------------------------------------------------
                    Distance matrix (angstroms):
                    1          2          3          4          5
     1  C    0.000000
     2  C    1.511326   0.000000
     3  C    2.516000   1.511326   0.000000
     4  C    5.032000   3.865827   2.516000   0.000000
     5  C    7.548000   6.345521   5.032000   2.516000   0.000000
     6  C    3.865827   2.516000   1.511326   1.511326   3.865827
     7  C    6.345521   5.032000   3.865827   1.511326   1.511326
     8  C    2.516000   3.865827   4.357840   6.656710   9.071567
     9  C    5.032000   6.345521   6.656710   8.715680  10.966990
    10  C    1.511326   2.516000   2.935023   5.254058   7.697818
    11  C    3.865827   5.032000   5.254058   7.275036   9.534552
    12  C    6.345521   7.548000   7.697818   9.534552  11.628391
    13  C    2.516000   2.935023   2.516000   4.357840   6.656710
    14  C    4.357840   5.254058   5.032000   6.656710   8.715680
    15  C    6.656710   7.697818   7.548000   9.071567  10.966990
    16  C    4.357840   3.865827   2.516000   2.516000   4.357840
    17  C    5.032000   5.254058   4.357840   5.032000   6.656710
    18  C    6.656710   7.275036   6.656710   7.548000   9.071567
    19  C    6.656710   5.825409   4.357840   2.516000   2.516000
    20  C    6.656710   6.345521   5.032000   4.357840   5.032000
    21  C    7.548000   7.697818   6.656710   6.656710   7.548000
    22  C    2.935023   2.516000   1.511326   2.935023   5.254058
    23  C    5.825409   6.656710   6.345521   7.697818   9.534552
    24  C    5.254058   4.357840   2.935023   1.511326   2.935023
    25  C    5.254058   5.032000   3.865827   3.865827   5.254058
    26  C    6.345521   6.656710   5.825409   6.345521   7.697818
    27  C    7.697818   6.656710   5.254058   2.935023   1.511326
    28  C    7.275036   6.656710   5.254058   3.865827   3.865827
    29  C    7.697818   7.548000   6.345521   5.825409   6.345521
    30  H    8.665682   7.674759   6.241877   3.935545   2.162524
    31  H    8.292394   7.674759   6.241877   4.671056   4.163775
    32  H    8.665682   8.459458   7.184813   6.388234   6.531313
    33  H    8.459458   8.665682   7.674759   7.674759   8.459458
    34  H    7.674759   8.292394   7.674759   8.459458   9.842940
    35  H    7.674759   8.665682   8.459458   9.842940  11.613139
    36  H    7.184813   8.459458   8.665682  10.546425  12.649925
    37  H    5.144504   6.531313   7.066713   9.277471  11.613139
    38  H    2.734073   4.163775   4.961594   7.377003   9.842940
    39  H    1.070000   2.162524   3.457875   5.952261   8.459458
    40  H    2.162524   1.070000   2.162524   4.163775   6.531313
    41  H    4.163775   2.734073   2.162524   2.162524   4.163775
    42  H    6.526612   5.172082   4.139249   2.081015   2.046551
    43  H    8.240531   7.001804   5.743868   3.276920   1.070000
    44  Cu   3.865827   4.357840   3.865827   5.254058   7.275036
    45  C    3.975186   3.989080   3.000475   3.855400   5.778051
    46  O    4.146966   4.273030   3.224604   4.032286   5.897550
                    6          7          8          9         10
     6  C    0.000000
     7  C    2.516000   0.000000
     8  C    5.825409   8.098559   0.000000
     9  C    8.098559  10.176846   2.516000   0.000000
    10  C    4.357840   6.656710   1.511326   3.865827   0.000000
    11  C    6.656710   8.715680   1.511326   1.511326   2.516000
    12  C    9.071567  10.966990   3.865827   1.511326   5.032000
    13  C    3.865827   5.825409   2.516000   4.357840   1.511326
    14  C    6.345521   8.098559   2.516000   2.516000   2.935023
    15  C    8.845743  10.483246   4.357840   2.516000   5.254058
    16  C    2.935023   3.865827   5.032000   6.656710   3.865827
    17  C    5.254058   6.345521   4.357840   5.032000   3.865827
    18  C    7.697818   8.845743   5.032000   4.357840   5.254058
    19  C    3.865827   2.935023   7.548000   9.071567   6.345521
    20  C    5.254058   5.254058   6.656710   7.548000   5.825409
    21  C    7.275036   7.697818   6.656710   6.656710   6.345521
    22  C    2.516000   4.357840   3.865827   5.825409   2.516000
    23  C    7.548000   9.071567   3.865827   2.935023   4.357840
    24  C    2.516000   2.516000   6.345521   8.098559   5.032000
    25  C    4.357840   5.032000   5.254058   6.345521   4.357840
    26  C    6.656710   7.548000   5.254058   5.254058   5.032000
    27  C    4.357840   2.516000   8.845743  10.483246   7.548000
    28  C    5.032000   4.357840   7.697818   8.845743   6.656710
    29  C    6.656710   6.656710   7.275036   7.697818   6.656710
    30  H    5.394363   3.457875   9.699733  11.213211   8.459458
    31  H    5.952261   4.961594   8.665682   9.699733   7.674759
    32  H    7.377003   7.066713   8.292394   8.665682   7.674759
    33  H    8.292394   8.665682   7.377003   7.066713   7.184813
    34  H    8.665682   9.699733   5.952261   4.961594   6.241877
    35  H    9.699733  11.213211   5.394363   3.457875   6.241877
    36  H   10.068029  11.992851   4.671056   2.162524   5.952261
    37  H    8.512392  10.720266   2.734073   1.070000   4.163775
    38  H    6.388234   8.771691   1.070000   2.734073   2.162524
    39  H    4.671056   7.184813   2.734073   5.144504   2.162524
    40  H    2.734073   5.144504   4.671056   7.184813   3.457875
    41  H    1.070000   2.734073   6.388234   8.771691   4.961594
    42  H    2.759965   1.070000   8.480529  10.672516   7.052864
    43  H    4.521192   2.125469   9.888970  11.846418   8.519412
    44  Cu   5.032000   6.656710   2.935023   3.865827   2.516000
    45  C    3.929855   5.256926   3.953370   5.302517   3.067497
    46  O    4.217794   5.475518   4.126059   5.432486   3.428639
                   11         12         13         14         15
    11  C    0.000000
    12  C    2.516000   0.000000
    13  C    2.935023   5.254058   0.000000
    14  C    1.511326   2.935023   2.516000   0.000000
    15  C    2.935023   1.511326   5.032000   2.516000   0.000000
    16  C    5.254058   7.275036   2.516000   4.357840   6.656710
    17  C    3.865827   5.254058   2.516000   2.516000   4.357840
    18  C    3.865827   3.865827   4.357840   2.516000   2.516000
    19  C    7.697818   9.534552   5.032000   6.656710   8.715680
    20  C    6.345521   7.697818   4.357840   5.032000   6.656710
    21  C    5.825409   6.345521   5.032000   4.357840   5.032000
    22  C    4.357840   6.656710   1.511326   3.865827   6.345521
    23  C    2.516000   2.516000   3.865827   1.511326   1.511326
    24  C    6.656710   8.715680   3.865827   5.825409   8.098559
    25  C    5.032000   6.656710   2.935023   3.865827   5.825409
    26  C    4.357840   5.032000   3.865827   2.935023   3.865827
    27  C    9.071567  10.966990   6.345521   8.098559  10.176846
    28  C    7.548000   9.071567   5.254058   6.345521   8.098559
    29  C    6.656710   7.548000   5.254058   5.254058   6.345521
    30  H    9.842940  11.613139   7.184813   8.771691  10.720266
    31  H    8.459458   9.842940   6.241877   7.184813   8.771691
    32  H    7.674759   8.459458   6.241877   6.241877   7.184813
    33  H    6.388234   6.531313   5.952261   4.961594   5.144504
    34  H    4.671056   4.163775   5.394363   3.457875   2.734073
    35  H    3.935545   2.162524   5.952261   3.457875   1.070000
    36  H    3.457875   1.070000   6.241877   3.935545   2.162524
    37  H    2.162524   2.162524   4.961594   3.457875   3.457875
    38  H    2.162524   4.163775   3.457875   3.457875   4.961594
    39  H    4.163775   6.531313   3.457875   4.961594   7.066713
    40  H    5.952261   8.459458   3.935545   6.241877   8.665682
    41  H    7.377003   9.842940   4.671056   7.184813   9.699733
    42  H    9.240988  11.563276   6.334497   8.705103  11.139673
    43  H   10.430533  12.556757   7.519784   9.631344  11.901215
    44  Cu   2.516000   4.357840   1.511326   1.511326   3.865827
    45  C    3.945482   5.863841   1.581021   2.942264   5.241633
    46  O    4.232358   6.060582   1.973537   3.170511   5.373076
                   16         17         18         19         20
    16  C    0.000000
    17  C    2.516000   0.000000
    18  C    5.032000   2.516000   0.000000
    19  C    2.516000   4.357840   6.656710   0.000000
    20  C    2.516000   2.516000   4.357840   2.516000   0.000000
    21  C    4.357840   2.516000   2.516000   5.032000   2.516000
    22  C    1.511326   2.935023   5.254058   3.865827   3.865827
    23  C    5.254058   2.935023   1.511326   7.275036   5.254058
    24  C    1.511326   3.865827   6.345521   1.511326   2.935023
    25  C    1.511326   1.511326   3.865827   2.935023   1.511326
    26  C    3.865827   1.511326   1.511326   5.254058   2.935023
    27  C    3.865827   5.825409   8.098559   1.511326   3.865827
    28  C    2.935023   3.865827   5.825409   1.511326   1.511326
    29  C    3.865827   2.935023   3.865827   3.865827   1.511326
    30  H    4.671056   6.388234   8.512392   2.162524   4.163775
    31  H    3.935545   4.671056   6.388234   2.162524   2.162524
    32  H    4.671056   3.935545   4.671056   4.163775   2.162524
    33  H    5.394363   3.457875   2.734073   5.952261   3.457875
    34  H    5.952261   3.457875   1.070000   7.377003   4.961594
    35  H    7.377003   4.961594   2.734073   9.277471   7.066713
    36  H    8.292394   6.241877   4.671056  10.546425   8.665682
    37  H    7.377003   5.952261   5.394363   9.842940   8.459458
    38  H    5.952261   5.394363   5.952261   8.459458   7.674759
    39  H    5.394363   5.952261   7.377003   7.674759   7.674759
    40  H    4.671056   6.241877   8.292394   6.388234   7.184813
    41  H    3.935545   6.241877   8.665682   4.671056   6.241877
    42  H    4.581793   7.093345   9.607225   3.810554   6.124768
    43  H    5.288012   7.605817  10.019698   3.469800   5.966124
    44  Cu   2.935023   1.511326   2.935023   5.254058   3.865827
    45  C    1.425001   1.362961   3.787507   3.771226   2.778294
    46  O    1.850905   1.803576   3.967421   3.951881   3.018964
                   21         22         23         24         25
    21  C    0.000000
    22  C    5.254058   0.000000
    23  C    3.865827   5.032000   0.000000
    24  C    5.254058   2.516000   6.656710   0.000000
    25  C    2.935023   2.516000   4.357840   2.516000   0.000000
    26  C    1.511326   4.357840   2.516000   5.032000   2.516000
    27  C    6.345521   5.032000   8.715680   2.516000   4.357840
    28  C    3.865827   4.357840   6.656710   2.516000   2.516000
    29  C    1.511326   5.032000   5.032000   4.357840   2.516000
    30  H    6.531313   5.952261   9.277471   3.457875   4.961594
    31  H    4.163775   5.394363   7.377003   3.457875   3.457875
    32  H    2.162524   5.952261   5.952261   4.961594   3.457875
    33  H    1.070000   6.241877   4.163775   6.241877   3.935545
    34  H    2.734073   6.241877   2.162524   7.184813   4.671056
    35  H    5.144504   7.184813   2.162524   8.771691   6.388234
    36  H    7.184813   7.674759   3.457875   9.748587   7.674759
    37  H    7.674759   6.388234   3.935545   8.771691   7.184813
    38  H    7.674759   4.671056   4.671056   7.184813   6.241877
    39  H    8.459458   3.935545   6.388234   6.241877   6.241877
    40  H    8.665682   3.457875   7.674759   4.961594   5.952261
    41  H    8.292394   3.457875   8.459458   3.457875   5.394363
    42  H    8.553698   4.927435   9.776787   3.387750   5.871057
    43  H    8.474094   6.137267  10.492727   3.925841   6.242384
    44  Cu   3.865827   2.516000   2.516000   4.357840   2.516000
    45  C    3.725078   1.615636   3.863271   2.910591   1.402967
    46  O    3.907868   2.226277   4.155826   3.289007   2.077100
                   26         27         28         29         30
    26  C    0.000000
    27  C    6.656710   0.000000
    28  C    4.357840   2.516000   0.000000
    29  C    2.516000   5.032000   2.516000   0.000000
    30  H    7.066713   1.070000   2.734073   5.144504   0.000000
    31  H    4.961594   2.734073   1.070000   2.734073   2.516000
    32  H    3.457875   5.144504   2.734073   1.070000   5.032000
    33  H    2.162524   7.184813   4.671056   2.162524   7.289082
    34  H    2.162524   8.771691   6.388234   4.163775   9.106783
    35  H    4.163775  10.720266   8.512392   6.531313  11.198070
    36  H    5.952261  11.992851  10.068029   8.459458  12.621483
    37  H    6.241877  11.213211   9.699733   8.665682  11.994313
    38  H    6.241877   9.699733   8.665682   8.292394  10.593029
    39  H    7.184813   8.665682   8.292394   8.665682   9.655127
    40  H    7.674759   7.066713   7.377003   8.459458   8.087755
    41  H    7.674759   4.961594   5.952261   7.674759   5.967329
    42  H    8.373905   3.366689   5.291201   7.570966   4.183164
    43  H    8.670812   2.412245   4.800395   7.275244   2.727747
    44  Cu   2.516000   6.656710   5.032000   4.357840   7.377003
    45  C    2.850545   5.195509   3.762955   3.739902   5.922347
    46  O    3.235991   5.416580   4.062740   4.041397   6.061935
                   31         32         33         34         35
    31  H    0.000000
    32  H    2.516000   0.000000
    33  H    4.829902   2.487107   0.000000
    34  H    6.841087   4.829902   2.516000   0.000000
    35  H    9.106783   7.289082   5.032000   2.516000   0.000000
    36  H   10.809188   9.329297   7.289082   4.829902   2.487107
    37  H   10.593029   9.655127   8.087755   5.967329   4.297297
    38  H    9.655127   9.321547   8.360235   6.813297   5.967329
    39  H    9.321547   9.655127   9.329297   8.360235   8.087755
    40  H    8.360235   9.329297   9.655127   9.321547   9.655127
    41  H    6.813297   8.360235   9.321547   9.655127  10.593029
    42  H    5.844747   7.967671   9.549775  10.503867  11.921609
    43  H    4.966435   7.385855   9.385757  10.801690  12.566666
    44  Cu   5.952261   5.394363   4.671056   3.935545   4.671056
    45  C    4.716006   4.697632   4.724761   4.774135   5.993486
    46  O    4.890152   4.872434   4.938800   4.986055   6.163623
                   36         37         38         39         40
    36  H    0.000000
    37  H    2.487107   0.000000
    38  H    4.829902   2.516000   0.000000
    39  H    7.289082   5.032000   2.516000   0.000000
    40  H    9.329297   7.289082   4.829902   2.487107   0.000000
    41  H   10.809188   9.106783   6.841087   4.829902   2.516000
    42  H   12.565878  11.167850   9.096024   7.308552   5.069567
    43  H   13.565130  12.477920  10.637321   9.125087   7.051640
    44  Cu   5.394363   4.671056   3.935545   4.671056   5.394363
    45  C    6.875994   6.084270   4.952857   4.970288   4.944506
    46  O    6.996583   6.251937   5.157439   5.174180   5.110872
                   41         42         43         44         45
    41  H    0.000000
    42  H    2.562712   0.000000
    43  H    4.597995   2.138235   0.000000
    44  Cu   5.952261   7.321361   8.218967   0.000000
    45  C    4.896851   5.931233   6.702849   1.561190   0.000000
    46  O    5.064782   6.017896   6.718322   2.187086   1.139629
                   46
    46  O    0.000000
 Stoichiometry    C30H14CuO(2)
 Framework group  C1[X(C30H14CuO)]
 Deg. of freedom   132
 Full point group                 C1      NOp   1
 Largest Abelian subgroup         C1      NOp   1
 Largest concise Abelian subgroup C1      NOp   1
                         Standard orientation:                         
 ---------------------------------------------------------------------
 Center     Atomic      Atomic             Coordinates (Angstroms)
 Number     Number       Type             X           Y           Z
 ---------------------------------------------------------------------
      1          6           0        0.580213    3.781326    0.175420
      2          6           0       -0.870919    3.780871   -0.246859
      3          6           0       -1.597966    2.522075    0.166588
      4          6           0       -3.776146    1.262824    0.157756
      5          6           0       -5.954325    0.003573    0.148923
      6          6           0       -3.049098    2.521620   -0.255691
      7          6           0       -5.227278    1.262369   -0.264524
      8          6           0        2.759846    2.524578    0.181966
      9          6           0        4.939478    1.267831    0.188511
     10          6           0        1.308714    2.524124   -0.240314
     11          6           0        3.488346    1.267376   -0.233768
     12          6           0        5.667979    0.010629   -0.227223
     13          6           0        0.581666    1.265327    0.173133
     14          6           0        2.761299    0.008580    0.179679
     15          6           0        4.940932   -1.248168    0.186224
     16          6           0       -1.596513    0.006076    0.164301
     17          6           0        0.583120   -1.250671    0.170846
     18          6           0        2.762753   -2.507419    0.177392
     19          6           0       -3.774692   -1.253175    0.155469
     20          6           0       -1.595059   -2.509922    0.162014
     21          6           0        0.584573   -3.766670    0.168559
     22          6           0       -0.869466    1.264873   -0.249146
     23          6           0        3.489800   -1.248622   -0.236055
     24          6           0       -3.047645    0.005622   -0.257978
     25          6           0       -0.868012   -1.251126   -0.251433
     26          6           0        1.311620   -2.507873   -0.244888
     27          6           0       -5.225824   -1.253629   -0.266811
     28          6           0       -3.046192   -2.510377   -0.260266
     29          6           0       -0.866559   -3.767124   -0.253720
     30          1           0       -5.740565   -2.144842    0.025905
     31          1           0       -3.560932   -3.401589    0.032450
     32          1           0       -1.381299   -4.658337    0.038995
     33          1           0        1.100343   -4.656754   -0.125775
     34          1           0        3.278522   -3.397503   -0.116943
     35          1           0        5.456701   -2.138252   -0.108111
     36          1           0        6.695363    0.010950    0.071746
     37          1           0        5.454219    2.159043   -0.104204
     38          1           0        3.274586    3.415791   -0.110750
     39          1           0        1.094954    4.672538   -0.117295
     40          1           0       -1.386689    4.670955    0.047476
     41          1           0       -3.564868    3.411704    0.038643
     42          1           0       -5.705205    2.028552    0.309454
     43          1           0       -6.854390    0.261188    0.667014
     44         29           0        1.310167    0.008125   -0.242601
     45          6           0       -0.177950   -0.120724    0.211516
     46          8           0       -0.181971   -0.121762    1.351137
 ---------------------------------------------------------------------
 Rotational constants (GHZ):      0.2934640      0.1292037      0.0913212
 Standard basis: VSTO-6G (5D, 7F)
 There are   148 symmetry adapted cartesian basis functions of A   symmetry.
 There are   147 symmetry adapted basis functions of A   symmetry.
   147 basis functions,   888 primitive gaussians,   148 cartesian basis functions
    76 alpha electrons       75 beta electrons
       nuclear repulsion energy      1626.4061212381 Hartrees.
 Integral buffers will be    262144 words long.
 Regular integral format.
 Two-electron integral symmetry is turned off.
 Do NDO integrals.
 One-electron integrals computed using PRISM.
 NBasis=   147 RedAO= F EigKep=  0.00D+00  NBF=   147
 NBsUse=   147 1.00D-04 EigRej=  0.00D+00 NBFU=   147
 Projected New-EHT guess.
 Enter ItEHT:  IZDO=4 IZDPar=0 Conv= 1.00D-06 N=  147
 It=   1                  EEH= -116.928157130     EQH= 0.000000000000E+00 EH= -116.928157130    
 Initial guess <Sx>= 0.0000 <Sy>= 0.0000 <Sz>= 0.5000 <S**2>= 0.7500 S= 0.5000
 Keep J ints in memory in canonical form, NReq=2141367.
 Gradient too large for Newton-Raphson -- use scaled steepest descent instead.
     Minimum is close to point  4 DX= -3.17D-02 DF= -8.64D-02 DXR=  5.58D-02 DFR=  2.76D-03 which will be used.
 Gradient too large for Newton-Raphson -- use scaled steepest descent instead.
     Minimum is close to point  2 DX=  7.09D-03 DF= -5.21D-02 DXR=  6.62D-02 DFR=  4.41D-03 which will be used.
 Gradient too large for Newton-Raphson -- use scaled steepest descent instead.
     Minimum is close to point  3 DX= -7.56D-03 DF= -2.77D-02 DXR=  9.73D-02 DFR=  9.56D-03 which will be used.
 Gradient too large for Newton-Raphson -- use scaled steepest descent instead.
 Gradient too large for Newton-Raphson -- use scaled steepest descent instead.
     Accept linear search using points  2 and  3.
 Gradient too large for Newton-Raphson -- use scaled steepest descent instead.
     Accept linear search using points  2 and  3.
 Gradient too large for Newton-Raphson -- use scaled steepest descent instead.
     Minimum is close to point  2 DX= -5.55D-03 DF= -2.94D-03 DXR=  5.88D-02 DFR=  3.47D-03 which will be used.
 Gradient too large for Newton-Raphson -- use scaled steepest descent instead.
     Minimum is close to point  2 DX=  3.67D-03 DF= -1.08D-03 DXR=  3.54D-02 DFR=  1.25D-03 which will be used.
 Gradient too large for Newton-Raphson -- use scaled steepest descent instead.
     Accept linear search using points  4 and  5.
 Gradient too large for Newton-Raphson -- use scaled steepest descent instead.
 Gradient too large for Newton-Raphson -- use scaled steepest descent instead.
     Accept linear search using points  6 and  7.
     Minimum is close to point  7 DX= -1.28D-01 DF= -1.51D-02 DXR=  7.67D-02 DFR=  2.90D-03 which will be used.
 Gradient too large for Newton-Raphson -- use scaled steepest descent instead.
 Gradient too large for Newton-Raphson -- use scaled steepest descent instead.
     Minimum is close to point  4 DX=  1.75D-02 DF= -1.44D-03 DXR=  4.18D-02 DFR=  1.50D-03 which will be used.
 Gradient too large for Newton-Raphson -- use scaled steepest descent instead.
 Gradient too large for Newton-Raphson -- use scaled steepest descent instead.
     Minimum is close to point  2 DX=  4.18D-02 DF= -5.91D-03 DXR=  9.46D-02 DFR=  9.02D-03 which will be used.
 Gradient too large for Newton-Raphson -- use scaled steepest descent instead.
     Accept linear search using points  1 and  2.
 Gradient too large for Newton-Raphson -- use scaled steepest descent instead.
     Accept linear search using points  5 and  6.
 Gradient too large for Newton-Raphson -- use scaled steepest descent instead.
 Gradient too large for Newton-Raphson -- use scaled steepest descent instead.
 Gradient too large for Newton-Raphson -- use scaled steepest descent instead.
     Accept linear search using points  1 and  2.
 Gradient too large for Newton-Raphson -- use scaled steepest descent instead.
 Gradient too large for Newton-Raphson -- use scaled steepest descent instead.
     Accept linear search using points  1 and  2.
 Gradient too large for Newton-Raphson -- use scaled steepest descent instead.
     Accept linear search using points  3 and  4.
 Gradient too large for Newton-Raphson -- use scaled steepest descent instead.
     Minimum is close to point  3 DX= -8.82D-04 DF= -6.51D-06 DXR=  4.43D-03 DFR=  1.96D-05 which will be used.
 Gradient too large for Newton-Raphson -- use scaled steepest descent instead.
     Accept linear search using points  1 and  2.
 Gradient too large for Newton-Raphson -- use scaled steepest descent instead.
     Accept linear search using points  1 and  2.
 Gradient too large for Newton-Raphson -- use scaled steepest descent instead.
     Accept linear search using points  2 and  3.
 Gradient too large for Newton-Raphson -- use scaled steepest descent instead.
 Gradient too large for Newton-Raphson -- use scaled steepest descent instead.
     Accept linear search using points  1 and  2.
     Minimum is close to point  2 DX= -5.03D-02 DF= -1.58D-04 DXR=  3.47D-02 DFR=  2.23D-03 which will be used.
 Gradient too large for Newton-Raphson -- use scaled steepest descent instead.
     Minimum is close to point  3 DX= -3.73D-03 DF= -2.40D-05 DXR=  1.90D-02 DFR=  3.61D-04 which will be used.
 Gradient too large for Newton-Raphson -- use scaled steepest descent instead.
     Accept linear search using points  1 and  2.
     Minimum is close to point  2 DX= -1.19D-01 DF= -5.32D-04 DXR=  9.32D-02 DFR=  1.38D-02 which will be used.
 Gradient too large for Newton-Raphson -- use scaled steepest descent instead.
     Minimum is close to point  3 DX= -3.33D-03 DF= -1.31D-05 DXR=  1.69D-02 DFR=  2.87D-04 which will be used.
 Gradient too large for Newton-Raphson -- use scaled steepest descent instead.
     Accept linear search using points  1 and  2.
     Minimum is close to point  2 DX= -2.95D-02 DF= -2.43D-05 DXR=  2.32D-02 DFR=  8.30D-04 which will be used.
 Gradient too large for Newton-Raphson -- use scaled steepest descent instead.
     Minimum is close to point  3 DX=  2.87D-03 DF= -5.44D-06 DXR=  1.41D-02 DFR=  2.00D-04 which will be used.
 Gradient too large for Newton-Raphson -- use scaled steepest descent instead.
 Gradient too large for Newton-Raphson -- use scaled steepest descent instead.
 Gradient too large for Newton-Raphson -- use scaled steepest descent instead.
     Accept linear search using points  1 and  2.
     Minimum is close to point  2 DX= -1.22D-02 DF= -2.51D-06 DXR=  7.65D-03 DFR=  1.35D-04 which will be used.
 Gradient too large for Newton-Raphson -- use scaled steepest descent instead.
 Gradient too large for Newton-Raphson -- use scaled steepest descent instead.
     Minimum is close to point  2 DX= -2.10D-02 DF= -2.41D-06 DXR=  1.33D-02 DFR=  1.77D-04 which will be used.
 Gradient too large for Newton-Raphson -- use scaled steepest descent instead.
 Gradient too large for Newton-Raphson -- use scaled steepest descent instead.
     Accept linear search using points  1 and  2.
     Minimum is close to point  2 DX= -1.71D-02 DF= -2.57D-06 DXR=  1.08D-02 DFR=  2.61D-04 which will be used.
 Gradient too large for Newton-Raphson -- use scaled steepest descent instead.
 Gradient too large for Newton-Raphson -- use scaled steepest descent instead.
     Accept linear search using points  1 and  2.
     Minimum is close to point  2 DX= -1.68D-02 DF= -1.90D-06 DXR=  1.06D-02 DFR=  2.52D-04 which will be used.
 Gradient too large for Newton-Raphson -- use scaled steepest descent instead.
 Gradient too large for Newton-Raphson -- use scaled steepest descent instead.
     Accept linear search using points  1 and  2.
     Minimum is close to point  2 DX= -4.94D-02 DF= -1.17D-05 DXR=  3.19D-02 DFR=  2.07D-03 which will be used.
 Gradient too large for Newton-Raphson -- use scaled steepest descent instead.
 Gradient too large for Newton-Raphson -- use scaled steepest descent instead.
     Accept linear search using points  1 and  2.
     Minimum is close to point  2 DX= -1.00D-01 DF= -3.63D-05 DXR=  6.67D-02 DFR=  8.38D-03 which will be used.
 Gradient too large for Newton-Raphson -- use scaled steepest descent instead.
     Minimum is close to point  3 DX= -1.73D-03 DF= -4.14D-07 DXR=  8.72D-03 DFR=  7.60D-05 which will be used.
 Gradient too large for Newton-Raphson -- use scaled steepest descent instead.
     Accept linear search using points  1 and  2.
 Gradient too large for Newton-Raphson -- use scaled steepest descent instead.
     Minimum is close to point  3 DX=  9.85D-03 DF= -7.90D-06 DXR=  4.69D-02 DFR=  2.21D-03 which will be used.
 Gradient too large for Newton-Raphson -- use scaled steepest descent instead.
 Gradient too large for Newton-Raphson -- use scaled steepest descent instead.
     Minimum is close to point  3 DX=  1.35D-02 DF= -1.34D-05 DXR=  6.34D-02 DFR=  4.04D-03 which will be used.
 Gradient too large for Newton-Raphson -- use scaled steepest descent instead.
     Accept linear search using points  1 and  2.
     Minimum is close to point  2 DX= -3.74D-02 DF= -4.20D-06 DXR=  2.74D-02 DFR=  1.28D-03 which will be used.
 Gradient too large for Newton-Raphson -- use scaled steepest descent instead.
     Minimum is close to point  3 DX=  1.79D-02 DF= -2.24D-05 DXR=  8.23D-02 DFR=  6.82D-03 which will be used.
 Gradient too large for Newton-Raphson -- use scaled steepest descent instead.
     Accept linear search using points  1 and  2.
     Minimum is close to point  2 DX= -1.10D-01 DF= -3.33D-05 DXR=  8.56D-02 DFR=  1.17D-02 which will be used.
 Gradient too large for Newton-Raphson -- use scaled steepest descent instead.
 Gradient too large for Newton-Raphson -- use scaled steepest descent instead.
 Gradient too large for Newton-Raphson -- use scaled steepest descent instead.
     Accept linear search using points  1 and  2.
 Gradient too large for Newton-Raphson -- use scaled steepest descent instead.
 Gradient too large for Newton-Raphson -- use scaled steepest descent instead.
 Gradient too large for Newton-Raphson -- use scaled steepest descent instead.
     Minimum is close to point  3 DX=  3.89D-02 DF= -2.48D-06 DXR=  2.91D-02 DFR=  8.46D-04 which will be used.
 Gradient too large for Newton-Raphson -- use scaled steepest descent instead.
 Gradient too large for Newton-Raphson -- use scaled steepest descent instead.
     Accept linear search using points  1 and  2.
 Gradient too large for Newton-Raphson -- use scaled steepest descent instead.
     Accept linear search using points  1 and  2.
 Gradient too large for Newton-Raphson -- use scaled steepest descent instead.
     Accept linear search using points  3 and  4.
     Minimum is close to point  4 DX= -1.42D-01 DF= -2.06D-05 DXR=  5.57D-02 DFR=  4.25D-03 which will be used.
 Gradient too large for Newton-Raphson -- use scaled steepest descent instead.
 Gradient too large for Newton-Raphson -- use scaled steepest descent instead.
     Accept linear search using points  1 and  2.
 Gradient too large for Newton-Raphson -- use scaled steepest descent instead.
     Minimum is close to point  3 DX=  1.63D-02 DF= -1.88D-05 DXR=  7.52D-02 DFR=  5.69D-03 which will be used.
 Gradient too large for Newton-Raphson -- use scaled steepest descent instead.
     Accept linear search using points  1 and  2.
 Gradient too large for Newton-Raphson -- use scaled steepest descent instead.
 Gradient too large for Newton-Raphson -- use scaled steepest descent instead.
     Minimum is close to point  3 DX=  3.98D-02 DF= -8.23D-06 DXR=  7.37D-02 DFR=  5.46D-03 which will be used.
 Gradient too large for Newton-Raphson -- use scaled steepest descent instead.
     Accept linear search using points  1 and  2.
 Gradient too large for Newton-Raphson -- use scaled steepest descent instead.
 Gradient too large for Newton-Raphson -- use scaled steepest descent instead.
     Minimum is close to point  3 DX= -1.20D-02 DF= -2.26D-05 DXR=  6.41D-02 DFR=  4.12D-03 which will be used.
 Gradient too large for Newton-Raphson -- use scaled steepest descent instead.
     Minimum is close to point  4 DX=  1.05D-02 DF= -3.55D-07 DXR=  1.48D-02 DFR=  2.18D-04 which will be used.
 Gradient too large for Newton-Raphson -- use scaled steepest descent instead.
     Accept linear search using points  1 and  2.
 Gradient too large for Newton-Raphson -- use scaled steepest descent instead.
     Accept linear search using points  3 and  4.
 Gradient too large for Newton-Raphson -- use scaled steepest descent instead.
 Gradient too large for Newton-Raphson -- use scaled steepest descent instead.
     Accept linear search using points  1 and  2.
 Gradient too large for Newton-Raphson -- use scaled steepest descent instead.
 Gradient too large for Newton-Raphson -- use scaled steepest descent instead.
 Gradient too large for Newton-Raphson -- use scaled steepest descent instead.
     Accept linear search using points  1 and  2.
 Gradient too large for Newton-Raphson -- use scaled steepest descent instead.
 Gradient too large for Newton-Raphson -- use scaled steepest descent instead.
 Gradient too large for Newton-Raphson -- use scaled steepest descent instead.
 Gradient too large for Newton-Raphson -- use scaled steepest descent instead.
     Accept linear search using points  1 and  2.
 Gradient too large for Newton-Raphson -- use scaled steepest descent instead.
     Accept linear search using points  3 and  4.
 Gradient too large for Newton-Raphson -- use scaled steepest descent instead.
 Gradient too large for Newton-Raphson -- use scaled steepest descent instead.
 Gradient too large for Newton-Raphson -- use scaled steepest descent instead.
     Accept linear search using points  1 and  2.
 Gradient too large for Newton-Raphson -- use scaled steepest descent instead.
     Minimum is close to point  3 DX=  1.10D-01 DF= -6.79D-06 DXR=  6.10D-02 DFR=  3.75D-03 which will be used.
 Gradient too large for Newton-Raphson -- use scaled steepest descent instead.
 Gradient too large for Newton-Raphson -- use scaled steepest descent instead.
 Gradient too large for Newton-Raphson -- use scaled steepest descent instead.
     Accept linear search using points  1 and  2.
 Gradient too large for Newton-Raphson -- use scaled steepest descent instead.
     Accept linear search using points  3 and  4.
 Gradient too large for Newton-Raphson -- use scaled steepest descent instead.
 Gradient too large for Newton-Raphson -- use scaled steepest descent instead.
 Gradient too large for Newton-Raphson -- use scaled steepest descent instead.
     Accept linear search using points  1 and  2.
 Gradient too large for Newton-Raphson -- use scaled steepest descent instead.
     Accept linear search using points  2 and  3.
 Gradient too large for Newton-Raphson -- use scaled steepest descent instead.
 Gradient too large for Newton-Raphson -- use scaled steepest descent instead.
 Gradient too large for Newton-Raphson -- use scaled steepest descent instead.
     Accept linear search using points  1 and  2.
 Gradient too large for Newton-Raphson -- use scaled steepest descent instead.
     Minimum is close to point  4 DX=  1.42D-02 DF= -6.17D-08 DXR=  5.64D-03 DFR=  3.20D-05 which will be used.
 Gradient too large for Newton-Raphson -- use scaled steepest descent instead.
 Gradient too large for Newton-Raphson -- use scaled steepest descent instead.
 Gradient too large for Newton-Raphson -- use scaled steepest descent instead.
 Gradient too large for Newton-Raphson -- use scaled steepest descent instead.
     Accept linear search using points  1 and  2.
 Gradient too large for Newton-Raphson -- use scaled steepest descent instead.
     Accept linear search using points  1 and  2.
 Gradient too large for Newton-Raphson -- use scaled steepest descent instead.
     Accept linear search using points  3 and  4.
     Minimum is close to point  4 DX= -9.57D-02 DF= -3.37D-06 DXR=  3.82D-02 DFR=  2.00D-03 which will be used.
 Gradient too large for Newton-Raphson -- use scaled steepest descent instead.
 Gradient too large for Newton-Raphson -- use scaled steepest descent instead.
     Accept linear search using points  1 and  2.
 Gradient too large for Newton-Raphson -- use scaled steepest descent instead.
 Gradient too large for Newton-Raphson -- use scaled steepest descent instead.
 Gradient too large for Newton-Raphson -- use scaled steepest descent instead.
     Accept linear search using points  1 and  2.
 Gradient too large for Newton-Raphson -- use scaled steepest descent instead.
     Accept linear search using points  3 and  4.
     Minimum is close to point  4 DX= -1.71D-01 DF= -7.94D-06 DXR=  7.34D-02 DFR=  6.30D-03 which will be used.
 Gradient too large for Newton-Raphson -- use scaled steepest descent instead.
 Gradient too large for Newton-Raphson -- use scaled steepest descent instead.
 Gradient too large for Newton-Raphson -- use scaled steepest descent instead.
     Accept linear search using points  1 and  2.
 Gradient too large for Newton-Raphson -- use scaled steepest descent instead.
 Gradient too large for Newton-Raphson -- use scaled steepest descent instead.
 Gradient too large for Newton-Raphson -- use scaled steepest descent instead.
 Gradient too large for Newton-Raphson -- use scaled steepest descent instead.
     Accept linear search using points  1 and  2.
 Gradient too large for Newton-Raphson -- use scaled steepest descent instead.
     Accept linear search using points  3 and  4.
     Minimum is close to point  4 DX= -8.57D-02 DF= -1.55D-06 DXR=  3.55D-02 DFR=  1.75D-03 which will be used.
 Gradient too large for Newton-Raphson -- use scaled steepest descent instead.
 Gradient too large for Newton-Raphson -- use scaled steepest descent instead.
 Gradient too large for Newton-Raphson -- use scaled steepest descent instead.
     Accept linear search using points  1 and  2.
 Gradient too large for Newton-Raphson -- use scaled steepest descent instead.
     Accept linear search using points  2 and  3.
 Gradient too large for Newton-Raphson -- use scaled steepest descent instead.
 Gradient too large for Newton-Raphson -- use scaled steepest descent instead.
 Gradient too large for Newton-Raphson -- use scaled steepest descent instead.
     Accept linear search using points  1 and  2.
 Gradient too large for Newton-Raphson -- use scaled steepest descent instead.
 Gradient too large for Newton-Raphson -- use scaled steepest descent instead.
 Gradient too large for Newton-Raphson -- use scaled steepest descent instead.
 Gradient too large for Newton-Raphson -- use scaled steepest descent instead.
 Gradient too large for Newton-Raphson -- use scaled steepest descent instead.
     Accept linear search using points  1 and  2.
 Gradient too large for Newton-Raphson -- use scaled steepest descent instead.
     Accept linear search using points  1 and  2.
 Gradient too large for Newton-Raphson -- use scaled steepest descent instead.
     Accept linear search using points  3 and  4.
     Minimum is close to point  4 DX= -3.14D-02 DF= -1.35D-07 DXR=  1.22D-02 DFR=  2.24D-04 which will be used.
 Gradient too large for Newton-Raphson -- use scaled steepest descent instead.
 Gradient too large for Newton-Raphson -- use scaled steepest descent instead.
     Accept linear search using points  1 and  2.
 Gradient too large for Newton-Raphson -- use scaled steepest descent instead.
 Gradient too large for Newton-Raphson -- use scaled steepest descent instead.
 Gradient too large for Newton-Raphson -- use scaled steepest descent instead.
     Accept linear search using points  1 and  2.
 Gradient too large for Newton-Raphson -- use scaled steepest descent instead.
     Accept linear search using points  3 and  4.
     Minimum is close to point  4 DX= -2.35D-01 DF= -5.53D-06 DXR=  9.54D-02 DFR=  1.04D-02 which will be used.
 Gradient too large for Newton-Raphson -- use scaled steepest descent instead.
 Gradient too large for Newton-Raphson -- use scaled steepest descent instead.
 Gradient too large for Newton-Raphson -- use scaled steepest descent instead.
     Accept linear search using points  1 and  2.
 Gradient too large for Newton-Raphson -- use scaled steepest descent instead.
     Minimum is close to point  3 DX=  4.52D-02 DF= -2.78D-07 DXR=  2.59D-02 DFR=  6.71D-04 which will be used.
 Gradient too large for Newton-Raphson -- use scaled steepest descent instead.
 Gradient too large for Newton-Raphson -- use scaled steepest descent instead.
 Gradient too large for Newton-Raphson -- use scaled steepest descent instead.
     Accept linear search using points  1 and  2.
 Gradient too large for Newton-Raphson -- use scaled steepest descent instead.
 Gradient too large for Newton-Raphson -- use scaled steepest descent instead.
     Minimum is close to point  3 DX= -7.40D-03 DF= -8.83D-07 DXR=  3.84D-02 DFR=  1.48D-03 which will be used.
 Gradient too large for Newton-Raphson -- use scaled steepest descent instead.
 Gradient too large for Newton-Raphson -- use scaled steepest descent instead.
     Accept linear search using points  1 and  2.
 Gradient too large for Newton-Raphson -- use scaled steepest descent instead.
 Gradient too large for Newton-Raphson -- use scaled steepest descent instead.
 Gradient too large for Newton-Raphson -- use scaled steepest descent instead.
 Gradient too large for Newton-Raphson -- use scaled steepest descent instead.
     Accept linear search using points  1 and  2.
 Gradient too large for Newton-Raphson -- use scaled steepest descent instead.
     Accept linear search using points  2 and  3.
     Minimum is close to point  3 DX= -1.07D-02 DF= -1.26D-08 DXR=  5.97D-03 DFR=  2.86D-05 which will be used.
 Gradient too large for Newton-Raphson -- use scaled steepest descent instead.
 Gradient too large for Newton-Raphson -- use scaled steepest descent instead.
 Gradient too large for Newton-Raphson -- use scaled steepest descent instead.
     Accept linear search using points  1 and  2.
 Gradient too large for Newton-Raphson -- use scaled steepest descent instead.
     Accept linear search using points  3 and  4.
 Gradient too large for Newton-Raphson -- use scaled steepest descent instead.
 Gradient too large for Newton-Raphson -- use scaled steepest descent instead.
 Gradient too large for Newton-Raphson -- use scaled steepest descent instead.
     Accept linear search using points  1 and  2.
 Gradient too large for Newton-Raphson -- use scaled steepest descent instead.
     Accept linear search using points  2 and  3.
     Minimum is close to point  3 DX= -5.84D-02 DF= -4.52D-07 DXR=  3.35D-02 DFR=  9.37D-04 which will be used.
 Gradient too large for Newton-Raphson -- use scaled steepest descent instead.
[...]
 01705,-0.00000351,-0.00000555,0.00021041,-0.00012779,0.00000974,-0.000
 08105,0.00002877,0.00006426,-0.00000429,0.00004440,-0.00001622,-0.0022
 9091,0.01201341,-0.00072357,0.00003703,-0.00001706,0.00000339,0.000000
 21,0.00002190,-0.00000976,0.00085923,-0.00022130,-0.00003569,0.0000854
 2,0.00005366,-0.00000492,0.00002752,0.00001790,-0.00000088,0.00000786,
 0.00003529,-0.00000329,-0.00000145,0.00002908,-0.00000436,-0.00000177,
 0.00002009,0.00000432,-0.00001791,0.00001009,0.00000587,-0.00001859,-0
 .00000850,0.00000036,-0.00002189,-0.00001143,-0.00000271,-0.00002407,-
 0.00001889,-0.00000095,-0.00000359,-0.00002953,0.00000467,0.00000334,-
 0.00003533,0.00000625,-0.00034012,-0.00047684,0.00002235,0.21532945,-0
 .00003112,-0.00000493,-0.00000088,-0.00000584,0.00000730,-0.00000818,-
 0.00008503,-0.00003675,-0.00001820,-0.00121474,-0.00087755,0.00049651,
 0.08151025,-0.08198735,0.00130387,-0.00027495,0.00014631,-0.00002477,-
 0.00920051,0.00690447,0.00012485,-0.00002121,-0.00000902,-0.00000763,-
 0.00000825,-0.00000655,-0.00000107,0.00001948,0.00001117,-0.00000555,-
 0.00001248,0.00000427,0.00000962,-0.00000914,0.00000917,0.00000295,-0.
 00006546,-0.00002711,-0.00000674,-0.00001023,0.00001569,-0.00000441,-0
 .00000210,0.00001310,0.00000502,0.00002815,0.00001098,-0.00004097,-0.0
 0004986,0.00005738,0.00002516,-0.00000346,0.00002424,-0.00000012,-0.00
 049386,-0.00271152,0.00063146,-0.00007487,-0.00010323,0.00000706,-0.00
 000057,0.00001915,-0.00000534,0.00002173,-0.00000933,0.00002430,-0.000
 01231,-0.00000181,0.00000200,-0.00015070,0.00002832,0.00000266,0.00004
 020,-0.00001989,-0.00003134,-0.00000189,-0.00002648,0.00000827,0.02607
 730,-0.03191575,0.00230272,0.00048116,-0.00031955,-0.00002651,0.000025
 56,-0.00001621,-0.00000395,0.00016276,-0.00072669,-0.00003118,0.000007
 28,0.00000810,0.00000520,-0.00000784,-0.00000507,0.00000105,-0.0000012
 4,-0.00001637,0.00000223,0.00000078,-0.00001469,0.00000252,0.00000068,
 -0.00001199,-0.00000250,0.00001095,-0.00000584,-0.00000359,0.00001147,
 0.00000523,-0.00000045,0.00001518,0.00000786,0.00000191,0.00001618,0.0
 0001618,0.00000049,0.00000357,0.00002882,-0.00000333,0.00000541,0.0000
 8982,-0.00000496,-0.00087943,0.00046452,-0.00009725,-0.09589339,0.1110
 1101,-0.00000472,0.00000731,0.00000564,0.00000955,0.00000240,-0.000004
 86,-0.00001831,-0.00002419,-0.00019056,0.00025568,0.00043099,0.0047097
 8,-0.00299068,0.00149544,-0.04007112,0.00007243,-0.00002467,-0.0002167
 6,0.00176683,-0.00029537,0.00564630,0.00000120,-0.00000067,-0.00000585
 ,-0.00000019,0.00000181,-0.00000107,-0.00000753,-0.00000687,0.00000205
 ,0.00000293,-0.00000116,-0.00000093,-0.00000028,-0.00000210,-0.0000020
 3,0.00001254,-0.00001058,0.00001892,-0.00001396,0.00000405,0.00000413,
 0.00000079,-0.00000297,-0.00000258,0.00002115,0.00004533,-0.00046331,0
 .00000385,-0.00000370,0.00001814,0.00000848,-0.00000226,-0.00000463,0.
 00007132,0.00054469,0.00489420,-0.00001172,-0.00002099,-0.00021470,0.0
 0000714,-0.00000022,-0.00000096,-0.00002757,-0.00001769,0.00000313,0.0
 0000292,0.00000185,0.00000035,0.00009180,0.00012547,0.00005347,-0.0000
 1972,-0.00004080,-0.00000238,-0.00000582,-0.00000698,0.00000225,-0.001
 82947,0.00247745,0.00546572,-0.00005611,0.00005667,-0.00019506,-0.0000
 0233,0.00000887,-0.00000192,-0.00006734,-0.00002173,-0.00109820,0.0000
 0400,0.00000561,0.00008497,0.00000056,0.00000055,0.00000789,0.00000077
 ,0.00000026,0.00000318,-0.00000051,-0.00000085,0.00000277,0.00000076,0
 .00000096,0.00000155,-0.00000079,0.00000027,0.00000142,-0.00000021,-0.
 00000057,0.00000137,-0.00000075,-0.00000029,0.00000277,-0.00000117,-0.
 00000005,0.00000305,-0.00000042,-0.00000125,0.00000711,0.00000172,0.00
 000549,0.00008052,0.00006469,-0.00011687,-0.00102708,0.00266025,-0.004
 62218,0.02246125,-0.00143165,-0.00085397,-0.00012911,0.00007295,0.0000
 6878,-0.00002949,-0.00053241,0.00055235,-0.00076248,-0.00007537,0.0000
 2250,-0.00002961,0.00005653,-0.00002386,-0.00000146,0.00016658,-0.0001
 3509,0.00003447,0.00000643,-0.00007886,0.00000510,-0.00227145,0.000940
 20,0.00039904,-0.00159023,-0.00110953,0.00118387,0.00210518,-0.0091579
 5,0.00311751,-0.02057196,-0.00233679,0.00964946,-0.00091605,-0.0001146
 7,0.00011846,-0.00477523,-0.01401649,0.01246978,-0.07086256,0.03625210
 ,0.04368276,0.00148309,0.00042670,0.00094205,-0.00093454,0.00125096,-0
 .00048131,-0.00010897,0.00064116,-0.00041917,-0.00042413,-0.00037585,-
 0.00022395,-0.00012172,0.00006913,-0.00004575,-0.00083342,-0.00033234,
 -0.00015906,-0.00013741,-0.00010220,-0.00020402,-0.00309888,0.00710457
 ,-0.00396793,-0.00259503,0.01229457,0.00723371,-0.00018553,0.00028347,
 -0.00011720,-0.00094775,-0.00013058,0.00033996,0.00060554,-0.00168076,
 0.00075816,0.00006992,-0.00000015,0.00000484,0.00004116,0.00002241,0.0
 0002087,-0.00023902,-0.00005297,-0.00005963,-0.00005401,-0.00002776,-0
 .00000333,-0.00007155,-0.00005155,-0.00002526,-0.00002700,-0.00000105,
 -0.00003500,0.00000785,-0.00009360,-0.00001439,-0.00003857,-0.00011477
 ,0.00020803,-0.00000143,0.00011227,-0.00000220,-0.00009269,0.00006190,
 -0.00006229,-0.00022597,0.00010265,0.00000972,-0.00001749,0.00012147,0
 .00028698,0.00015778,-0.00023287,0.00011043,-0.00001169,0.00007131,0.0
 0003698,0.00001176,0.00007830,0.00002385,0.00000164,0.00006648,-0.0000
 0667,-0.00006081,0.00003544,-0.00000238,0.10748173,-0.00099530,-0.0003
 0069,0.00125783,-0.00045691,-0.00049713,-0.00000916,0.00128208,0.00083
 242,0.00171519,0.00006210,0.00023844,0.00003612,-0.00009875,-0.0001093
 7,0.00000189,-0.00013508,0.00006653,-0.00014312,0.00010508,-0.00003431
 ,-0.00002647,0.00051750,-0.00238111,0.00025218,-0.00065729,-0.00037248
 ,-0.00052306,-0.01489767,-0.01490569,0.00816191,0.00313543,0.00788678,
 -0.00065759,0.00049866,-0.00006645,-0.00007968,-0.00137143,-0.07758456
 ,0.04186869,0.02365611,-0.01724199,-0.01297558,-0.00057003,-0.00093382
 ,-0.00123317,-0.00027484,-0.00082048,0.00012201,0.00045927,-0.00090639
 ,-0.00039386,0.00075017,-0.00121552,0.00014381,0.00013052,-0.00016993,
 0.00000442,0.00028759,0.00040425,-0.00027649,-0.00077899,-0.00045844,0
 .00017506,0.01318400,-0.01440028,0.00999036,0.00744447,-0.01384940,-0.
 00901577,0.00020628,-0.00057614,0.00010419,-0.00102672,0.00174013,0.00
 070387,-0.00127230,-0.00002986,-0.00032216,-0.00022253,0.00005363,-0.0
 0000647,-0.00017806,0.00009543,-0.00001762,0.00032023,-0.00012818,-0.0
 0010551,0.00004295,0.00004549,0.00000631,0.00002012,0.00004541,0.00003
 434,-0.00010858,-0.00009777,-0.00000567,-0.00002983,-0.00003542,-0.000
 07799,0.00012770,-0.00023063,-0.00029305,0.00004126,-0.00016233,-0.000
 03724,0.00015975,-0.00011586,0.00002840,0.00000232,0.00024728,0.000102
 42,0.00006394,-0.00020183,0.00006928,-0.00009736,-0.00014211,-0.000104
 45,0.00001521,-0.00012591,-0.00005806,-0.00000310,-0.00006893,0.000014
 96,0.00001535,-0.00002979,0.00002364,0.00003673,-0.00002706,0.00001218
 ,-0.02930902,0.13530793,0.00136174,0.00019101,0.00092792,-0.00012853,0
 .00024934,-0.00009155,-0.00174066,0.00024995,0.00114105,-0.00002854,0.
 00000099,0.00000978,0.00003476,-0.00003992,-0.00000396,0.00027864,0.00
 022285,-0.00000796,-0.00000825,-0.00011497,-0.00000267,0.00027420,-0.0
 0033118,-0.00054110,0.00132157,0.00113234,0.00101891,0.00361216,0.0104
 7927,-0.00284112,0.01100469,-0.00143286,-0.00365152,0.00031798,-0.0002
 6176,-0.00018579,0.00145937,0.05909989,-0.04732991,0.05510904,-0.02842
 991,-0.04724720,-0.00043466,-0.00221999,0.00093739,-0.00001987,0.00078
 407,-0.00044519,-0.00038983,-0.00020922,0.00008615,0.00127870,-0.00026
 835,-0.00013863,-0.00003246,0.00003512,-0.00001221,-0.00013545,-0.0001
 8383,-0.00016671,0.00032741,0.00005701,-0.00005292,-0.00275482,0.01025
 717,-0.00430894,0.00738465,-0.00879079,-0.00538937,-0.00019071,0.00013
 715,-0.00000629,-0.00330476,0.00047132,-0.00021484,-0.00229971,-0.0031
 9180,-0.00046161,-0.00000880,-0.00002003,-0.00000059,-0.00004382,0.000
 05569,0.00003792,-0.00016985,0.00020034,-0.00004256,-0.00002348,-0.000
 00344,0.00000751,-0.00004992,-0.00003154,0.00001254,-0.00006754,-0.000
 04483,-0.00000475,0.00003487,-0.00008981,0.00000509,0.00003642,-0.0002
 2464,-0.00013507,0.00027808,-0.00003274,-0.00004745,-0.00011878,0.0000
 7662,-0.00012947,0.00019087,-0.00019357,-0.00001861,-0.00006169,-0.000
 03501,-0.00000183,-0.00006644,0.00022662,-0.00000038,0.00000392,-0.000
 07633,-0.00011352,-0.00005630,0.00002403,-0.00002645,0.00001437,0.0000
 3486,0.00000670,-0.00003440,0.00001336,0.00000620,-0.07220164,-0.03765
 161,0.11485691,-0.00017903,-0.00033290,0.00040652,-0.00041831,0.000098
 17,0.00015919,-0.00006455,0.00064905,-0.00050876,-0.00030599,-0.000125
 12,-0.00011030,0.00009802,-0.00042153,0.00004518,0.00056429,-0.0003576
 3,0.00018424,0.00023797,-0.00038349,0.00007583,-0.00036242,-0.00002166
 ,0.00064339,-0.00056012,0.00028675,0.00068265,0.00140491,0.00047048,-0
 .00048983,0.00080277,0.00041857,-0.00057343,-0.00048167,-0.00078787,0.
 00016358,-0.00249647,0.00010343,0.00080857,-0.00188495,-0.00118025,0.0
 0000046,0.00065961,-0.00046244,0.00031149,0.00094975,-0.00315568,0.001
 95587,-0.18874290,-0.06532601,0.18895110,-0.00295593,0.00537234,-0.000
 29467,0.00066291,-0.00005543,-0.00003333,-0.00078912,0.00369031,-0.001
 15528,0.00086995,0.00018501,-0.00129594,0.00191009,-0.00011203,0.00040
 272,0.00003389,0.00169922,-0.00020054,-0.00176187,0.00020381,-0.000001
 41,-0.05028025,0.01514312,0.03427593,0.00443747,-0.03066110,0.01312623
 ,-0.00021526,0.00033583,0.00003067,-0.00005788,-0.00012191,-0.00023780
 ,-0.00006367,-0.00071534,-0.00026644,-0.00013005,-0.00004294,-0.000008
 19,-0.00020999,-0.00005692,0.00010186,-0.00028003,-0.00015290,0.000249
 25,0.00012109,-0.00027659,0.00011093,-0.00038479,-0.00097155,0.0002406
 3,0.00004174,0.00011903,-0.00040464,-0.00008526,0.00004569,-0.00023093
 ,0.00000904,0.00012259,-0.00025951,0.00003259,0.00002646,-0.00040538,0
 .00011807,-0.00000433,-0.00018388,0.00001800,-0.00001200,-0.00014609,0
 .00003065,0.00015012,-0.00006454,0.00003435,0.00016748,-0.00004938,-0.
 00017055,0.00007997,-0.00001938,0.00137114,0.00030232,0.00050191,0.610
 93635,-0.00010547,-0.00009566,0.00023829,-0.00009907,0.00011804,0.0001
 8670,0.00001786,0.00026239,-0.00029691,-0.00006912,-0.00012627,-0.0001
 0536,0.00004428,-0.00019505,0.00002959,0.00028670,-0.00014293,0.000237
 75,0.00006843,-0.00021305,0.00006817,-0.00023273,0.00017855,0.00038907
 ,-0.00049709,0.00026482,0.00035517,0.00085639,-0.00007850,-0.00045636,
 0.00088468,0.00005907,-0.00031428,-0.00043469,-0.00064596,0.00000690,-
 0.00175784,-0.00067890,0.00060227,-0.00027059,-0.00075997,0.00039437,0
 .00043378,-0.00023837,-0.00021324,0.00356612,-0.00244829,-0.00056774,-
 0.06342957,-0.10656287,0.10417405,-0.00190354,0.00011188,0.00118150,0.
 00028562,0.00010008,-0.00005232,0.00142257,-0.00044450,-0.00136968,0.0
 0113229,-0.00340049,0.00010829,0.00051944,-0.00160979,-0.00054161,0.00
 144411,0.00046402,0.00072927,-0.00115387,0.00008918,0.00033700,-0.0006
 1712,0.01387681,-0.00579771,-0.01658953,-0.03458822,0.03180745,-0.0001
 4684,0.00010193,0.00001453,0.00049556,0.00027880,0.00017749,0.00004453
 ,-0.00031293,-0.00021370,-0.00004761,-0.00000451,-0.00002381,-0.000008
 78,-0.00011166,0.00003956,-0.00014753,-0.00008289,0.00013049,-0.000451
 75,-0.00026089,0.00007500,-0.00009016,-0.00053718,-0.00021522,0.000100
 66,-0.00002060,-0.00004662,0.00001797,-0.00002077,-0.00007359,0.000100
 66,0.00009899,-0.00010952,-0.00000140,0.00001990,-0.00021571,0.0000161
 3,-0.00005197,-0.00013699,0.00001686,-0.00004373,-0.00013053,0.0000188
 7,0.00003549,-0.00009656,0.00002534,0.00006921,-0.00004868,-0.00006826
 ,0.00002433,-0.00001797,-0.00009650,0.00152535,0.00009048,0.24659302,0
 .27540184,0.00027139,-0.00000651,-0.00042120,0.00010594,0.00024235,-0.
 00036082,-0.00010614,-0.00006876,0.00038110,0.00010474,-0.00006216,0.0
 0012078,-0.00003803,0.00050557,-0.00007818,-0.00017439,0.00028075,-0.0
 0025969,-0.00027469,0.00037774,-0.00013871,0.00040530,0.00007109,-0.00
 066239,0.00030614,0.00019773,-0.00050481,-0.00016157,0.00019029,-0.000
 34012,0.00011189,0.00012431,-0.00046284,0.00037334,0.00004186,-0.00040
 882,0.00053626,-0.00175745,0.00015251,-0.00139075,0.00108397,-0.000032
 98,0.00015040,0.00000339,-0.00032582,-0.00003751,0.00329955,-0.0016964
 5,0.19106338,0.10752059,-0.26104667,0.00619516,-0.00378026,-0.00111713
 ,-0.00066629,0.00020674,0.00004644,-0.00230585,-0.00225701,0.00393231,
 -0.00003815,-0.00104194,0.00296867,-0.00144897,-0.00170847,-0.00130811
 ,-0.00290800,-0.00017975,-0.00098455,0.00137001,0.00043040,-0.00009450
 ,0.04155552,-0.01982328,-0.02594789,0.00043483,0.04326061,-0.02787068,
 0.00024181,-0.00045941,-0.00009667,-0.00064387,-0.00071222,0.00026814,
 -0.00084972,0.00113031,0.00010309,0.00016106,0.00006611,0.00006041,0.0
 0018700,0.00022036,-0.00006714,0.00034557,0.00019911,-0.00034298,-0.00
 031797,0.00038856,0.00016695,0.00031395,0.00062337,0.00023957,0.000071
 51,0.00010991,0.00040412,-0.00012888,0.00007396,0.00030479,-0.00012915
 ,-0.00020047,0.00029079,-0.00016730,-0.00010671,0.00033747,-0.00017823
 ,-0.00002108,0.00024061,-0.00002448,-0.00013063,0.00024600,-0.00003046
 ,-0.00019016,0.00014739,-0.00002971,-0.00019897,0.00010186,0.00018736,
 -0.00008993,0.00005217,-0.00220991,-0.00121106,-0.00598797,-0.65665510
 ,-0.35324511,0.87790154,0.00022255,0.00009020,-0.00023470,0.00010106,0
 .00000254,-0.00014306,0.00020110,-0.00041881,0.00016420,-0.00009619,0.
 00004812,0.00002067,-0.00017052,-0.00003320,-0.00001026,-0.00022995,0.
 00034420,-0.00018422,0.00008967,0.00019401,-0.00005641,0.00019734,0.00
 016990,-0.00054454,0.00024546,-0.00010359,-0.00048473,-0.00063127,0.00
 002710,0.00015757,-0.00045146,-0.00055040,0.00000572,0.00032466,0.0005
 1427,-0.00013988,0.00093198,0.00000668,-0.00026547,0.00064292,0.000435
 94,-0.00038520,-0.00057445,0.00052080,-0.00029971,-0.00089589,-0.00124
 394,0.00017808,-0.01821111,-0.02510887,0.03050930,-0.00414038,0.000046
 92,-0.00035453,0.00022013,-0.00009395,0.00007158,0.00046535,0.00069224
 ,-0.00028399,-0.00182590,-0.00068880,0.00003866,0.00012052,0.00059846,
 0.00003660,0.00041848,0.00003317,-0.00034330,0.00013402,-0.00020738,-0
 .00000396,0.00449140,-0.00021646,-0.00031579,0.00450557,0.00437744,0.0
 0284967,-0.00009915,0.00019389,-0.00006578,0.00008737,0.00003398,0.000
 01654,0.00071669,-0.00103556,0.00009059,0.00009710,0.00003040,0.000017
 78,0.00012414,0.00007951,0.00001303,0.00018240,0.00012985,0.00002778,-
 0.00015941,0.00020190,-0.00003115,0.00022039,0.00072241,-0.00018860,-0
 .00000837,-0.00000731,0.00029685,0.00000136,0.00000114,0.00021599,-0.0
 0005299,-0.00012854,0.00021394,-0.00005599,-0.00003879,0.00030499,-0.0
 0010153,0.00000944,0.00014106,-0.00001285,-0.00002389,0.00011944,-0.00
 002548,-0.00010034,0.00008875,-0.00001761,-0.00011544,0.00004244,0.000
 11484,-0.00005327,0.00002062,-0.00038825,-0.00038232,-0.00045226,-0.37
 252845,-0.17023712,0.42650928,0.38587673,0.00012060,-0.00001330,-0.000
 17001,0.00000471,-0.00001349,-0.00015527,0.00012485,-0.00018157,0.0000
 9033,-0.00008996,0.00004313,0.00002404,-0.00010795,-0.00004266,-0.0000
 0675,-0.00012822,0.00019104,-0.00016230,0.00007918,0.00012538,-0.00004
 716,0.00012465,0.00002386,-0.00030873,0.00019399,-0.00009682,-0.000208
 67,-0.00036539,0.00007322,0.00003502,-0.00029852,-0.00025701,0.0001181
 2,0.00023361,0.00033101,0.00000514,0.00040892,-0.00012222,-0.00063187,
 0.00051160,0.00027055,0.00020275,-0.00036442,0.00023409,0.00003396,-0.
 00071869,-0.00113034,0.00010543,-0.02457624,0.01323343,0.01544636,-0.0
 0192503,0.00017508,-0.00015398,0.00017865,-0.00013782,0.00005273,0.000
 19283,0.00111773,0.00002190,-0.00139158,0.00044370,-0.00019854,0.00032
 261,0.00015187,-0.00025647,0.00047236,-0.00034357,0.00018549,0.0001202
 0,-0.00012610,-0.00008806,0.00094881,-0.00192265,0.00270640,0.00494358
 ,0.00200335,-0.00097278,-0.00007304,0.00015849,-0.00003766,-0.00014295
 ,-0.00001796,-0.00008809,0.00048844,-0.00066451,0.00006505,0.00004882,
 0.00001368,0.00001589,0.00004518,0.00007061,0.00000876,0.00009035,0.00
 005045,0.00001914,0.00007198,0.00012210,-0.00001143,0.00007021,0.00034
 920,0.00001685,-0.00002789,0.00002088,0.00006553,-0.00002554,0.0000169
 8,0.00006490,-0.00005560,-0.00007520,0.00007266,-0.00002367,-0.0000278
 7,0.00016704,-0.00004004,0.00001903,0.00011595,-0.00000963,0.00000104,
 0.00010846,-0.00001732,-0.00004748,0.00008263,-0.00001509,-0.00006254,
 0.00003448,0.00006126,-0.00002633,0.00001539,-0.00016588,-0.00023762,-
 0.00020082,-0.17050468,-0.13939954,0.22655494,0.19123936,0.12569823,-0
 .00027567,-0.00003126,0.00022800,-0.00002818,-0.00010278,0.00023494,-0
 .00014442,0.00023899,-0.00017559,0.00012216,-0.00001080,-0.00003829,0.
 00017199,-0.00004186,0.00002799,0.00014219,-0.00034744,0.00024395,-0.0
 0005702,-0.00023716,0.00009575,-0.00027057,-0.00018659,0.00045537,-0.0
 0027679,-0.00001437,0.00038666,0.00038350,-0.00027147,-0.00013322,0.00
 004640,0.00044764,-0.00008697,-0.00031801,-0.00032454,0.00018679,-0.00
 066618,-0.00030666,-0.00048810,-0.00090632,-0.00018344,-0.00084259,0.0
 0033427,-0.00035456,0.00028096,0.00046876,0.00086410,-0.00011234,0.035
 43952,0.01838761,-0.03883797,0.00251924,0.00009571,0.00041482,-0.00013
 483,0.00007512,-0.00008150,0.00068280,-0.00133625,-0.00042761,0.001677
 53,0.00170225,-0.00063513,0.00007615,-0.00033202,0.00007976,-0.0001575
 6,0.00048628,-0.00002365,-0.00022406,0.00012919,-0.00007126,-0.0023321
 5,0.00620996,0.00365697,0.00061913,-0.00530484,0.00330419,0.00006813,-
 0.00013046,0.00010157,0.00027460,0.00029984,-0.00012963,-0.00059430,0.
 00089257,-0.00005262,-0.00012815,-0.00004175,-0.00003687,-0.00013188,-
 0.00016579,-0.00001431,-0.00024804,-0.00016420,0.00000819,0.00034643,-
 0.00023959,-0.00006431,-0.00014579,-0.00076786,-0.00013359,-0.00000790
 ,-0.00007782,-0.00031216,0.00006999,-0.00004529,-0.00022787,0.00011393
 ,0.00015189,-0.00018931,0.00010507,0.00006933,-0.00025624,0.00012923,0
 .00000677,-0.00015556,0.00001624,0.00007497,-0.00016600,0.00002783,0.0
 0013655,-0.00013405,0.00001872,0.00015263,-0.00006944,-0.00014618,0.00
 006832,-0.00003670,0.00054088,0.00043915,0.00055352,0.42010994,0.22287
 911,-0.55789740,-0.45736214,-0.24272933,0.59161515||0.00000432,-0.0000
 0421,0.00000244,-0.00000217,0.00000564,-0.00001322,-0.00005925,-0.0000
 0371,-0.00000568,0.00004854,-0.00000950,-0.00001077,0.00002527,0.00003
 322,0.00003449,0.00000577,-0.00000850,0.00002213,-0.00000477,-0.000005
 19,-0.00001706,0.00000828,-0.00001289,0.00000626,0.00000262,-0.0000172
 2,0.00001888,-0.00000230,0.00003943,-0.00002165,-0.00000080,-0.0000424
 2,-0.00001107,-0.00000553,0.00001602,-0.00002139,0.00002628,-0.0000339
 6,0.00002816,-0.00005188,0.00004997,0.00000530,-0.00001045,0.00001204,
 0.00005333,-0.00002809,0.00002467,-0.00000410,-0.00043524,0.00024051,-
 0.00009071,0.00002700,-0.00001393,0.00000341,-0.00001174,0.00000055,0.
 00001529,-0.00007725,0.00003616,0.00002949,0.00002756,-0.00006277,-0.0
 0001561,0.00003414,0.00004070,0.00000614,0.00002857,0.00000991,-0.0000
 0923,-0.00001292,-0.00003741,0.00000180,0.00000784,-0.00004215,-0.0000
 2481,0.00001452,0.00001669,-0.00001340,0.00001350,-0.00004397,-0.00002
 183,0.00005502,0.00001397,-0.00003137,0.00002527,0.00005955,0.00001619
 ,-0.00000087,0.00000363,0.00000427,-0.00001876,-0.00000194,0.00000858,
 -0.00003600,-0.00001359,-0.00000527,0.00000087,-0.00001125,0.00000549,
 -0.00000709,0.00001169,-0.00000033,-0.00000063,0.00000161,-0.00001174,
 -0.00000507,0.00000131,0.00000430,-0.00000133,0.00000142,-0.00000978,0
 .00000082,-0.00000105,-0.00000414,0.00000013,0.00000059,-0.00000168,-0
 .00000122,-0.00000443,0.00000531,0.00000065,0.00000171,-0.00000576,-0.
 00000166,-0.00000052,0.00000248,-0.00001939,-0.00000122,-0.00000849,0.
 00001543,-0.00004533,-0.00002496,0.00081589,-0.00045762,0.00029608,-0.
 00039387,0.00025378,-0.00018577|||@


 HE THAT RISETH LATE MUST TROT ALL DAY.

                  -- BENJAMIN FRANKLIN
 Job cpu time:       0 days  0 hours  0 minutes 16.0 seconds.
 File lengths (MBytes):  RWF=    857 Int=      0 D2E=      0 Chk=      6 Scr=      1
 Normal termination of Gaussian 09 at Sun Mar 15 22:37:58 2026.
