 Entering Link 1 = C:\Gaussian\G09W\l1.exe PID=     26152.
  
 Copyright (c) 1988,1990,1992,1993,1995,1998,2003,2009,2013,
            Gaussian, Inc.  All Rights Reserved.
  
 This is part of the Gaussian(R) 09 program.  It is based on
 the Gaussian(R) 03 system (copyright 2003, Gaussian, Inc.),
 the Gaussian(R) 98 system (copyright 1998, Gaussian, Inc.),
 the Gaussian(R) 94 system (copyright 1995, Gaussian, Inc.),
 the Gaussian 92(TM) system (copyright 1992, Gaussian, Inc.),
 the Gaussian 90(TM) system (copyright 1990, Gaussian, Inc.),
 the Gaussian 88(TM) system (copyright 1988, Gaussian, Inc.),
 the Gaussian 86(TM) system (copyright 1986, Carnegie Mellon
 University), and the Gaussian 82(TM) system (copyright 1983,
 Carnegie Mellon University). Gaussian is a federally registered
 trademark of Gaussian, Inc.
  
 This software contains proprietary and confidential information,
 including trade secrets, belonging to Gaussian, Inc.
  
 This software is provided under written license and may be
 used, copied, transmitted, or stored only in accord with that
 written license.
  
 The following legend is applicable only to US Government
 contracts under FAR:
  
                    RESTRICTED RIGHTS LEGEND
  
 Use, reproduction and disclosure by the US Government is
 subject to restrictions as set forth in subparagraphs (a)
 and (c) of the Commercial Computer Software - Restricted
 Rights clause in FAR 52.227-19.
  
 Gaussian, Inc.
 340 Quinnipiac St., Bldg. 40, Wallingford CT 06492
  
  
 ---------------------------------------------------------------
 Warning -- This program may not be used in any manner that
 competes with the business of Gaussian, Inc. or will provide
 assistance to any competitor of Gaussian, Inc.  The licensee
 of this program is prohibited from giving any competitor of
 Gaussian, Inc. access to this program.  By using this program,
 the user acknowledges that Gaussian, Inc. is engaged in the
 business of creating and licensing software in the field of
 computational chemistry and represents and warrants to the
 licensee that it is not a competitor of Gaussian, Inc. and that
 it will not use this program in any manner prohibited above.
 ---------------------------------------------------------------
  

 Cite this work as:
 Gaussian 09, Revision D.01,
 M. J. Frisch, G. W. Trucks, H. B. Schlegel, G. E. Scuseria, 
 M. A. Robb, J. R. Cheeseman, G. Scalmani, V. Barone, B. Mennucci, 
 G. A. Petersson, H. Nakatsuji, M. Caricato, X. Li, H. P. Hratchian, 
 A. F. Izmaylov, J. Bloino, G. Zheng, J. L. Sonnenberg, M. Hada, 
 M. Ehara, K. Toyota, R. Fukuda, J. Hasegawa, M. Ishida, T. Nakajima, 
 Y. Honda, O. Kitao, H. Nakai, T. Vreven, J. A. Montgomery, Jr., 
 J. E. Peralta, F. Ogliaro, M. Bearpark, J. J. Heyd, E. Brothers, 
 K. N. Kudin, V. N. Staroverov, T. Keith, R. Kobayashi, J. Normand, 
 K. Raghavachari, A. Rendell, J. C. Burant, S. S. Iyengar, J. Tomasi, 
 M. Cossi, N. Rega, J. M. Millam, M. Klene, J. E. Knox, J. B. Cross, 
 V. Bakken, C. Adamo, J. Jaramillo, R. Gomperts, R. E. Stratmann, 
 O. Yazyev, A. J. Austin, R. Cammi, C. Pomelli, J. W. Ochterski, 
 R. L. Martin, K. Morokuma, V. G. Zakrzewski, G. A. Voth, 
 P. Salvador, J. J. Dannenberg, S. Dapprich, A. D. Daniels, 
 O. Farkas, J. B. Foresman, J. V. Ortiz, J. Cioslowski, 
 and D. J. Fox, Gaussian, Inc., Wallingford CT, 2013.
 
 ******************************************
 Gaussian 09:  IA32W-G09RevD.01 24-Apr-2013
                12-Mar-2026 
 ******************************************
 %chk=C:\Users\User\Desktop\IMRG\ECE+ML\Fe_Gr_NS_CO.chk
 ---------------------------------------
 # opt freq pm6 scf=qc geom=connectivity
 ---------------------------------------
 1/14=-1,18=20,19=15,26=1,38=1,57=2/1,3;
 2/9=110,12=2,17=6,18=5,40=1/2;
 3/5=2,16=1,25=1,41=3900000,71=1/1,2,3;
 4/35=1/1;
 5/5=2,8=3,35=1,38=5/8;
 6/7=2,8=2,9=2,10=2,28=1/1;
 7//1,2,3,16;
 1/14=-1,18=20,19=15,26=1/3(2);
 2/9=110/2;
 99//99;
 2/9=110/2;
 3/5=2,16=1,25=1,41=3900000,71=1,135=20/1,2,3;
 4/5=5,16=3,35=1/1;
 5/5=2,8=3,35=1,38=5/8;
 7//1,2,3,16;
 1/14=-1,18=20,19=15,26=1/3(-5);
 2/9=110/2;
 6/7=2,8=2,9=2,10=2,19=2,28=1/1;
 99/9=1/99;
 -----------
 Fe_Gr_NS_CO
 -----------
 Symbolic Z-matrix:
 Charge =  0 Multiplicity = 1
 C                    -1.48734   1.25527   0. 
 C                    -0.11458   1.26757   0.00021 
 C                     0.63784   2.49562   0.00024 
 C                     2.76155   3.73782  -0.0001 
 C                     4.87637   4.98541  -0.00058 
 C                     2.0603    2.51615  -0.00001 
 C                     4.19236   3.77104  -0.00038 
 C                    -3.68033   2.52318  -0.00036 
 C                    -5.85442   3.76459  -0.00032 
 C                    -2.22717   2.49171  -0.00016 
 C                    -4.4314    3.73294  -0.00038 
 C                    -6.52317   4.98925  -0.00022 
 C                    -1.49723   3.66543   0.00004 
 C                    -3.77063   4.98776  -0.00006 
 C                    -5.83173   6.21539  -0.00016 
 C                     0.61876   4.98443   0.00024 
 C                    -1.48853   6.30241   0.00019 
 C                    -3.64606   7.47395  -0.00004 
 C                     2.76334   6.23383  -0.00007 
 C                     0.64426   7.4887    0.0001 
 C                    -1.48605   8.7395   -0.00011 
 C                    -0.07268   3.72258   0.00025 
 C                    -4.42338   6.2256   -0.00018 
 C                     2.03942   4.98572   0.00009 
 C                    -0.08682   6.24592   0.00026 
 C                    -2.24783   7.50962   0.00012 
 C                     4.18329   6.20584  -0.00024 
 C                     2.05117   7.46407  -0.0001 
 C                    -0.10808   8.71832  -0.00011 
 H                     4.73683   7.14171  -0.00013 
 H                     2.60821   8.39816  -0.00027 
 H                     0.45062   9.65387  -0.00038 
 H                    -2.02415   9.68484  -0.0001 
 H                    -4.21082   8.4023   -0.00019 
 H                    -6.39162   7.1481   -0.0001 
 H                    -7.61353   5.00188  -0.00006 
 H                    -6.41745   2.83421  -0.00027 
 H                    -4.20834   1.57407  -0.00036 
 H                    -2.035     0.31468   0.00008 
 H                     0.44259   0.33017   0.00001 
 H                     2.60785   1.57708  -0.00018 
 H                     4.74181   2.8329   -0.00058 
 H                     5.96597   4.99136  -0.0008 
 Fe                   -2.25175   4.98582   0.00002 
 C                    -0.87168   5.19809  -0.00006 
 O                    -0.87168   5.19809   1.13956 
 
 Add virtual bond connecting atoms C45        and C17        Dist= 2.39D+00.
 Add virtual bond connecting atoms C45        and C25        Dist= 2.47D+00.
 Add virtual bond connecting atoms C45        and Fe44       Dist= 2.64D+00.

 GradGradGradGradGradGradGradGradGradGradGradGradGradGradGradGradGradGrad
 Berny optimization.
 Initialization pass.
                           ----------------------------
                           !    Initial Parameters    !
                           ! (Angstroms and Degrees)  !
 --------------------------                            --------------------------
 ! Name  Definition              Value          Derivative Info.                !
 --------------------------------------------------------------------------------
 ! R1    R(1,2)                  1.3728         estimate D2E/DX2                !
 ! R2    R(1,10)                 1.4409         estimate D2E/DX2                !
 ! R3    R(1,39)                 1.0884         estimate D2E/DX2                !
 ! R4    R(2,3)                  1.4402         estimate D2E/DX2                !
 ! R5    R(2,40)                 1.0905         estimate D2E/DX2                !
 ! R6    R(3,6)                  1.4226         estimate D2E/DX2                !
 ! R7    R(3,22)                 1.4178         estimate D2E/DX2                !
 ! R8    R(4,6)                  1.4086         estimate D2E/DX2                !
 ! R9    R(4,7)                  1.4312         estimate D2E/DX2                !
 ! R10   R(4,24)                 1.4418         estimate D2E/DX2                !
 ! R11   R(5,7)                  1.3938         estimate D2E/DX2                !
 ! R12   R(5,27)                 1.4035         estimate D2E/DX2                !
 ! R13   R(5,43)                 1.0896         estimate D2E/DX2                !
 ! R14   R(6,41)                 1.087          estimate D2E/DX2                !
 ! R15   R(7,42)                 1.0872         estimate D2E/DX2                !
 ! R16   R(8,10)                 1.4535         estimate D2E/DX2                !
 ! R17   R(8,11)                 1.4239         estimate D2E/DX2                !
 ! R18   R(8,38)                 1.0861         estimate D2E/DX2                !
 ! R19   R(9,11)                 1.4234         estimate D2E/DX2                !
 ! R20   R(9,12)                 1.3954         estimate D2E/DX2                !
 ! R21   R(9,37)                 1.0875         estimate D2E/DX2                !
 ! R22   R(10,13)                1.3822         estimate D2E/DX2                !
 ! R23   R(11,14)                1.4182         estimate D2E/DX2                !
 ! R24   R(12,15)                1.4077         estimate D2E/DX2                !
 ! R25   R(12,36)                1.0904         estimate D2E/DX2                !
 ! R26   R(13,22)                1.4257         estimate D2E/DX2                !
 ! R27   R(13,44)                1.5208         estimate D2E/DX2                !
 ! R28   R(14,23)                1.3994         estimate D2E/DX2                !
 ! R29   R(14,44)                1.5189         estimate D2E/DX2                !
 ! R30   R(15,23)                1.4084         estimate D2E/DX2                !
 ! R31   R(15,35)                1.0879         estimate D2E/DX2                !
 ! R32   R(16,22)                1.4389         estimate D2E/DX2                !
 ! R33   R(16,24)                1.4207         estimate D2E/DX2                !
 ! R34   R(16,25)                1.4454         estimate D2E/DX2                !
 ! R35   R(17,25)                1.4028         estimate D2E/DX2                !
 ! R36   R(17,26)                1.4261         estimate D2E/DX2                !
 ! R37   R(17,44)                1.5218         estimate D2E/DX2                !
 ! R38   R(17,45)                1.2649         estimate D2E/DX2                !
 ! R39   R(18,23)                1.4706         estimate D2E/DX2                !
 ! R40   R(18,26)                1.3987         estimate D2E/DX2                !
 ! R41   R(18,34)                1.0866         estimate D2E/DX2                !
 ! R42   R(19,24)                1.4429         estimate D2E/DX2                !
 ! R43   R(19,27)                1.4202         estimate D2E/DX2                !
 ! R44   R(19,28)                1.4215         estimate D2E/DX2                !
 ! R45   R(20,25)                1.4419         estimate D2E/DX2                !
 ! R46   R(20,28)                1.4071         estimate D2E/DX2                !
 ! R47   R(20,29)                1.4415         estimate D2E/DX2                !
 ! R48   R(21,26)                1.4467         estimate D2E/DX2                !
 ! R49   R(21,29)                1.3781         estimate D2E/DX2                !
 ! R50   R(21,33)                1.0878         estimate D2E/DX2                !
 ! R51   R(25,45)                1.3092         estimate D2E/DX2                !
 ! R52   R(27,30)                1.0873         estimate D2E/DX2                !
 ! R53   R(28,31)                1.0876         estimate D2E/DX2                !
 ! R54   R(29,32)                1.0897         estimate D2E/DX2                !
 ! R55   R(44,45)                1.3963         estimate D2E/DX2                !
 ! R56   R(45,46)                1.1396         estimate D2E/DX2                !
 ! A1    A(2,1,10)             120.3811         estimate D2E/DX2                !
 ! A2    A(2,1,39)             120.7234         estimate D2E/DX2                !
 ! A3    A(10,1,39)            118.8954         estimate D2E/DX2                !
 ! A4    A(1,2,3)              122.0091         estimate D2E/DX2                !
 ! A5    A(1,2,40)             120.2126         estimate D2E/DX2                !
 ! A6    A(3,2,40)             117.7783         estimate D2E/DX2                !
 ! A7    A(2,3,6)              122.323          estimate D2E/DX2                !
 ! A8    A(2,3,22)             118.4295         estimate D2E/DX2                !
 ! A9    A(6,3,22)             119.2474         estimate D2E/DX2                !
 ! A10   A(6,4,7)              121.1867         estimate D2E/DX2                !
 ! A11   A(6,4,24)             120.0864         estimate D2E/DX2                !
 ! A12   A(7,4,24)             118.7269         estimate D2E/DX2                !
 ! A13   A(7,5,27)             121.017          estimate D2E/DX2                !
 ! A14   A(7,5,43)             119.7036         estimate D2E/DX2                !
 ! A15   A(27,5,43)            119.2794         estimate D2E/DX2                !
 ! A16   A(3,6,4)              120.6839         estimate D2E/DX2                !
 ! A17   A(3,6,41)             119.4183         estimate D2E/DX2                !
 ! A18   A(4,6,41)             119.8978         estimate D2E/DX2                !
 ! A19   A(4,7,5)              120.7208         estimate D2E/DX2                !
 ! A20   A(4,7,42)             119.0266         estimate D2E/DX2                !
 ! A21   A(5,7,42)             120.2526         estimate D2E/DX2                !
 ! A22   A(10,8,11)            123.0746         estimate D2E/DX2                !
 ! A23   A(10,8,38)            117.8469         estimate D2E/DX2                !
 ! A24   A(11,8,38)            119.0785         estimate D2E/DX2                !
 ! A25   A(11,9,12)            119.9113         estimate D2E/DX2                !
 ! A26   A(11,9,37)            119.9067         estimate D2E/DX2                !
 ! A27   A(12,9,37)            120.182          estimate D2E/DX2                !
 ! A28   A(1,10,8)             122.1353         estimate D2E/DX2                !
 ! A29   A(1,10,13)            117.2279         estimate D2E/DX2                !
 ! A30   A(8,10,13)            120.6368         estimate D2E/DX2                !
 ! A31   A(8,11,9)             123.1078         estimate D2E/DX2                !
 ! A32   A(8,11,14)            120.3955         estimate D2E/DX2                !
 ! A33   A(9,11,14)            116.4967         estimate D2E/DX2                !
 ! A34   A(9,12,15)            121.9432         estimate D2E/DX2                !
 ! A35   A(9,12,36)            119.3009         estimate D2E/DX2                !
 ! A36   A(15,12,36)           118.7559         estimate D2E/DX2                !
 ! A37   A(10,13,22)           124.1752         estimate D2E/DX2                !
 ! A38   A(10,13,44)           118.3771         estimate D2E/DX2                !
 ! A39   A(22,13,44)           117.4477         estimate D2E/DX2                !
 ! A40   A(11,14,23)           124.4256         estimate D2E/DX2                !
 ! A41   A(11,14,44)           117.6975         estimate D2E/DX2                !
 ! A42   A(23,14,44)           117.8769         estimate D2E/DX2                !
 ! A43   A(12,15,23)           119.8349         estimate D2E/DX2                !
 ! A44   A(12,15,35)           119.6049         estimate D2E/DX2                !
 ! A45   A(23,15,35)           120.5602         estimate D2E/DX2                !
 ! A46   A(22,16,24)           118.7733         estimate D2E/DX2                !
 ! A47   A(22,16,25)           122.0594         estimate D2E/DX2                !
 ! A48   A(24,16,25)           119.1674         estimate D2E/DX2                !
 ! A49   A(25,17,26)           124.4765         estimate D2E/DX2                !
 ! A50   A(25,17,44)           117.7927         estimate D2E/DX2                !
 ! A51   A(26,17,44)           117.7308         estimate D2E/DX2                !
 ! A52   A(23,18,26)           123.3713         estimate D2E/DX2                !
 ! A53   A(23,18,34)           116.7761         estimate D2E/DX2                !
 ! A54   A(26,18,34)           119.8525         estimate D2E/DX2                !
 ! A55   A(24,19,27)           118.9848         estimate D2E/DX2                !
 ! A56   A(24,19,28)           119.8195         estimate D2E/DX2                !
 ! A57   A(27,19,28)           121.1957         estimate D2E/DX2                !
 ! A58   A(25,20,28)           119.4641         estimate D2E/DX2                !
 ! A59   A(25,20,29)           118.073          estimate D2E/DX2                !
 ! A60   A(28,20,29)           122.4629         estimate D2E/DX2                !
 ! A61   A(26,21,29)           120.8936         estimate D2E/DX2                !
 ! A62   A(26,21,33)           118.5771         estimate D2E/DX2                !
 ! A63   A(29,21,33)           120.5293         estimate D2E/DX2                !
 ! A64   A(3,22,13)            117.777          estimate D2E/DX2                !
 ! A65   A(3,22,16)            121.2041         estimate D2E/DX2                !
 ! A66   A(13,22,16)           121.0189         estimate D2E/DX2                !
 ! A67   A(14,23,15)           117.3883         estimate D2E/DX2                !
 ! A68   A(14,23,18)           120.2865         estimate D2E/DX2                !
 ! A69   A(15,23,18)           122.3252         estimate D2E/DX2                !
 ! A70   A(4,24,16)            120.005          estimate D2E/DX2                !
 ! A71   A(4,24,19)            119.8289         estimate D2E/DX2                !
 ! A72   A(16,24,19)           120.1662         estimate D2E/DX2                !
 ! A73   A(16,25,17)           121.5273         estimate D2E/DX2                !
 ! A74   A(16,25,20)           120.3138         estimate D2E/DX2                !
 ! A75   A(16,25,45)            66.0538         estimate D2E/DX2                !
 ! A76   A(17,25,20)           118.159          estimate D2E/DX2                !
 ! A77   A(17,26,18)           120.707          estimate D2E/DX2                !
 ! A78   A(17,26,21)           116.0575         estimate D2E/DX2                !
 ! A79   A(18,26,21)           123.2355         estimate D2E/DX2                !
 ! A80   A(5,27,19)            120.7216         estimate D2E/DX2                !
 ! A81   A(5,27,30)            119.8045         estimate D2E/DX2                !
 ! A82   A(19,27,30)           119.4739         estimate D2E/DX2                !
 ! A83   A(19,28,20)           121.0692         estimate D2E/DX2                !
 ! A84   A(19,28,31)           119.1239         estimate D2E/DX2                !
 ! A85   A(20,28,31)           119.8069         estimate D2E/DX2                !
 ! A86   A(20,29,21)           122.3405         estimate D2E/DX2                !
 ! A87   A(20,29,32)           117.6945         estimate D2E/DX2                !
 ! A88   A(21,29,32)           119.965          estimate D2E/DX2                !
 ! A89   A(13,44,14)           119.8184         estimate D2E/DX2                !
 ! A90   A(13,44,17)           120.1541         estimate D2E/DX2                !
 ! A91   A(13,44,45)            68.999          estimate D2E/DX2                !
 ! A92   A(14,44,17)           120.0275         estimate D2E/DX2                !
 ! A93   A(17,45,46)            89.9885         estimate D2E/DX2                !
 ! A94   A(25,45,44)           135.5786         estimate D2E/DX2                !
 ! A95   A(25,45,46)            89.9857         estimate D2E/DX2                !
 ! A96   A(44,45,46)            89.9967         estimate D2E/DX2                !
 ! A97   L(26,17,45,9,-1)      177.0182         estimate D2E/DX2                !
 ! A98   L(20,25,45,16,-1)     186.3676         estimate D2E/DX2                !
 ! A99   L(14,44,45,13,-1)     188.8174         estimate D2E/DX2                !
 ! A100  L(26,17,45,9,-2)      179.9863         estimate D2E/DX2                !
 ! A101  L(20,25,45,16,-2)     180.0234         estimate D2E/DX2                !
 ! A102  L(14,44,45,13,-2)     179.9931         estimate D2E/DX2                !
 ! D1    D(10,1,2,3)            -0.0025         estimate D2E/DX2                !
 ! D2    D(10,1,2,40)         -179.9806         estimate D2E/DX2                !
 ! D3    D(39,1,2,3)          -179.9941         estimate D2E/DX2                !
 ! D4    D(39,1,2,40)            0.0278         estimate D2E/DX2                !
 ! D5    D(2,1,10,8)          -179.9988         estimate D2E/DX2                !
 ! D6    D(2,1,10,13)           -0.0059         estimate D2E/DX2                !
 ! D7    D(39,1,10,8)           -0.0071         estimate D2E/DX2                !
 ! D8    D(39,1,10,13)         179.9859         estimate D2E/DX2                !
 ! D9    D(1,2,3,6)           -179.9775         estimate D2E/DX2                !
 ! D10   D(1,2,3,22)             0.0102         estimate D2E/DX2                !
 ! D11   D(40,2,3,6)             0.0012         estimate D2E/DX2                !
 ! D12   D(40,2,3,22)          179.9889         estimate D2E/DX2                !
 ! D13   D(2,3,6,4)            179.9947         estimate D2E/DX2                !
 ! D14   D(2,3,6,41)            -0.0032         estimate D2E/DX2                !
 ! D15   D(22,3,6,4)             0.0071         estimate D2E/DX2                !
 ! D16   D(22,3,6,41)         -179.9908         estimate D2E/DX2                !
 ! D17   D(2,3,22,13)           -0.0093         estimate D2E/DX2                !
 ! D18   D(2,3,22,16)         -179.9984         estimate D2E/DX2                !
 ! D19   D(6,3,22,13)          179.9788         estimate D2E/DX2                !
 ! D20   D(6,3,22,16)           -0.0104         estimate D2E/DX2                !
 ! D21   D(7,4,6,3)           -179.9983         estimate D2E/DX2                !
 ! D22   D(7,4,6,41)            -0.0004         estimate D2E/DX2                !
 ! D23   D(24,4,6,3)             0.0005         estimate D2E/DX2                !
 ! D24   D(24,4,6,41)          179.9984         estimate D2E/DX2                !
 ! D25   D(6,4,7,5)            179.9946         estimate D2E/DX2                !
 ! D26   D(6,4,7,42)             0.0023         estimate D2E/DX2                !
 ! D27   D(24,4,7,5)            -0.0043         estimate D2E/DX2                !
 ! D28   D(24,4,7,42)         -179.9966         estimate D2E/DX2                !
 ! D29   D(6,4,24,16)           -0.0051         estimate D2E/DX2                !
 ! D30   D(6,4,24,19)         -179.9968         estimate D2E/DX2                !
 ! D31   D(7,4,24,16)          179.9938         estimate D2E/DX2                !
 ! D32   D(7,4,24,19)            0.0021         estimate D2E/DX2                !
 ! D33   D(27,5,7,4)             0.0119         estimate D2E/DX2                !
 ! D34   D(27,5,7,42)         -179.9959         estimate D2E/DX2                !
 ! D35   D(43,5,7,4)          -179.9999         estimate D2E/DX2                !
 ! D36   D(43,5,7,42)           -0.0077         estimate D2E/DX2                !
 ! D37   D(7,5,27,19)           -0.0173         estimate D2E/DX2                !
 ! D38   D(7,5,27,30)          179.9838         estimate D2E/DX2                !
 ! D39   D(43,5,27,19)         179.9944         estimate D2E/DX2                !
 ! D40   D(43,5,27,30)          -0.0044         estimate D2E/DX2                !
 ! D41   D(11,8,10,1)          179.9932         estimate D2E/DX2                !
 ! D42   D(11,8,10,13)           0.0005         estimate D2E/DX2                !
 ! D43   D(38,8,10,1)            0.002          estimate D2E/DX2                !
 ! D44   D(38,8,10,13)        -179.9907         estimate D2E/DX2                !
 ! D45   D(10,8,11,9)         -179.9875         estimate D2E/DX2                !
 ! D46   D(10,8,11,14)          -0.0059         estimate D2E/DX2                !
 ! D47   D(38,8,11,9)            0.0036         estimate D2E/DX2                !
 ! D48   D(38,8,11,14)         179.9852         estimate D2E/DX2                !
 ! D49   D(12,9,11,8)          179.9943         estimate D2E/DX2                !
 ! D50   D(12,9,11,14)           0.012          estimate D2E/DX2                !
 ! D51   D(37,9,11,8)           -0.0011         estimate D2E/DX2                !
 ! D52   D(37,9,11,14)        -179.9834         estimate D2E/DX2                !
 ! D53   D(11,9,12,15)          -0.0008         estimate D2E/DX2                !
 ! D54   D(11,9,12,36)        -179.9935         estimate D2E/DX2                !
 ! D55   D(37,9,12,15)         179.9946         estimate D2E/DX2                !
 ! D56   D(37,9,12,36)           0.0019         estimate D2E/DX2                !
 ! D57   D(1,10,13,22)           0.0067         estimate D2E/DX2                !
 ! D58   D(1,10,13,44)        -179.9942         estimate D2E/DX2                !
 ! D59   D(8,10,13,22)         179.9997         estimate D2E/DX2                !
 ! D60   D(8,10,13,44)          -0.0012         estimate D2E/DX2                !
 ! D61   D(8,11,14,23)         179.9937         estimate D2E/DX2                !
 ! D62   D(8,11,14,44)           0.0113         estimate D2E/DX2                !
 ! D63   D(9,11,14,23)          -0.0235         estimate D2E/DX2                !
 ! D64   D(9,11,14,44)         179.9941         estimate D2E/DX2                !
 ! D65   D(9,12,15,23)          -0.0008         estimate D2E/DX2                !
 ! D66   D(9,12,15,35)         179.9989         estimate D2E/DX2                !
 ! D67   D(36,12,15,23)        179.9919         estimate D2E/DX2                !
 ! D68   D(36,12,15,35)         -0.0083         estimate D2E/DX2                !
 ! D69   D(10,13,22,3)           0.001          estimate D2E/DX2                !
 ! D70   D(10,13,22,16)        179.9902         estimate D2E/DX2                !
 ! D71   D(44,13,22,3)        -179.9981         estimate D2E/DX2                !
 ! D72   D(44,13,22,16)         -0.0089         estimate D2E/DX2                !
 ! D73   D(10,13,44,14)          0.0069         estimate D2E/DX2                !
 ! D74   D(10,13,44,17)       -179.9981         estimate D2E/DX2                !
 ! D75   D(10,13,44,45)       -179.9861         estimate D2E/DX2                !
 ! D76   D(22,13,44,14)       -179.9939         estimate D2E/DX2                !
 ! D77   D(22,13,44,17)          0.001          estimate D2E/DX2                !
 ! D78   D(22,13,44,45)          0.013          estimate D2E/DX2                !
 ! D79   D(11,14,23,15)          0.0221         estimate D2E/DX2                !
 ! D80   D(11,14,23,18)       -179.9904         estimate D2E/DX2                !
 ! D81   D(44,14,23,15)       -179.9955         estimate D2E/DX2                !
 ! D82   D(44,14,23,18)         -0.008          estimate D2E/DX2                !
 ! D83   D(11,14,44,13)         -0.012          estimate D2E/DX2                !
 ! D84   D(11,14,44,17)        179.993          estimate D2E/DX2                !
 ! D85   D(23,14,44,13)       -179.9956         estimate D2E/DX2                !
 ! D86   D(23,14,44,17)          0.0095         estimate D2E/DX2                !
 ! D87   D(11,14,45,25)       -179.9959         estimate D2E/DX2                !
 ! D88   D(11,14,45,46)        -90.0149         estimate D2E/DX2                !
 ! D89   D(23,14,45,25)          0.0241         estimate D2E/DX2                !
 ! D90   D(23,14,45,46)         90.0052         estimate D2E/DX2                !
 ! D91   D(12,15,23,14)         -0.0092         estimate D2E/DX2                !
 ! D92   D(12,15,23,18)       -179.9964         estimate D2E/DX2                !
 ! D93   D(35,15,23,14)        179.991          estimate D2E/DX2                !
 ! D94   D(35,15,23,18)          0.0039         estimate D2E/DX2                !
 ! D95   D(24,16,22,3)           0.0059         estimate D2E/DX2                !
 ! D96   D(24,16,22,13)       -179.9829         estimate D2E/DX2                !
 ! D97   D(25,16,22,3)        -179.9999         estimate D2E/DX2                !
 ! D98   D(25,16,22,13)          0.0113         estimate D2E/DX2                !
 ! D99   D(22,16,24,4)           0.0019         estimate D2E/DX2                !
 ! D100  D(22,16,24,19)        179.9936         estimate D2E/DX2                !
 ! D101  D(25,16,24,4)        -179.9925         estimate D2E/DX2                !
 ! D102  D(25,16,24,19)         -0.0008         estimate D2E/DX2                !
 ! D103  D(22,16,25,17)         -0.005          estimate D2E/DX2                !
 ! D104  D(22,16,25,20)       -179.9929         estimate D2E/DX2                !
 ! D105  D(22,16,25,45)         -0.0163         estimate D2E/DX2                !
 ! D106  D(24,16,25,17)        179.9893         estimate D2E/DX2                !
 ! D107  D(24,16,25,20)          0.0013         estimate D2E/DX2                !
 ! D108  D(24,16,25,45)        179.9779         estimate D2E/DX2                !
 ! D109  D(26,17,25,16)       -179.9962         estimate D2E/DX2                !
 ! D110  D(26,17,25,20)         -0.008          estimate D2E/DX2                !
 ! D111  D(44,17,25,16)         -0.003          estimate D2E/DX2                !
 ! D112  D(44,17,25,20)        179.9852         estimate D2E/DX2                !
 ! D113  D(25,17,26,18)        179.9954         estimate D2E/DX2                !
 ! D114  D(25,17,26,21)          0.0108         estimate D2E/DX2                !
 ! D115  D(44,17,26,18)          0.0021         estimate D2E/DX2                !
 ! D116  D(44,17,26,21)       -179.9825         estimate D2E/DX2                !
 ! D117  D(28,20,45,44)       -179.9961         estimate D2E/DX2                !
 ! D118  D(28,20,45,46)         90.0115         estimate D2E/DX2                !
 ! D119  D(29,20,45,44)         -0.0183         estimate D2E/DX2                !
 ! D120  D(29,20,45,46)        -90.0107         estimate D2E/DX2                !
 ! D121  D(18,26,45,46)        -90.0102         estimate D2E/DX2                !
 ! D122  D(21,26,45,46)         90.0124         estimate D2E/DX2                !
 ! D123  D(25,17,44,13)          0.0049         estimate D2E/DX2                !
 ! D124  D(25,17,44,14)        179.9998         estimate D2E/DX2                !
 ! D125  D(26,17,44,13)        179.9986         estimate D2E/DX2                !
 ! D126  D(26,17,44,14)         -0.0065         estimate D2E/DX2                !
 ! D127  D(26,18,23,14)          0.0039         estimate D2E/DX2                !
 ! D128  D(26,18,23,15)        179.9907         estimate D2E/DX2                !
 ! D129  D(34,18,23,14)        179.9976         estimate D2E/DX2                !
 ! D130  D(34,18,23,15)         -0.0156         estimate D2E/DX2                !
 ! D131  D(23,18,26,17)         -0.0007         estimate D2E/DX2                !
 ! D132  D(23,18,26,21)        179.9827         estimate D2E/DX2                !
 ! D133  D(34,18,26,17)       -179.9942         estimate D2E/DX2                !
 ! D134  D(34,18,26,21)         -0.0107         estimate D2E/DX2                !
 ! D135  D(27,19,24,4)          -0.0072         estimate D2E/DX2                !
 ! D136  D(27,19,24,16)       -179.999          estimate D2E/DX2                !
 ! D137  D(28,19,24,4)         179.9902         estimate D2E/DX2                !
 ! D138  D(28,19,24,16)         -0.0015         estimate D2E/DX2                !
 ! D139  D(24,19,27,5)           0.0148         estimate D2E/DX2                !
 ! D140  D(24,19,27,30)       -179.9864         estimate D2E/DX2                !
 ! D141  D(28,19,27,5)        -179.9826         estimate D2E/DX2                !
 ! D142  D(28,19,27,30)          0.0163         estimate D2E/DX2                !
 ! D143  D(24,19,28,20)          0.0035         estimate D2E/DX2                !
 ! D144  D(24,19,28,31)       -179.9967         estimate D2E/DX2                !
 ! D145  D(27,19,28,20)       -179.9991         estimate D2E/DX2                !
 ! D146  D(27,19,28,31)          0.0007         estimate D2E/DX2                !
 ! D147  D(28,20,25,16)          0.0006         estimate D2E/DX2                !
 ! D148  D(28,20,25,17)       -179.9877         estimate D2E/DX2                !
 ! D149  D(29,20,25,16)        179.9894         estimate D2E/DX2                !
 ! D150  D(29,20,25,17)          0.0011         estimate D2E/DX2                !
 ! D151  D(25,20,28,19)         -0.003          estimate D2E/DX2                !
 ! D152  D(25,20,28,31)        179.9972         estimate D2E/DX2                !
 ! D153  D(29,20,28,19)       -179.9913         estimate D2E/DX2                !
 ! D154  D(29,20,28,31)          0.0089         estimate D2E/DX2                !
 ! D155  D(25,20,29,21)          0.0025         estimate D2E/DX2                !
 ! D156  D(25,20,29,32)       -179.9913         estimate D2E/DX2                !
 ! D157  D(28,20,29,21)        179.991          estimate D2E/DX2                !
 ! D158  D(28,20,29,32)         -0.0029         estimate D2E/DX2                !
 ! D159  D(29,21,26,17)         -0.0068         estimate D2E/DX2                !
 ! D160  D(29,21,26,18)       -179.9909         estimate D2E/DX2                !
 ! D161  D(33,21,26,17)       -179.9966         estimate D2E/DX2                !
 ! D162  D(33,21,26,18)          0.0193         estimate D2E/DX2                !
 ! D163  D(26,21,29,20)          0.0005         estimate D2E/DX2                !
 ! D164  D(26,21,29,32)        179.9942         estimate D2E/DX2                !
 ! D165  D(33,21,29,20)        179.9901         estimate D2E/DX2                !
 ! D166  D(33,21,29,32)         -0.0162         estimate D2E/DX2                !
 ! D167  D(16,25,45,44)        179.9751         estimate D2E/DX2                !
 ! D168  D(16,25,45,46)         89.9945         estimate D2E/DX2                !
 ! D169  D(13,44,45,25)       -179.9739         estimate D2E/DX2                !
 ! D170  D(13,44,45,46)        -89.9977         estimate D2E/DX2                !
 --------------------------------------------------------------------------------
 Trust Radius=3.00D-01 FncErr=1.00D-07 GrdErr=1.00D-07
 Number of steps in this run=    276 maximum allowed number of steps=    276.
 GradGradGradGradGradGradGradGradGradGradGradGradGradGradGradGradGradGrad

                          Input orientation:                          
 ---------------------------------------------------------------------
 Center     Atomic      Atomic             Coordinates (Angstroms)
 Number     Number       Type             X           Y           Z
 ---------------------------------------------------------------------
      1          6           0       -1.487342    1.255274    0.000000
      2          6           0       -0.114579    1.267573    0.000214
      3          6           0        0.637842    2.495615    0.000237
      4          6           0        2.761554    3.737816   -0.000096
      5          6           0        4.876369    4.985412   -0.000577
      6          6           0        2.060297    2.516154   -0.000014
      7          6           0        4.192364    3.771038   -0.000385
      8          6           0       -3.680332    2.523182   -0.000361
      9          6           0       -5.854424    3.764586   -0.000316
     10          6           0       -2.227169    2.491707   -0.000158
     11          6           0       -4.431403    3.732940   -0.000377
     12          6           0       -6.523170    4.989254   -0.000217
     13          6           0       -1.497229    3.665426    0.000042
     14          6           0       -3.770635    4.987756   -0.000065
     15          6           0       -5.831731    6.215386   -0.000158
     16          6           0        0.618765    4.984426    0.000243
     17          6           0       -1.488529    6.302410    0.000188
     18          6           0       -3.646057    7.473946   -0.000044
     19          6           0        2.763344    6.233835   -0.000066
     20          6           0        0.644264    7.488696    0.000097
     21          6           0       -1.486048    8.739497   -0.000106
     22          6           0       -0.072682    3.722583    0.000254
     23          6           0       -4.423380    6.225598   -0.000181
     24          6           0        2.039423    4.985716    0.000088
     25          6           0       -0.086819    6.245918    0.000262
     26          6           0       -2.247828    7.509622    0.000125
     27          6           0        4.183286    6.205843   -0.000242
     28          6           0        2.051167    7.464069   -0.000096
     29          6           0       -0.108077    8.718323   -0.000112
     30          1           0        4.736826    7.141709   -0.000134
     31          1           0        2.608212    8.398162   -0.000269
     32          1           0        0.450622    9.653867   -0.000382
     33          1           0       -2.024149    9.684844   -0.000104
     34          1           0       -4.210816    8.402296   -0.000186
     35          1           0       -6.391623    7.148101   -0.000098
     36          1           0       -7.613530    5.001882   -0.000063
     37          1           0       -6.417453    2.834207   -0.000272
     38          1           0       -4.208336    1.574068   -0.000359
     39          1           0       -2.035005    0.314677    0.000084
     40          1           0        0.442586    0.330166    0.000014
     41          1           0        2.607852    1.577080   -0.000179
     42          1           0        4.741811    2.832903   -0.000582
     43          1           0        5.965971    4.991361   -0.000799
     44         26           0       -2.251750    4.985817    0.000017
     45          6           0       -0.871678    5.198088   -0.000064
     46          8           0       -0.871678    5.198088    1.139564
 ---------------------------------------------------------------------
                    Distance matrix (angstroms):
                    1          2          3          4          5
     1  C    0.000000
     2  C    1.372818   0.000000
     3  C    2.460661   1.440217   0.000000
     4  C    4.920988   3.791337   2.460328   0.000000
     5  C    7.376364   6.223494   4.915709   2.455390   0.000000
     6  C    3.765044   2.507795   1.422603   1.408623   3.745330
     7  C    6.211934   4.981675   3.776417   1.431196   1.393760
     8  C    2.533140   3.780364   4.318263   6.555397   8.903916
     9  C    5.036670   6.259464   6.615119   8.616019  10.800015
    10  C    1.440871   2.441627   2.865014   5.141998   7.528533
    11  C    3.847899   4.971218   5.218067   7.192959   9.391662
    12  C    6.269144   7.410867   7.582765   9.368681  11.399540
    13  C    2.410172   2.767927   2.434540   4.259398   6.508849
    14  C    4.375483   5.215986   5.064132   6.650702   8.647004
    15  C    6.593666   7.560866   7.462713   8.943316  10.778509
    16  C    4.282786   3.788507   2.488884   2.479028   4.257604
    17  C    5.047136   5.218939   4.360406   4.963904   6.499724
    18  C    6.582699   7.140757   6.567768   7.417287   8.878319
    19  C    6.546327   5.739878   4.300238   2.496019   2.454269
    20  C    6.587813   6.267233   4.993085   4.307204   4.917026
    21  C    7.484223   7.596748   6.595223   6.561930   7.387389
    22  C    2.844095   2.455367   1.417849   2.834277   5.107626
    23  C    5.772732   6.568697   6.287188   7.603442   9.382078
    24  C    5.133641   4.297012   2.857452   1.441779   2.836946
    25  C    5.183434   4.978422   3.819674   3.795234   5.120753
    26  C    6.300413   6.596509   5.785098   6.270600   7.558163
    27  C    7.527559   6.546613   5.131857   2.848241   1.403502
    28  C    7.146340   6.564070   5.165562   3.793364   3.758392
    29  C    7.589432   7.450753   6.267256   5.748063   6.227305
    30  H    8.566818   7.618504   6.195794   3.935503   2.160808
    31  H    8.233736   7.632751   6.222734   4.662868   4.097731
    32  H    8.619284   8.405318   7.160700   6.351382   6.432862
    33  H    8.446645   8.631159   7.666238   7.633485   8.348761
    34  H    7.648348   8.226994   7.641883   8.388761   9.708349
    35  H    7.666641   8.601273   8.429650   9.767839  11.473660
    36  H    7.181034   8.377311   8.623602  10.451805  12.489910
    37  H    5.176778   6.494657   7.063415   9.223376  11.496873
    38  H    2.739605   4.105214   4.933020   7.298025   9.704078
    39  H    1.088420   2.143839   3.449725   5.892780   8.341634
    40  H    2.140197   1.090488   2.174234   4.121855   6.428821
    41  H    4.107818   2.739967   2.173625   2.166196   4.094252
    42  H    6.425828   5.102429   4.117806   2.177221   2.156710
    43  H    8.337279   7.130195   5.883681   3.440881   1.089618
    44  Fe   3.808053   4.288687   3.814558   5.166306   7.128119
    45  C    3.990592   4.002768   3.095482   3.915707   5.751980
    46  O    4.150112   4.161763   3.298496   4.078184   5.863889
                    6          7          8          9         10
     6  C    0.000000
     7  C    2.473953   0.000000
     8  C    5.740633   7.970978   0.000000
     9  C    8.012576  10.046789   2.503549   0.000000
    10  C    4.287535   6.545768   1.453504   3.844112   0.000000
    11  C    6.604751   8.623851   1.423946   1.423372   2.529685
    12  C    8.932643  10.784559   3.763407   1.395361   4.969242
    13  C    3.738558   5.690573   2.463871   4.358323   1.382183
    14  C    6.333133   8.055417   2.466228   2.416262   2.934714
    15  C    8.715987  10.317816   4.273276   2.450906   5.182534
    16  C    2.858387   3.773979   4.953783   6.587123   3.783251
    17  C    5.189402   6.219356   4.368817   5.049910   3.881629
    18  C    7.559244   8.669047   4.950883   4.316971   5.180343
    19  C    3.783573   2.847361   7.435719   8.964548   6.237687
    20  C    5.170233   5.139065   6.584714   7.490123   5.763248
    21  C    7.162859   7.545194   6.592227   6.620608   6.291593
    22  C    2.450524   4.265321   3.801803   5.781894   2.481304
    23  C    7.469808   8.958565   3.776242   2.846835   4.331892
    24  C    2.469650   2.471962   6.227333   7.987739   4.942053
    25  C    4.303631   4.943322   5.174177   6.278716   4.321481
    26  C    6.595048   7.446683   5.188126   5.199311   5.017958
    27  C    4.256863   2.434822   8.683230  10.330312   7.408693
    28  C    4.947924   4.268865   7.567196   8.728376   6.559615
    29  C    6.570293   6.555106   7.151279   7.586832   6.577333
    30  H    5.344115   3.414361   9.601008  11.116633   8.373753
    31  H    5.907472   4.890788   8.605881   9.648121   7.633290
    32  H    7.316966   6.971965   8.240841   8.627702   7.646378
    33  H    8.250625   8.580101   7.350670   7.051274   7.196001
    34  H    8.600786   9.594894   5.902999   4.920346   6.234575
    35  H    9.637940  11.109695   5.361061   3.425895   6.246974
    36  H    9.988081  11.869882   4.649085   2.150664   5.942547
    37  H    8.483714  10.651096   2.754735   1.087477   4.204258
    38  H    6.339028   8.683227   1.086096   2.740068   2.183365
    39  H    4.649516   7.122257   2.754015   5.146827   2.185495
    40  H    2.719473   5.089246   4.669879   7.172696   3.435091
    41  H    1.087050   2.706313   6.358960   8.740440   4.920769
    42  H    2.700158   1.087194   8.427837  10.637116   6.977328
    43  H    4.623953   2.152875   9.957062  11.883884   8.565968
    44  Fe   4.969203   6.557613   2.847002   3.804032   2.494231
    45  C    3.973568   5.261272   3.878617   5.184852   3.026856
    46  O    4.133749   5.383351   4.042660   5.308674   3.234320
                   11         12         13         14         15
    11  C    0.000000
    12  C    2.440044   0.000000
    13  C    2.934951   5.197365   0.000000
    14  C    1.418161   2.752535   2.630006   0.000000
    15  C    2.850168   1.407654   5.028937   2.398999   0.000000
    16  C    5.202924   7.141937   2.493430   4.389401   6.566899
    17  C    3.906749   5.203075   2.636998   2.633690   4.344074
    18  C    3.822551   3.801510   4.372904   2.489309   2.522131
    19  C    7.617012   9.369543   4.974858   6.651736   8.595095
    20  C    6.314120   7.590740   4.382166   5.074055   6.599988
    21  C    5.808677   6.279882   5.074083   4.392596   5.025544
    22  C    4.358734   6.573679   1.425693   3.908391   6.275406
    23  C    2.492671   2.436733   3.888038   1.399403   1.408389
    24  C    6.590982   8.562594   3.775060   5.810059   7.966628
    25  C    5.019011   6.557882   2.940781   3.892746   5.744993
    26  C    4.362491   4.962943   3.916790   2.945972   3.810434
    27  C    8.962595  10.775355   6.222697   8.046651  10.015021
    28  C    7.479642   8.924347   5.198154   6.326571   7.981184
    29  C    6.598879   7.420201   5.240374   5.227950   6.246993
    30  H    9.781418  11.463882   7.137786   8.775899  10.609076
    31  H    8.445146   9.746938   6.265256   7.233295   8.717635
    32  H    7.674083   8.390018   6.297265   6.292186   7.161782
    33  H    6.420283   6.503057   6.042436   5.011272   5.151196
    34  H    4.674564   4.122601   5.459074   3.442796   2.722120
    35  H    3.937739   2.162852   6.007006   3.396567   1.087858
    36  H    3.425806   1.090433   6.260611   3.842921   2.155783
    37  H    2.179934   2.157638   4.989943   3.412245   3.431536
    38  H    2.170366   4.125767   3.424015   3.441635   4.917037
    39  H    4.174595   6.480378   3.393630   4.984985   7.016659
    40  H    5.944294   8.380265   3.858347   6.280475   8.602492
    41  H    7.361986   9.747743   4.605744   7.233105   9.630184
    42  H    9.217263  11.469510   6.294340   8.780953  11.101396
    43  H   10.473252  12.489141   7.580070   9.736606  11.861029
    44  Fe   2.514078   4.271421   1.520768   1.518886   3.785248
    45  C    3.849456   5.655350   1.655406   2.906578   5.063302
    46  O    4.014695   5.769062   2.009696   3.122010   5.189990
                   16         17         18         19         20
    16  C    0.000000
    17  C    2.485512   0.000000
    18  C    4.938261   2.455081   0.000000
    19  C    2.481984   4.252426   6.528269   0.000000
    20  C    2.504399   2.440509   4.290347   2.462758   0.000000
    21  C    4.304741   2.437089   2.503449   4.933121   2.470372
    22  C    1.438870   2.942810   5.180901   3.788064   3.833747
    23  C    5.192661   2.935855   1.470579   7.186729   5.222684
    24  C    1.420659   3.765651   6.206124   1.442866   2.865550
    25  C    1.445410   1.402848   3.765133   2.850189   1.441867
    26  C    3.820206   1.426147   1.398684   5.171023   2.892168
    27  C    3.767979   5.672637   7.931374   1.420217   3.764357
    28  C    2.863635   3.725440   5.697232   1.421504   1.407118
    29  C    3.803983   2.782497   3.750437   3.797070   1.441528
    30  H    4.648903   6.281678   8.389465   2.172295   4.107245
    31  H    3.951138   4.601681   6.322188   2.169880   2.164306
    32  H    4.672467   3.872024   4.640564   4.128595   2.173813
    33  H    5.392488   3.424580   2.742016   5.901657   3.455937
    34  H    5.916645   3.438077   1.086640   7.303502   4.940291
    35  H    7.336691   4.975492   2.764834   9.200506   7.044127
    36  H    8.232313   6.261550   4.674606  10.449748   8.624118
    37  H    7.357432   6.026833   5.404425   9.790021   8.457666
    38  H    5.910283   5.454775   5.926611   8.385568   7.650526
    39  H    5.371131   6.012618   7.338298   7.619749   7.658004
    40  H    4.657593   6.276695   8.231075   6.343439   7.161370
    41  H    3.945437   6.253725   8.595604   4.659350   6.229195
    42  H    4.650652   7.131243   9.586220   3.934548   6.202120
    43  H    5.347210   7.568911   9.927452   3.435194   5.878540
    44  Fe   2.870516   1.521816   2.852171   5.168048   3.827702
    45  C    1.505679   1.264923   3.588413   3.779703   2.746809
    46  O    1.888153   1.702412   3.765025   3.947773   2.973777
                   21         22         23         24         25
    21  C    0.000000
    22  C    5.212200   0.000000
    23  C    3.866213   5.019328   0.000000
    24  C    5.149740   2.460994   6.580663   0.000000
    25  C    2.859332   2.523375   4.336608   2.471643   0.000000
    26  C    1.446686   4.367256   2.526211   4.975000   2.503379
    27  C    6.209730   4.927458   8.606688   2.466750   4.270293
    28  C    3.760134   4.302262   6.591931   2.478382   2.460666
    29  C    1.378134   4.995866   4.983525   4.306288   2.472497
    30  H    6.424725   5.900999   9.205902   3.453156   4.906118
    31  H    4.108464   5.389641   7.359573   3.459524   3.448963
    32  H    2.141673   5.954324   5.958936   4.931118   3.450066
    33  H    1.087765   6.273498   4.209832   6.212441   3.947082
    34  H    2.745554   6.246909   2.187052   7.123097   4.653743
    35  H    5.157248   7.187711   2.173705   8.703933   6.369026
    36  H    7.177451   7.648594   3.416803   9.652967   7.628827
    37  H    7.693582   6.406663   3.934191   8.726267   7.191432
    38  H    7.665131   4.660445   4.656499   7.118556   6.230015
    39  H    8.442686   3.932497   6.375212   6.198352   6.243000
    40  H    8.627657   3.431325   7.644196   4.921791   5.939393
    41  H    8.249863   3.433431   8.428934   3.455707   5.390668
    42  H    8.583361   4.896006   9.772978   3.455069   5.913066
    43  H    8.341529   6.170505  10.462406   3.926552   6.181438
    44  Fe   3.830981   2.518749   2.500606   4.291174   2.504951
    45  C    3.594305   1.677948   3.697345   2.918837   1.309179
    46  O    3.770659   2.028186   3.869029   3.133371   1.735499
                   26         27         28         29         30
    26  C    0.000000
    27  C    6.561941   0.000000
    28  C    4.299236   2.475695   0.000000
    29  C    2.457539   4.972761   2.497095   0.000000
    30  H    6.994338   1.087314   2.704937   5.094978   0.000000
    31  H    4.936662   2.699466   1.087579   2.735092   2.471775
    32  H    3.446653   5.081500   2.712371   1.089672   4.968147
    33  H    2.186692   7.115876   4.641125   2.146042   7.223457
    34  H    2.156430   8.676713   6.331880   4.114893   9.036005
    35  H    4.159535  10.616805   8.448700   6.476770  11.128451
    36  H    5.922796  11.858093   9.973401   8.375188  12.534359
    37  H    6.264605  11.124009   9.651587   8.627343  11.957111
    38  H    6.250952   9.585022   8.594969   8.237264  10.536344
    39  H    7.198092   8.565802   8.234720   8.621736   9.615927
    40  H    7.667001   6.965372   7.313009   8.406212   8.052180
    41  H    7.666335   4.889524   5.913252   7.640264   5.957989
    42  H    8.409921   3.418871   5.356050   7.626243   4.308809
    43  H    8.591166   2.157066   4.630332   7.126310   2.476851
    44  Fe   2.523808   6.549668   4.965564   4.304293   7.313554
    45  C    2.690163   5.154437   3.698336   3.602102   5.935737
    46  O    2.921524   5.278956   3.869950   3.778095   6.044161
                   31         32         33         34         35
    31  H    0.000000
    32  H    2.496395   0.000000
    33  H    4.807736   2.474965   0.000000
    34  H    6.819030   4.826535   2.535043   0.000000
    35  H    9.086236   7.286644   5.050732   2.515735   0.000000
    36  H   10.771199   9.309754   7.291866   4.810538   2.469679
    37  H   10.602840   9.678750   8.138325   5.989395   4.313971
    38  H    9.645392   9.326792   8.399724   6.828229   5.986367
    39  H    9.322134   9.664306   9.370173   8.375186   8.104061
    40  H    8.353591   9.323704   9.674439   9.317372   9.653530
    41  H    6.821082   8.359912   9.337627   9.647684  10.584273
    42  H    5.960231   8.058527   9.629502  10.543609  11.940448
    43  H    4.783391   7.222051   9.266650  10.733195  12.544387
    44  Fe   5.938294   5.393840   4.704536   3.938308   4.670548
    45  C    4.727589   4.647842   4.632404   4.627828   5.854259
    46  O    4.863057   4.785594   4.770535   4.766112   5.964158
                   36         37         38         39         40
    36  H    0.000000
    37  H    2.475765   0.000000
    38  H    4.831693   2.543256   0.000000
    39  H    7.286277   5.055085   2.511858   0.000000
    40  H    9.312676   7.302763   4.814391   2.477639   0.000000
    41  H   10.779885   9.112436   6.816188   4.811421   2.498633
    42  H   12.544279  11.159264   9.038241   7.229571   4.974639
    43  H   13.579505  12.569904  10.732866   9.267523   7.227345
    44  Fe   5.361804   4.688550   3.932971   4.676166   5.379083
    45  C    6.744707   6.028562   4.926136   5.020063   5.042217
    46  O    6.840308   6.135372   5.056307   5.147762   5.169384
                   41         42         43         44         45
    41  H    0.000000
    42  H    2.476061   0.000000
    43  H    4.788975   2.481433   0.000000
    44  Fe   5.935926   7.317441   8.217723   0.000000
    45  C    5.021835   6.091417   6.840773   1.396302   0.000000
    46  O    5.149548   6.197200   6.935171   1.802284   1.139629
                   46
    46  O    0.000000
 Stoichiometry    C30H14FeO
 Framework group  C1[X(C30H14FeO)]
 Deg. of freedom   132
 Full point group                 C1      NOp   1
 Largest Abelian subgroup         C1      NOp   1
 Largest concise Abelian subgroup C1      NOp   1
                         Standard orientation:                         
 ---------------------------------------------------------------------
 Center     Atomic      Atomic             Coordinates (Angstroms)
 Number     Number       Type             X           Y           Z
 ---------------------------------------------------------------------
      1          6           0        0.545489    3.746781   -0.032209
      2          6           0       -0.827278    3.734873   -0.032464
      3          6           0       -1.580048    2.507048   -0.035155
      4          6           0       -3.704113    1.265456   -0.038675
      5          6           0       -5.819283    0.018467   -0.042351
      6          6           0       -3.002508    2.486915   -0.035909
      7          6           0       -5.134932    1.232643   -0.039495
      8          6           0        2.738118    2.478251   -0.034410
      9          6           0        4.911856    1.236230   -0.036158
     10          6           0        1.284964    2.510140   -0.034614
     11          6           0        3.488845    1.268282   -0.036617
     12          6           0        5.580254    0.011373   -0.038305
     13          6           0        0.554690    1.336631   -0.037012
     14          6           0        2.827719    0.013656   -0.039042
     15          6           0        4.888466   -1.214560   -0.040937
     16          6           0       -1.561679    0.018237   -0.040149
     17          6           0        0.545240   -1.300345   -0.042173
     18          6           0        2.702434   -2.472494   -0.044063
     19          6           0       -3.706614   -1.230557   -0.043667
     20          6           0       -1.587891   -2.486020   -0.045342
     21          6           0        0.542065   -3.737426   -0.047370
     22          6           0       -0.869873    1.279880   -0.037377
     23          6           0        3.480112   -1.224370   -0.041437
     24          6           0       -2.982338    0.017353   -0.040767
     25          6           0       -0.856454   -1.243454   -0.042439
     26          6           0        1.304195   -2.507771   -0.044419
     27          6           0       -5.126547   -1.202160   -0.044247
     28          6           0       -2.994786   -2.460992   -0.045941
     29          6           0       -0.835900   -3.715859   -0.047780
     30          1           0       -5.680354   -2.137866   -0.046200
     31          1           0       -3.552098   -3.394923   -0.048173
     32          1           0       -1.394865   -4.651241   -0.050113
     33          1           0        1.079897   -4.682924   -0.049096
     34          1           0        3.266929   -3.401003   -0.045889
     35          1           0        5.448093   -2.147432   -0.042572
     36          1           0        6.670610   -0.001566   -0.037823
     37          1           0        5.475150    2.166445   -0.034060
     38          1           0        3.266392    3.427213   -0.032328
     39          1           0        1.093419    4.687220   -0.030056
     40          1           0       -1.384176    4.672437   -0.030959
     41          1           0       -3.549796    3.426144   -0.034362
     42          1           0       -5.684113    2.170933   -0.037982
     43          1           0       -6.908886    0.012829   -0.042938
     44         26           0        1.308835    0.016028   -0.039449
     45          6           0       -0.071298   -0.195850   -0.040404
     46          8           0       -0.071667   -0.198142    1.099222
 ---------------------------------------------------------------------
 Rotational constants (GHZ):      0.3035529      0.1340213      0.0936628
 Standard basis: VSTO-6G (5D, 7F)
 There are   148 symmetry adapted cartesian basis functions of A   symmetry.
 There are   147 symmetry adapted basis functions of A   symmetry.
   147 basis functions,   888 primitive gaussians,   148 cartesian basis functions
    74 alpha electrons       74 beta electrons
       nuclear repulsion energy      1580.3515705280 Hartrees.
 Integral buffers will be    262144 words long.
 Regular integral format.
 Two-electron integral symmetry is turned off.
 Do NDO integrals.
 One-electron integrals computed using PRISM.
 NBasis=   147 RedAO= F EigKep=  0.00D+00  NBF=   147
 NBsUse=   147 1.00D-04 EigRej=  0.00D+00 NBFU=   147
 Simple Huckel Guess.
 Keep J ints in memory in canonical form, NReq=2119168.
 Gradient too large for Newton-Raphson -- use scaled steepest descent instead.
     Accept linear search using points  4 and  5.
 Gradient too large for Newton-Raphson -- use scaled steepest descent instead.
     Accept linear search using points  2 and  3.
     Minimum is close to point  3 DX= -5.27D-02 DF= -8.73D-02 DXR=  9.63D-02 DFR=  9.15D-02 which will be used.
 Gradient too large for Newton-Raphson -- use scaled steepest descent instead.
     Accept linear search using points  2 and  3.
 Gradient too large for Newton-Raphson -- use scaled steepest descent instead.
     Accept linear search using points  2 and  3.
 Gradient too large for Newton-Raphson -- use scaled steepest descent instead.
 Gradient too large for Newton-Raphson -- use scaled steepest descent instead.
     Accept linear search using points  1 and  2.
 Gradient too large for Newton-Raphson -- use scaled steepest descent instead.
     Accept linear search using points  2 and  3.
 Gradient too large for Newton-Raphson -- use scaled steepest descent instead.
     Accept linear search using points  1 and  2.
 Gradient too large for Newton-Raphson -- use scaled steepest descent instead.
     Accept linear search using points  2 and  3.
 Gradient too large for Newton-Raphson -- use scaled steepest descent instead.
     Accept linear search using points  1 and  2.
 Gradient too large for Newton-Raphson -- use scaled steepest descent instead.
 Gradient too large for Newton-Raphson -- use scaled steepest descent instead.
     Accept linear search using points  1 and  2.
 Gradient too large for Newton-Raphson -- use scaled steepest descent instead.
 Gradient too large for Newton-Raphson -- use scaled steepest descent instead.
     Accept linear search using points  1 and  2.
 Gradient too large for Newton-Raphson -- use scaled steepest descent instead.
 Gradient too large for Newton-Raphson -- use scaled steepest descent instead.
     Accept linear search using points  1 and  2.
 Gradient too large for Newton-Raphson -- use scaled steepest descent instead.
 Gradient too large for Newton-Raphson -- use scaled steepest descent instead.
     Accept linear search using points  1 and  2.
 Gradient too large for Newton-Raphson -- use scaled steepest descent instead.
 Gradient too large for Newton-Raphson -- use scaled steepest descent instead.
     Accept linear search using points  1 and  2.
 Gradient too large for Newton-Raphson -- use scaled steepest descent instead.
 Gradient too large for Newton-Raphson -- use scaled steepest descent instead.
     Accept linear search using points  1 and  2.
 Gradient too large for Newton-Raphson -- use scaled steepest descent instead.
 Gradient too large for Newton-Raphson -- use scaled steepest descent instead.
     Accept linear search using points  1 and  2.
 Gradient too large for Newton-Raphson -- use scaled steepest descent instead.
 Gradient too large for Newton-Raphson -- use scaled steepest descent instead.
     Accept linear search using points  1 and  2.
 Gradient too large for Newton-Raphson -- use scaled steepest descent instead.
 Gradient too large for Newton-Raphson -- use scaled steepest descent instead.
     Accept linear search using points  1 and  2.
 Gradient too large for Newton-Raphson -- use scaled steepest descent instead.
 Gradient too large for Newton-Raphson -- use scaled steepest descent instead.
     Accept linear search using points  1 and  2.
 Gradient too large for Newton-Raphson -- use scaled steepest descent instead.
 Gradient too large for Newton-Raphson -- use scaled steepest descent instead.
     Accept linear search using points  1 and  2.
 Gradient too large for Newton-Raphson -- use scaled steepest descent instead.
 Gradient too large for Newton-Raphson -- use scaled steepest descent instead.
     Accept linear search using points  1 and  2.
 Gradient too large for Newton-Raphson -- use scaled steepest descent instead.
 Gradient too large for Newton-Raphson -- use scaled steepest descent instead.
     Accept linear search using points  1 and  2.
 Gradient too large for Newton-Raphson -- use scaled steepest descent instead.
 Gradient too large for Newton-Raphson -- use scaled steepest descent instead.
     Accept linear search using points  1 and  2.
 Gradient too large for Newton-Raphson -- use scaled steepest descent instead.
     Minimum is close to point  2 DX=  7.65D-02 DF= -8.23D-07 DXR=  6.51D-02 DFR=  4.25D-03 which will be used.
 Gradient too large for Newton-Raphson -- use scaled steepest descent instead.
     Minimum is close to point  2 DX=  3.60D-02 DF= -2.18D-07 DXR=  3.47D-02 DFR=  1.21D-03 which will be used.
 LinEq1:  Iter=  0 NonCon=     1 RMS=2.61D-04 Max=6.40D-03 NDo=     1
 AX will form     1 AO Fock derivatives at one time.
 LinEq1:  Iter=  1 NonCon=     1 RMS=2.03D-04 Max=5.87D-03 NDo=     1
 LinEq1:  Iter=  2 NonCon=     1 RMS=5.30D-05 Max=1.73D-03 NDo=     1
 LinEq1:  Iter=  3 NonCon=     1 RMS=2.10D-05 Max=5.43D-04 NDo=     1
 LinEq1:  Iter=  4 NonCon=     1 RMS=1.17D-05 Max=3.12D-04 NDo=     1
 LinEq1:  Iter=  5 NonCon=     1 RMS=5.22D-06 Max=1.31D-04 NDo=     1
 LinEq1:  Iter=  6 NonCon=     1 RMS=2.50D-06 Max=4.34D-05 NDo=     1
 LinEq1:  Iter=  7 NonCon=     1 RMS=1.28D-06 Max=2.91D-05 NDo=     1
 LinEq1:  Iter=  8 NonCon=     1 RMS=5.91D-07 Max=9.46D-06 NDo=     1
 LinEq1:  Iter=  9 NonCon=     1 RMS=2.19D-07 Max=4.08D-06 NDo=     1
 LinEq1:  Iter= 10 NonCon=     1 RMS=7.08D-08 Max=1.51D-06 NDo=     1
 LinEq1:  Iter= 11 NonCon=     1 RMS=2.25D-08 Max=3.17D-07 NDo=     1
 LinEq1:  Iter= 12 NonCon=     1 RMS=8.47D-09 Max=1.73D-07 NDo=     1
 LinEq1:  Iter= 13 NonCon=     0 RMS=2.83D-09 Max=6.56D-08 NDo=     1
 Linear equations converged to 1.039D-08 1.039D-07 after    13 iterations.
     Accept linear search using points  1 and  2.
 LinEq1:  Iter=  0 NonCon=     1 RMS=1.64D-04 Max=2.68D-03 NDo=     1
 LinEq1:  Iter=  1 NonCon=     1 RMS=1.26D-04 Max=2.97D-03 NDo=     1
 LinEq1:  Iter=  2 NonCon=     1 RMS=6.08D-05 Max=1.24D-03 NDo=     1
 LinEq1:  Iter=  3 NonCon=     1 RMS=2.50D-05 Max=4.67D-04 NDo=     1
 LinEq1:  Iter=  4 NonCon=     1 RMS=8.78D-06 Max=1.83D-04 NDo=     1
 LinEq1:  Iter=  5 NonCon=     1 RMS=4.22D-06 Max=9.28D-05 NDo=     1
 LinEq1:  Iter=  6 NonCon=     1 RMS=2.05D-06 Max=3.93D-05 NDo=     1
 LinEq1:  Iter=  7 NonCon=     1 RMS=8.96D-07 Max=2.92D-05 NDo=     1
 LinEq1:  Iter=  8 NonCon=     1 RMS=4.69D-07 Max=7.83D-06 NDo=     1
 LinEq1:  Iter=  9 NonCon=     1 RMS=2.40D-07 Max=6.95D-06 NDo=     1
 LinEq1:  Iter= 10 NonCon=     1 RMS=8.19D-08 Max=1.50D-06 NDo=     1
 LinEq1:  Iter= 11 NonCon=     1 RMS=3.03D-08 Max=5.03D-07 NDo=     1
 LinEq1:  Iter= 12 NonCon=     1 RMS=1.12D-08 Max=2.14D-07 NDo=     1
 LinEq1:  Iter= 13 NonCon=     0 RMS=3.52D-09 Max=6.70D-08 NDo=     1
 Linear equations converged to 1.039D-08 1.039D-07 after    13 iterations.
     Accept linear search using points  1 and  2.
 Gradient too large for Newton-Raphson -- use scaled steepest descent instead.
     Accept linear search using points  1 and  2.
     Minimum is close to point  2 DX= -7.61D-02 DF= -1.32D-06 DXR=  7.43D-02 DFR=  6.46D-03 which will be used.
 LinEq1:  Iter=  0 NonCon=     1 RMS=1.61D-04 Max=3.96D-03 NDo=     1
 LinEq1:  Iter=  1 NonCon=     1 RMS=1.35D-04 Max=2.84D-03 NDo=     1
 LinEq1:  Iter=  2 NonCon=     1 RMS=4.66D-05 Max=1.00D-03 NDo=     1
 LinEq1:  Iter=  3 NonCon=     1 RMS=2.82D-05 Max=5.20D-04 NDo=     1
 LinEq1:  Iter=  4 NonCon=     1 RMS=8.15D-06 Max=1.91D-04 NDo=     1
 LinEq1:  Iter=  5 NonCon=     1 RMS=4.68D-06 Max=8.89D-05 NDo=     1
 LinEq1:  Iter=  6 NonCon=     1 RMS=1.85D-06 Max=3.61D-05 NDo=     1
 LinEq1:  Iter=  7 NonCon=     1 RMS=9.07D-07 Max=1.83D-05 NDo=     1
 LinEq1:  Iter=  8 NonCon=     1 RMS=3.14D-07 Max=4.96D-06 NDo=     1
 LinEq1:  Iter=  9 NonCon=     1 RMS=1.21D-07 Max=1.88D-06 NDo=     1
 LinEq1:  Iter= 10 NonCon=     1 RMS=3.68D-08 Max=9.79D-07 NDo=     1
 LinEq1:  Iter= 11 NonCon=     1 RMS=1.39D-08 Max=3.12D-07 NDo=     1
 LinEq1:  Iter= 12 NonCon=     1 RMS=5.21D-09 Max=1.38D-07 NDo=     1
 LinEq1:  Iter= 13 NonCon=     0 RMS=1.40D-09 Max=2.52D-08 NDo=     1
 Linear equations converged to 1.039D-08 1.039D-07 after    13 iterations.
 Gradient too large for Newton-Raphson -- use scaled steepest descent instead.
 Gradient too large for Newton-Raphson -- use scaled steepest descent instead.
     Accept linear search using points  1 and  2.
 LinEq1:  Iter=  0 NonCon=     1 RMS=2.41D-04 Max=7.49D-03 NDo=     1
 LinEq1:  Iter=  1 NonCon=     1 RMS=2.39D-04 Max=9.26D-03 NDo=     1
 LinEq1:  Iter=  2 NonCon=     1 RMS=4.87D-05 Max=1.58D-03 NDo=     1
 LinEq1:  Iter=  3 NonCon=     1 RMS=2.71D-05 Max=4.82D-04 NDo=     1
 LinEq1:  Iter=  4 NonCon=     1 RMS=1.03D-05 Max=1.53D-04 NDo=     1
 LinEq1:  Iter=  5 NonCon=     1 RMS=3.75D-06 Max=1.15D-04 NDo=     1
 LinEq1:  Iter=  6 NonCon=     1 RMS=1.80D-06 Max=4.45D-05 NDo=     1
 LinEq1:  Iter=  7 NonCon=     1 RMS=6.09D-07 Max=1.21D-05 NDo=     1
 LinEq1:  Iter=  8 NonCon=     1 RMS=2.43D-07 Max=4.44D-06 NDo=     1
 LinEq1:  Iter=  9 NonCon=     1 RMS=6.99D-08 Max=9.07D-07 NDo=     1
 LinEq1:  Iter= 10 NonCon=     1 RMS=2.33D-08 Max=4.68D-07 NDo=     1
 LinEq1:  Iter= 11 NonCon=     0 RMS=7.17D-09 Max=9.97D-08 NDo=     1
 Linear equations converged to 1.039D-08 1.039D-07 after    11 iterations.
 LinEq1:  Iter=  0 NonCon=     1 RMS=2.03D-04 Max=5.59D-03 NDo=     1
 LinEq1:  Iter=  1 NonCon=     1 RMS=1.92D-04 Max=7.21D-03 NDo=     1
 LinEq1:  Iter=  2 NonCon=     1 RMS=5.52D-05 Max=1.52D-03 NDo=     1
 LinEq1:  Iter=  3 NonCon=     1 RMS=2.70D-05 Max=5.38D-04 NDo=     1
 LinEq1:  Iter=  4 NonCon=     1 RMS=1.45D-05 Max=3.40D-04 NDo=     1
 LinEq1:  Iter=  5 NonCon=     1 RMS=6.65D-06 Max=1.77D-04 NDo=     1
 LinEq1:  Iter=  6 NonCon=     1 RMS=1.97D-06 Max=2.60D-05 NDo=     1
 LinEq1:  Iter=  7 NonCon=     1 RMS=8.15D-07 Max=1.60D-05 NDo=     1
 LinEq1:  Iter=  8 NonCon=     1 RMS=3.17D-07 Max=5.29D-06 NDo=     1
 LinEq1:  Iter=  9 NonCon=     1 RMS=8.11D-08 Max=9.84D-07 NDo=     1
 LinEq1:  Iter= 10 NonCon=     1 RMS=3.76D-08 Max=8.13D-07 NDo=     1
 LinEq1:  Iter= 11 NonCon=     1 RMS=1.36D-08 Max=2.07D-07 NDo=     1
 LinEq1:  Iter= 12 NonCon=     0 RMS=5.00D-09 Max=7.87D-08 NDo=     1
 Linear equations converged to 1.039D-08 1.039D-07 after    12 iterations.
 Incorrect curvature in search direction -- initial direction reversed.
     Minimum is close to point  6 DX=  8.57D-03 DF= -1.58D-05 DXR=  7.90D-02 DFR=  1.15D-02 which will be used.
 Gradient too large for Newton-Raphson -- use scaled steepest descent instead.
 Gradient too large for Newton-Raphson -- use scaled steepest descent instead.
     Accept linear search using points  1 and  2.
 LinEq1:  Iter=  0 NonCon=     1 RMS=2.28D-04 Max=6.75D-03 NDo=     1
 LinEq1:  Iter=  1 NonCon=     1 RMS=2.40D-04 Max=1.08D-02 NDo=     1
 LinEq1:  Iter=  2 NonCon=     1 RMS=4.51D-05 Max=1.26D-03 NDo=     1
 LinEq1:  Iter=  3 NonCon=     1 RMS=3.02D-05 Max=6.45D-04 NDo=     1
 LinEq1:  Iter=  4 NonCon=     1 RMS=8.59D-06 Max=1.29D-04 NDo=     1
 LinEq1:  Iter=  5 NonCon=     1 RMS=5.21D-06 Max=1.05D-04 NDo=     1
 LinEq1:  Iter=  6 NonCon=     1 RMS=1.45D-06 Max=2.69D-05 NDo=     1
 LinEq1:  Iter=  7 NonCon=     1 RMS=4.61D-07 Max=6.97D-06 NDo=     1
 LinEq1:  Iter=  8 NonCon=     1 RMS=1.69D-07 Max=2.14D-06 NDo=     1
 LinEq1:  Iter=  9 NonCon=     1 RMS=5.16D-08 Max=1.03D-06 NDo=     1
 LinEq1:  Iter= 10 NonCon=     1 RMS=1.56D-08 Max=2.03D-07 NDo=     1
 LinEq1:  Iter= 11 NonCon=     0 RMS=4.65D-09 Max=5.76D-08 NDo=     1
 Linear equations converged to 1.039D-08 1.039D-07 after    11 iterations.
 Incorrect curvature in search direction -- initial direction reversed.
 Gradient too large for Newton-Raphson -- use scaled steepest descent instead.
 Gradient too large for Newton-Raphson -- use scaled steepest descent instead.
     Accept linear search using points  1 and  2.
 Gradient too large for Newton-Raphson -- use scaled steepest descent instead.
 Gradient too large for Newton-Raphson -- use scaled steepest descent instead.
     Accept linear search using points  1 and  2.
 Gradient too large for Newton-Raphson -- use scaled steepest descent instead.
 Gradient too large for Newton-Raphson -- use scaled steepest descent instead.
     Accept linear search using points  1 and  2.
 Gradient too large for Newton-Raphson -- use scaled steepest descent instead.
 Gradient too large for Newton-Raphson -- use scaled steepest descent instead.
     Accept linear search using points  1 and  2.
 Gradient too large for Newton-Raphson -- use scaled steepest descent instead.
 Gradient too large for Newton-Raphson -- use scaled steepest descent instead.
     Accept linear search using points  1 and  2.
 Gradient too large for Newton-Raphson -- use scaled steepest descent instead.
 Gradient too large for Newton-Raphson -- use scaled steepest descent instead.
     Accept linear search using points  1 and  2.
 Gradient too large for Newton-Raphson -- use scaled steepest descent instead.
 Gradient too large for Newton-Raphson -- use scaled steepest descent instead.
     Accept linear search using points  1 and  2.
 Gradient too large for Newton-Raphson -- use scaled steepest descent instead.
 Gradient too large for Newton-Raphson -- use scaled steepest descent instead.
     Accept linear search using points  1 and  2.
 Gradient too large for Newton-Raphson -- use scaled steepest descent instead.
 Gradient too large for Newton-Raphson -- use scaled steepest descent instead.
     Accept linear search using points  1 and  2.
 Gradient too large for Newton-Raphson -- use scaled steepest descent instead.
 Gradient too large for Newton-Raphson -- use scaled steepest descent instead.
     Accept linear search using points  1 and  2.
 Gradient too large for Newton-Raphson -- use scaled steepest descent instead.
 Gradient too large for Newton-Raphson -- use scaled steepest descent instead.
     Accept linear search using points  1 and  2.
 Gradient too large for Newton-Raphson -- use scaled steepest descent instead.
 Gradient too large for Newton-Raphson -- use scaled steepest descent instead.
     Accept linear search using points  1 and  2.
 Gradient too large for Newton-Raphson -- use scaled steepest descent instead.
 Gradient too large for Newton-Raphson -- use scaled steepest descent instead.
     Accept linear search using points  1 and  2.
 Gradient too large for Newton-Raphson -- use scaled steepest descent instead.
 Gradient too large for Newton-Raphson -- use scaled steepest descent instead.
     Accept linear search using points  1 and  2.
     Minimum is close to point  2 DX= -8.40D-02 DF= -2.19D-06 DXR=  9.18D-02 DFR=  8.45D-03 which will be used.
 Gradient too large for Newton-Raphson -- use scaled steepest descent instead.
     Accept linear search using points  1 and  2.
     Minimum is close to point  2 DX= -3.30D-02 DF= -2.39D-07 DXR=  3.41D-02 DFR=  1.17D-03 which will be used.
 LinEq1:  Iter=  0 NonCon=     1 RMS=1.93D-04 Max=4.40D-03 NDo=     1
 LinEq1:  Iter=  1 NonCon=     1 RMS=1.59D-04 Max=4.25D-03 NDo=     1
 LinEq1:  Iter=  2 NonCon=     1 RMS=1.07D-05 Max=2.82D-04 NDo=     1
 LinEq1:  Iter=  3 NonCon=     1 RMS=2.63D-06 Max=3.07D-05 NDo=     1
 LinEq1:  Iter=  4 NonCon=     1 RMS=7.24D-07 Max=1.30D-05 NDo=     1
 LinEq1:  Iter=  5 NonCon=     1 RMS=2.85D-07 Max=5.67D-06 NDo=     1
 LinEq1:  Iter=  6 NonCon=     1 RMS=1.00D-07 Max=1.23D-06 NDo=     1
 LinEq1:  Iter=  7 NonCon=     1 RMS=4.45D-08 Max=1.08D-06 NDo=     1
 LinEq1:  Iter=  8 NonCon=     1 RMS=1.32D-08 Max=2.04D-07 NDo=     1
 LinEq1:  Iter=  9 NonCon=     0 RMS=4.94D-09 Max=5.05D-08 NDo=     1
 Linear equations converged to 1.039D-08 1.039D-07 after     9 iterations.
     Accept linear search using points  1 and  2.
     Minimum is close to point  2 DX= -6.09D-02 DF= -3.29D-06 DXR=  6.48D-02 DFR=  4.42D-03 which will be used.
 LinEq1:  Iter=  0 NonCon=     1 RMS=2.56D-05 Max=3.54D-04 NDo=     1
 LinEq1:  Iter=  1 NonCon=     1 RMS=1.75D-05 Max=2.91D-04 NDo=     1
 LinEq1:  Iter=  2 NonCon=     1 RMS=6.45D-06 Max=1.32D-04 NDo=     1
 LinEq1:  Iter=  3 NonCon=     1 RMS=2.63D-06 Max=3.54D-05 NDo=     1
 LinEq1:  Iter=  4 NonCon=     1 RMS=8.95D-07 Max=1.25D-05 NDo=     1
 LinEq1:  Iter=  5 NonCon=     1 RMS=3.54D-07 Max=6.66D-06 NDo=     1
 LinEq1:  Iter=  6 NonCon=     1 RMS=1.15D-07 Max=1.57D-06 NDo=     1
 LinEq1:  Iter=  7 NonCon=     1 RMS=4.07D-08 Max=6.42D-07 NDo=     1
 LinEq1:  Iter=  8 NonCon=     1 RMS=1.32D-08 Max=1.58D-07 NDo=     1
 LinEq1:  Iter=  9 NonCon=     0 RMS=3.72D-09 Max=6.39D-08 NDo=     1
 Linear equations converged to 1.039D-08 1.039D-07 after     9 iterations.
     Minimum is close to point  2 DX=  9.15D-03 DF= -5.86D-10 DXR=  9.07D-03 DFR=  8.22D-05 which will be used.
 LinEq1:  Iter=  0 NonCon=     1 RMS=4.39D-07 Max=5.83D-06 NDo=     1
 LinEq1:  Iter=  1 NonCon=     1 RMS=1.82D-07 Max=2.66D-06 NDo=     1
 LinEq1:  Iter=  2 NonCon=     1 RMS=7.07D-08 Max=8.94D-07 NDo=     1
 LinEq1:  Iter=  3 NonCon=     1 RMS=3.58D-08 Max=4.12D-07 NDo=     1
 LinEq1:  Iter=  4 NonCon=     1 RMS=1.89D-08 Max=4.25D-07 NDo=     1
 LinEq1:  Iter=  5 NonCon=     1 RMS=7.54D-09 Max=1.17D-07 NDo=     1
 LinEq1:  Iter=  6 NonCon=     1 RMS=2.67D-09 Max=3.46D-08 NDo=     1
 LinEq1:  Iter=  7 NonCon=     1 RMS=9.97D-10 Max=1.09D-08 NDo=     1
 LinEq1:  Iter=  8 NonCon=     1 RMS=3.54D-10 Max=4.55D-09 NDo=     1
 LinEq1:  Iter=  9 NonCon=     0 RMS=1.39D-10 Max=1.92D-09 NDo=     1
 Linear equations converged to 2.553D-10 2.553D-09 after     9 iterations.
 LinEq1:  Iter=  0 NonCon=     1 RMS=5.42D-08 Max=7.47D-07 NDo=     1
 LinEq1:  Iter=  1 NonCon=     1 RMS=2.48D-08 Max=3.18D-07 NDo=     1
 LinEq1:  Iter=  2 NonCon=     1 RMS=8.73D-09 Max=9.39D-08 NDo=     1
 LinEq1:  Iter=  3 NonCon=     1 RMS=3.09D-09 Max=3.71D-08 NDo=     1
 LinEq1:  Iter=  4 NonCon=     1 RMS=1.21D-09 Max=1.91D-08 NDo=     1
 LinEq1:  Iter=  5 NonCon=     1 RMS=4.50D-10 Max=6.07D-09 NDo=     1
 LinEq1:  Iter=  6 NonCon=     1 RMS=2.16D-10 Max=2.90D-09 NDo=     1
 LinEq1:  Iter=  7 NonCon=     1 RMS=1.09D-10 Max=1.15D-09 NDo=     1
 LinEq1:  Iter=  8 NonCon=     1 RMS=5.07D-11 Max=1.25D-09 NDo=     1
 LinEq1:  Iter=  9 NonCon=     0 RMS=1.92D-11 Max=2.16D-10 NDo=     1
 Linear equations converged to 2.808D-11 2.808D-10 after     9 iterations.
 SCF Done:  E(RPM6) =   1.32956743885     a.u. after   85 cycles
            Convg  =    0.4069D-06                   316 Fock formations.
              S**2 =  0.0000                  -V/T =  1.0125

 **********************************************************************

            Population analysis using the SCF density.

 **********************************************************************

 Orbital symmetries:
       Occupied  (A) (A) (A) (A) (A) (A) (A) (A) (A) (A) (A) (A)
                 (A) (A) (A) (A) (A) (A) (A) (A) (A) (A) (A) (A)
                 (A) (A) (A) (A) (A) (A) (A) (A) (A) (A) (A) (A)
                 (A) (A) (A) (A) (A) (A) (A) (A) (A) (A) (A) (A)
                 (A) (A) (A) (A) (A) (A) (A) (A) (A) (A) (A) (A)
                 (A) (A) (A) (A) (A) (A) (A) (A) (A) (A) (A) (A)
                 (A) (A)
       Virtual   (A) (A) (A) (A) (A) (A) (A) (A) (A) (A) (A) (A)
                 (A) (A) (A) (A) (A) (A) (A) (A) (A) (A) (A) (A)
                 (A) (A) (A) (A) (A) (A) (A) (A) (A) (A) (A) (A)
                 (A) (A) (A) (A) (A) (A) (A) (A) (A) (A) (A) (A)
                 (A) (A) (A) (A) (A) (A) (A) (A) (A) (A) (A) (A)
                 (A) (A) (A) (A) (A) (A) (A) (A) (A) (A) (A) (A)
                 (A)
 The electronic state is 1-A.
 Alpha  occ. eigenvalues --   -1.58493  -1.23930  -1.16098  -1.13806  -1.12794
 Alpha  occ. eigenvalues --   -1.07571  -1.06808  -1.03686  -1.02289  -1.01387
 Alpha  occ. eigenvalues --   -0.98828  -0.95959  -0.94832  -0.93593  -0.90103
 Alpha  occ. eigenvalues --   -0.88907  -0.84916  -0.82977  -0.81931  -0.80222
 Alpha  occ. eigenvalues --   -0.77574  -0.77015  -0.75390  -0.73983  -0.72513
 Alpha  occ. eigenvalues --   -0.69603  -0.67208  -0.64984  -0.63517  -0.63175
 Alpha  occ. eigenvalues --   -0.62007  -0.59917  -0.59215  -0.58909  -0.58532
 Alpha  occ. eigenvalues --   -0.58127  -0.56425  -0.55933  -0.54529  -0.54351
 Alpha  occ. eigenvalues --   -0.53865  -0.52823  -0.52200  -0.51510  -0.50349
 Alpha  occ. eigenvalues --   -0.49686  -0.49534  -0.48603  -0.48265  -0.47727
 Alpha  occ. eigenvalues --   -0.47472  -0.46905  -0.46466  -0.45823  -0.45282
 Alpha  occ. eigenvalues --   -0.45047  -0.42626  -0.42069  -0.42024  -0.41314
 Alpha  occ. eigenvalues --   -0.39636  -0.39263  -0.39065  -0.37697  -0.37198
 Alpha  occ. eigenvalues --   -0.35825  -0.34610  -0.33693  -0.33487  -0.32264
 Alpha  occ. eigenvalues --   -0.31842  -0.30502  -0.29444  -0.25720
 Alpha virt. eigenvalues --   -0.06658  -0.06135  -0.01535  -0.00882  -0.00159
 Alpha virt. eigenvalues --    0.01155   0.02735   0.03742   0.04047   0.04347
 Alpha virt. eigenvalues --    0.04659   0.05039   0.05319   0.06074   0.07551
 Alpha virt. eigenvalues --    0.07665   0.08192   0.09193   0.09997   0.10753
 Alpha virt. eigenvalues --    0.11214   0.11895   0.12569   0.12815   0.13184
 Alpha virt. eigenvalues --    0.13519   0.13936   0.13997   0.14594   0.14892
 Alpha virt. eigenvalues --    0.15168   0.15608   0.15731   0.15896   0.16133
 Alpha virt. eigenvalues --    0.16218   0.16499   0.16862   0.17025   0.17163
 Alpha virt. eigenvalues --    0.17393   0.17601   0.17742   0.18062   0.18205
 Alpha virt. eigenvalues --    0.18566   0.18586   0.18983   0.19084   0.19239
 Alpha virt. eigenvalues --    0.19487   0.19596   0.19836   0.19913   0.20120
 Alpha virt. eigenvalues --    0.20243   0.20431   0.20597   0.20657   0.20826
 Alpha virt. eigenvalues --    0.20947   0.21399   0.21559   0.22114   0.22562
[...]
 -0.00004033,0.00014306,0.00015787,0.00004492,0.00065538,0.00022807,-0.
 00014650,0.00027603,-0.00007007,-0.00009562,0.00029061,-0.00028476,-0.
 00009454,-0.02547123,0.01542887,0.00503017,0.00006897,-0.00020729,-0.0
 0006285,0.00004224,-0.00007409,-0.00001195,0.00045151,0.00057754,-0.00
 045263,0.00004900,0.00011134,0.00001658,0.00001632,0.00004809,-0.00000
 567,-0.00001282,0.00003731,0.00000265,-0.00001189,0.00001895,0.0000031
 7,-0.00001721,0.00001706,0.00000486,-0.00003902,0.00000268,-0.00001257
 ,-0.00001562,-0.00002592,-0.00001261,-0.00001216,-0.00002738,-0.000010
 93,-0.00001111,-0.00002630,0.00000290,0.00001945,-0.00002608,0.0000034
 0,0.00003534,-0.00002727,0.00000393,0.00038250,-0.00040734,-0.00016470
 ,0.26379258,0.00000154,-0.00001606,0.00000571,-0.00004278,-0.00000241,
 0.00000813,0.00003743,-0.00010936,-0.00000118,-0.00068273,-0.00245555,
 0.00036472,0.00669865,-0.03420103,-0.00158448,-0.00061413,-0.00004988,
 0.00009373,-0.02766323,-0.00638563,0.00558630,0.00000822,-0.00000284,0
 .00000034,0.00000636,-0.00000379,0.00000013,-0.00000899,-0.00000859,-0
 .00000485,-0.00000501,0.00000450,0.00000020,0.00000095,0.00000800,0.00
 000303,0.00000838,0.00001056,0.00000063,-0.00000735,-0.00000635,0.0000
 0230,-0.00000849,-0.00000370,-0.00000304,0.00007010,-0.00003123,-0.000
 03755,0.00002012,0.00000334,-0.00000209,-0.00001419,-0.00000592,-0.000
 00048,0.00098358,-0.00230845,0.00021518,-0.00006791,-0.00010368,-0.000
 00480,-0.00001670,-0.00002683,0.00000152,-0.00001261,0.00000076,0.0000
 0317,0.00001157,0.00000984,0.00000269,-0.00010853,0.00004547,0.0000244
 5,-0.00001843,0.00007183,-0.00000181,0.00001332,0.00001415,-0.00000024
 ,0.02995791,-0.00852048,-0.00489517,0.00058715,-0.00006744,-0.00010570
 ,0.00005021,-0.00001739,-0.00000704,0.00081226,-0.00036046,-0.00021160
 ,0.00002491,0.00005220,-0.00000040,0.00000493,0.00000806,-0.00000095,0
 .00000013,0.00000510,-0.00000008,-0.00000035,0.00000084,0.00000023,-0.
 00000008,0.00000032,0.00000008,-0.00000085,0.00000019,-0.00000039,0.00
 000031,0.00000017,0.00000040,0.00000105,0.00000113,0.00000062,-0.00000
 070,0.00000523,-0.00000096,-0.00000222,0.00000685,-0.00000114,-0.00001
 614,0.00005225,0.00000308,-0.00093444,-0.00028561,0.00015740,-0.009069
 87,0.05466964,0.00000093,-0.00000568,0.00000521,0.00000692,-0.00000573
 ,0.00002758,-0.00000433,0.00001418,-0.00007471,0.00077638,0.00053115,0
 .00358137,0.03089201,-0.00163883,-0.04816480,-0.00003673,-0.00004155,-
 0.00047461,0.00690149,0.00296668,0.00476648,-0.00000001,-0.00000646,-0
 .00000727,-0.00000809,0.00000480,-0.00000104,-0.00000751,0.00000641,-0
 .00001483,-0.00000419,-0.00001232,-0.00001081,-0.00000863,-0.00001488,
 -0.00001153,0.00002095,-0.00000140,0.00003179,0.00000904,0.00003647,0.
 00004455,0.00002184,0.00000819,0.00001042,-0.00000609,-0.00003385,-0.0
 0060323,0.00004953,-0.00005515,0.00005269,0.00004511,0.00001169,-0.000
 01052,0.00144591,0.00022058,0.00695784,-0.00004580,-0.00001589,-0.0004
 3242,-0.00000609,-0.00000539,0.00002604,-0.00002381,-0.00001549,0.0000
 2279,-0.00003053,-0.00002809,-0.00001894,-0.00012241,-0.00008738,0.000
 10848,-0.00005818,0.00002851,-0.00000387,-0.00005589,0.00005697,0.0000
 1560,0.00443265,-0.00221400,0.00494806,-0.00006294,0.00001255,-0.00020
 341,-0.00000288,0.00000853,-0.00000804,-0.00046425,-0.00017193,-0.0018
 0527,0.00001495,-0.00001784,0.00014515,-0.00000243,-0.00000839,0.00000
 502,0.00000281,-0.00000673,0.00000199,0.00000211,-0.00000373,0.0000024
 0,0.00000291,-0.00000358,0.00000032,0.00000761,-0.00000081,0.00000394,
 0.00000261,0.00000581,0.00000490,0.00000117,0.00000649,0.00000622,0.00
 000222,0.00000489,-0.00000171,-0.00000104,0.00000390,0.00000696,0.0000
 0724,0.00000691,0.00006307,-0.00014776,0.00006097,-0.00058853,-0.04356
 614,0.00038790,0.03161652,0.00077882,0.00060113,0.00018193,0.00082832,
 0.00040839,-0.00014272,0.00266957,-0.00703566,-0.00011378,0.00502876,0
 .00104545,-0.00079569,0.00202401,0.00522088,-0.00051558,-0.00350765,-0
 .00051561,0.00046054,-0.00570279,-0.00173343,0.00106389,-0.00132587,-0
 .00268448,-0.00166624,0.00417317,-0.00645015,-0.00269284,0.00235974,0.
 00659224,-0.00137227,-0.01955980,-0.03025625,-0.01418844,-0.00006026,0
 .00421805,0.00151499,-0.02699017,0.01748820,0.01319363,-0.22361723,-0.
 01590837,-0.11974069,-0.00768297,0.00152090,-0.00268951,0.00663045,0.0
 0840282,0.00129646,-0.05078771,-0.00784378,0.01188017,-0.01931333,-0.0
 0360903,0.00734753,-0.00378350,0.00189576,0.00084992,-0.00685041,0.002
 60622,0.00141672,-0.00324673,-0.00010953,0.00108267,-0.02733571,0.0053
 5148,0.00585091,-0.01534308,0.05220107,-0.00500599,-0.00380758,0.00179
 812,0.00024772,-0.01238041,-0.00620626,0.00009323,0.02533596,-0.024273
 32,-0.01244741,0.00297171,-0.00321735,-0.00047602,0.00470141,-0.004402
 28,-0.00087140,0.00414587,-0.00339836,-0.00079640,0.00043355,0.0004658
 6,-0.00009995,0.00048647,0.00096692,0.00000245,0.00005212,0.00044381,-
 0.00013671,0.00008428,-0.00007479,0.00005134,0.00095275,-0.00033414,0.
 00045146,-0.00076015,-0.00045456,-0.00012769,-0.00014564,-0.00005625,-
 0.00011216,-0.00003360,0.00079206,0.00035215,0.00025112,-0.00002792,0.
 00063796,0.00002971,0.00002938,-0.00007043,-0.00001660,0.00009338,-0.0
 0005860,0.00018098,-0.00073356,0.00003521,0.00053611,-0.00065073,-0.00
 010174,-0.00018445,-0.00000385,0.00002449,0.93212846,0.00025399,-0.002
 37402,0.00027862,-0.00092518,-0.00053575,-0.00005319,-0.00177818,0.005
 39547,0.00083312,-0.00103635,-0.00163342,0.00024448,-0.00059881,-0.000
 80547,0.00011084,0.00191227,0.00003942,-0.00028264,0.00140186,0.000121
 02,-0.00026590,0.00025135,-0.00273526,0.00148038,-0.00212234,-0.001882
 69,-0.00305913,-0.00197271,-0.00970224,0.00392377,-0.01098670,-0.00075
 537,-0.00901726,0.00124386,0.00067328,0.00095708,0.02533622,-0.0318923
 5,-0.02394971,-0.00017991,-0.14408914,-0.00412154,0.00284119,-0.003855
 64,-0.00083914,0.00012312,-0.00822135,-0.00125688,-0.05135109,-0.01781
 586,0.03736600,-0.00495896,-0.00208144,-0.00521658,0.00050775,0.001785
 28,-0.00013135,-0.00210352,-0.00006202,0.00019373,-0.00311447,-0.00106
 909,-0.00197437,0.02019479,-0.00330190,-0.00428163,0.03854696,-0.00361
 148,0.02430815,-0.00157269,-0.00050312,0.00062149,-0.01765594,-0.00213
 792,0.00156860,0.01346901,-0.00749596,-0.00491810,-0.00003046,0.000696
 13,-0.00003225,0.00119791,-0.00004162,0.00008661,0.00092282,-0.0013013
 1,-0.00024333,-0.00020998,-0.00027397,0.00005925,-0.00016783,-0.000420
 16,-0.00013329,0.00024752,0.00030037,0.00025043,0.00037744,-0.00019391
 ,0.00017541,-0.00024831,-0.00023563,-0.00200344,0.00171912,-0.00022294
 ,0.00069483,-0.00010216,-0.00007656,-0.00003654,-0.00039290,0.00035931
 ,0.00046352,-0.00028117,-0.00094485,-0.00059263,0.00023638,-0.00029538
 ,0.00008639,0.00003573,-0.00014252,0.00002409,-0.00010696,0.00045312,-
 0.00008395,-0.00025778,0.00032514,0.00004508,-0.00004977,-0.00000405,0
 .00001775,0.09990983,0.42045974,0.00020888,0.00143497,0.00003212,0.000
 05598,0.00088183,-0.00000274,0.00051146,-0.00211740,0.00125456,0.00040
 154,0.00085379,0.00000633,0.00001888,0.00018278,-0.00000782,-0.0009362
 0,0.00046219,0.00001983,-0.00049590,-0.00014168,0.00007023,-0.00290364
 ,0.00171663,0.00090017,0.00126983,-0.00024626,-0.00013329,-0.00170895,
 -0.00722065,0.00165107,-0.01051746,-0.03033265,-0.00200389,-0.00009705
 ,-0.00085222,0.00003445,0.00905132,-0.02306885,-0.01899360,-0.12054186
 ,0.00070392,-0.33742799,0.00103510,0.00185412,-0.00106630,-0.00031708,
 0.00337917,-0.00054547,0.00903965,0.00390499,-0.06331421,0.00580190,0.
 00779146,-0.00551395,-0.00021614,-0.00052570,0.00007537,0.00106292,-0.
 00020245,0.00153052,0.00188334,-0.00015247,0.00330123,0.00246386,0.000
 85901,-0.00100691,-0.01333754,0.01991394,0.02497271,0.00068303,-0.0005
 3879,-0.00008032,0.01043181,0.00092617,0.00087234,-0.01229376,0.013109
 38,0.00480909,-0.00007753,-0.00024274,0.00000650,-0.00071621,0.0000715
 9,-0.00020862,-0.00083612,0.00107600,0.00014071,0.00009143,0.00015406,
 -0.00001218,0.00002661,0.00014117,0.00008352,-0.00021573,-0.00024323,-
 0.00045710,-0.00029529,0.00009025,-0.00011988,0.00012219,0.00106699,-0
 .00129813,-0.00035533,0.00018114,-0.00001454,-0.00002239,-0.00000932,0
 .00016178,-0.00014192,-0.00005525,-0.00067833,-0.00002890,-0.00144040,
 -0.00031465,-0.00038007,-0.00002255,-0.00002950,0.00005362,-0.00004031
 ,-0.00000890,-0.00000553,-0.00025599,-0.00005381,0.00012057,-0.0001297
 5,-0.00001170,0.00012452,-0.00000086,-0.00001794,0.48156101,-0.0419088
 0,1.24966128,-0.00028089,-0.00073987,0.00057923,-0.00064661,-0.0002875
 1,-0.00007224,-0.00108565,0.00181935,0.00000659,-0.00141585,0.00104378
 ,0.00022148,-0.00059287,-0.00159389,0.00015703,0.00034480,-0.00026501,
 -0.00010683,0.00180056,0.00013439,-0.00035413,0.00066157,-0.00012356,0
 .00073714,-0.00135812,0.00357524,0.00072604,-0.00066392,-0.00204085,-0
 .00064193,0.01032598,0.00513188,0.00574379,-0.00038417,-0.00204793,-0.
 00016568,-0.00838803,0.01333911,0.01512108,0.04892894,0.01164702,-0.02
 141271,0.00385599,-0.00113490,0.00126047,-0.00346284,-0.00200350,0.000
 78692,-0.00363302,-0.01555232,0.00339343,0.00946174,0.00285959,-0.0038
 7771,0.00071486,-0.00062688,-0.00010766,0.00212048,0.00009366,-0.00003
 065,0.00075075,-0.00010508,0.00012108,-0.00078485,0.00485705,0.0031682
 2,0.00208776,-0.01173625,0.00415975,0.00209718,-0.00110732,-0.00034254
 ,-0.00143445,-0.00125437,0.00476750,-0.00880751,0.01051544,0.00620082,
 -0.00073679,0.00085040,0.00007624,-0.00134355,0.00159104,0.00002801,-0
 .00121844,0.00161542,0.00010824,-0.00016455,-0.00014414,0.00005794,-0.
 00030166,-0.00049211,0.00009919,-0.00018272,-0.00048743,0.00005730,0.0
 0011846,-0.00009220,-0.00007408,-0.00034154,0.00059916,-0.00026332,0.0
 0034052,0.00041486,-0.00031211,0.00019838,0.00005111,-0.00018294,0.000
 27020,-0.00038985,-0.00040249,0.00001670,0.00002803,-0.00027058,0.0001
 6100,0.00007646,-0.00010118,0.00003045,-0.00013877,-0.00000782,-0.0000
 0163,0.00014321,0.00007806,-0.00017163,0.00031197,0.00004289,-0.000013
 60,-0.00000666,0.00001564,-0.44060331,-0.02778592,-0.46465899,0.413406
 65,-0.00004656,0.00110770,-0.00032265,0.00050713,0.00047408,0.00016866
 ,0.00134869,-0.00392564,-0.00211657,0.00209076,0.00166053,-0.00043604,
 0.00111601,0.00220289,-0.00024884,-0.00206232,-0.00036145,0.00035183,-
 0.00260906,-0.00076230,0.00050236,-0.00099611,0.00159102,-0.00005902,-
 0.00012351,0.00080620,0.00057648,-0.00092127,-0.00313074,-0.00345363,0
 .00078589,-0.00261925,0.00316685,-0.00095753,-0.00137079,-0.00077400,0
 .00457951,-0.00596232,0.00460896,-0.00637990,0.06812295,-0.01167631,0.
 00095790,0.00148956,0.00118484,0.00141516,0.00722698,0.00120602,0.0011
 1649,-0.00197985,0.00234593,-0.00207943,-0.00412522,0.00160820,-0.0018
 4990,-0.00034770,0.00047564,-0.00110090,0.00077862,0.00091789,0.001176
 65,0.00095857,0.00130427,-0.00642106,0.00077908,-0.00145368,-0.0108665
 8,0.00090738,-0.00890100,0.00005372,0.00037527,-0.00023594,0.00450997,
 -0.00094517,0.00101057,0.00359438,-0.01367655,0.00648360,0.00108634,-0
 .00162766,-0.00017564,0.00124938,-0.00148637,-0.00051150,0.00065889,0.
 00048953,-0.00033903,0.00025510,0.00032962,-0.00005921,0.00022984,0.00
 054205,0.00005109,-0.00021330,-0.00028142,-0.00009979,0.00016913,0.000
 03153,0.00004735,0.00020249,-0.00070417,0.00118088,-0.00055704,-0.0000
 2038,-0.00017279,0.00035174,-0.00000181,0.00002905,0.00009732,0.000068
 60,-0.00033524,0.00007211,0.00004229,0.00014808,-0.00000061,0.00004540
 ,-0.00022596,0.00000653,0.00005344,-0.00003084,0.00015478,-0.00047882,
 0.00014817,0.00032509,-0.00034974,-0.00006919,-0.00009493,-0.00000122,
 0.00001113,0.00098105,-0.12754324,-0.00962872,0.01695991,0.09109486,0.
 00100905,0.00099041,-0.00045389,0.00002799,0.00037234,-0.00012322,-0.0
 0016175,-0.00206006,-0.00167993,0.00127864,-0.00008040,-0.00019935,0.0
 0056599,0.00136780,-0.00013708,-0.00111126,0.00053059,-0.00002301,-0.0
 0185092,-0.00011186,0.00027060,0.00029125,-0.00159869,-0.00089226,0.00
 105297,0.00025793,0.00078198,-0.00265857,0.00144565,-0.00160612,0.0087
 2578,0.00401605,0.00175173,0.00036195,0.00205998,0.00024067,-0.0057447
 4,0.00439289,0.02305760,0.00424371,0.01202694,0.06991501,-0.00222716,-
 0.00173260,-0.00023218,0.00251497,0.00164735,0.00081285,-0.00859190,0.
 00720038,0.00257136,-0.01252447,-0.00567331,0.00050458,-0.00053366,0.0
 0012391,0.00017454,-0.00210381,0.00051230,-0.00006706,-0.00093615,-0.0
 0072315,-0.00090082,0.00149758,0.00086703,-0.00184591,0.00759891,0.007
 50386,-0.00664771,-0.00125098,0.00062911,-0.00002334,0.00373591,-0.000
 60367,-0.00276269,0.00951850,-0.00178197,-0.00546238,0.00036176,-0.000
 83647,-0.00009877,0.00052410,-0.00137984,-0.00020307,0.00101127,-0.001
 61694,-0.00031448,0.00025640,0.00028425,-0.00004011,0.00031028,0.00058
 352,-0.00000112,0.00023269,0.00051111,0.00014466,-0.00021070,0.0001415
 3,0.00015779,0.00029267,-0.00044060,0.00090622,-0.00014351,0.00003911,
 0.00034726,-0.00027865,-0.00002275,-0.00011685,0.00017096,-0.00028526,
 0.00028598,-0.00013109,-0.00005674,0.00032436,-0.00023366,-0.00001935,
 0.00015535,0.00007718,-0.00005909,0.00012427,0.00013594,-0.00040928,0.
 00023670,0.00029602,-0.00043178,-0.00001282,0.00013798,0.00000837,-0.0
 0001183,-0.45432076,-0.03877274,-0.74059964,0.43066302,0.00449454,0.67
 934237,-0.00000043,0.00053315,-0.00040472,0.00032877,0.00029674,-0.000
 01085,0.00024000,-0.00115608,0.00024443,0.00031770,-0.00085474,0.00000
 043,0.00002865,0.00033163,-0.00002018,0.00006567,0.00053353,-0.0000869
 2,-0.00050535,0.00016952,0.00008275,-0.00024282,0.00051496,0.00049687,
 0.00105928,-0.00057103,0.00104282,0.00059118,0.00198248,0.00130703,0.0
 0504615,0.00097697,-0.00030968,0.00056046,0.00248756,-0.00044456,-0.00
 133040,-0.00211419,-0.00177003,-0.02403419,-0.00715890,-0.01343152,-0.
 00284637,-0.00133990,-0.00106384,0.00117433,0.00014905,0.00002351,0.00
 412320,0.00112007,0.01062981,-0.00537506,0.00005793,-0.00046667,0.0001
 4496,0.00030662,-0.00004272,-0.00065864,0.00000545,-0.00018881,-0.0004
 5634,-0.00013364,-0.00062211,-0.00113931,-0.00008597,0.00104779,0.0049
 7298,0.00363240,0.00152798,-0.00107404,0.00034869,0.00010554,-0.000199
 58,0.00036710,-0.00018916,0.00558352,-0.00126829,-0.00107333,0.0000044
 6,-0.00008808,0.00001007,0.00017393,-0.00049200,0.00003817,0.00027855,
 -0.00082126,-0.00008375,0.00008327,0.00007504,-0.00001948,0.00015610,0
 .00023376,-0.00006234,0.00015935,0.00032846,0.00006317,-0.00009079,0.0
 0014208,0.00004985,-0.00018327,0.00012694,-0.00014290,-0.00002582,-0.0
 0003144,0.00042615,-0.00039829,-0.00005513,0.00028198,-0.00007406,-0.0
 0029373,0.00048210,-0.00034747,-0.00017062,0.00025579,-0.00021414,-0.0
 0014174,0.00014704,-0.00000220,0.00006098,0.00004240,-0.00001304,-0.00
 008321,-0.00002115,0.00007891,-0.00018172,-0.00000598,0.00012224,0.000
 00639,-0.00002261,-0.12371716,-0.08072956,0.10504173,-0.01968300,-0.00
 877875,0.01812410,0.15730636,0.00037531,0.00066818,-0.00045943,0.00011
 482,0.00021189,0.00001515,-0.00075411,0.00011116,0.00022475,-0.0006840
 5,-0.00047769,0.00010795,-0.00036313,-0.00081744,0.00008848,0.00043186
 ,0.00055745,-0.00010297,0.00076273,0.00039535,-0.00015197,0.00036687,-
 0.00129466,-0.00125365,0.00001533,-0.00009590,0.00036567,-0.00061375,-
 0.00078469,-0.00135146,0.00229353,0.00256952,-0.00429669,0.00048223,0.
 00092203,0.00011762,0.00193670,0.00050180,0.00180884,0.00019235,-0.008
 10961,0.00634643,-0.00062134,-0.00074297,-0.00021342,-0.00054409,-0.00
 180436,0.00009901,0.00145839,-0.00269794,0.00294583,0.00362188,0.00054
 454,0.00013966,0.00083906,-0.00036359,-0.00020186,0.00111269,-0.000204
 38,-0.00041369,0.00046655,0.00007228,-0.00019284,0.00397260,0.00062754
 ,-0.00029928,0.00285077,-0.00852392,0.01039291,0.00025669,-0.00018260,
 -0.00003574,-0.00079126,0.00087674,0.00030770,-0.00473013,0.00139084,0
 .00202525,-0.00060493,0.00057910,0.00010553,-0.00105072,0.00071699,0.0
 0020873,-0.00079641,0.00004689,0.00011392,-0.00003236,-0.00004410,0.00
 000501,-0.00000856,-0.00007018,0.00000946,0.00007265,0.00013901,0.0000
 2371,-0.00016903,0.00001654,-0.00001497,-0.00010828,0.00049638,-0.0005
 3240,0.00009602,0.00003451,0.00004700,-0.00026760,-0.00002429,0.000035
 89,-0.00013424,-0.00029348,0.00037286,-0.00025996,-0.00036076,0.000172
 62,-0.00036473,0.00001994,0.00018163,-0.00000722,0.00002476,0.00006032
 ,-0.00006203,0.00004540,0.00001410,-0.00004591,0.00001499,0.00001836,0
 .00010603,0.00000249,-0.00001782,-0.09306747,-0.05236725,0.05858760,-0
 .00751446,-0.00947740,0.00665351,0.09176655,0.07714882,-0.00022289,-0.
 00006700,-0.00002757,0.00000014,-0.00035403,0.00020679,-0.00054381,0.0
 0124627,-0.00037132,-0.00026744,0.00001238,-0.00005919,-0.00015248,-0.
 00020032,0.00003135,0.00039532,-0.00030200,0.00012428,0.00053640,-0.00
 018657,-0.00002017,0.00048938,-0.00180204,-0.00149669,0.00157386,-0.00
 198765,-0.00014880,0.00066102,-0.00237320,-0.00132274,-0.00377942,-0.0
 0443026,-0.01692214,-0.00075209,0.00158694,0.00026496,0.00301006,-0.00
 269649,0.00187273,0.01141675,0.00454214,0.00140567,-0.00064151,-0.0000
 0161,-0.00001641,-0.00033411,-0.00089535,-0.00008906,0.00642619,0.0046
 5310,0.00908344,-0.00237209,-0.00177675,-0.00073859,-0.00023891,0.0005
 5265,-0.00006463,-0.00026995,0.00019316,-0.00036421,-0.00102955,-0.000
 84046,-0.00051465,0.00118377,-0.00010700,-0.00020292,-0.00059370,0.009
 49466,-0.00695162,0.00001084,-0.00028088,0.00012293,-0.00125003,0.0005
 1946,-0.00001690,0.00180800,-0.00109064,0.00015419,0.00024418,0.000121
 36,0.00001591,0.00069751,0.00005511,0.00006387,0.00079483,0.00009372,0
 .00006116,-0.00013350,-0.00013980,0.00000186,-0.00016585,-0.00026942,-
 0.00002439,-0.00009243,-0.00026559,0.00004722,0.00008400,-0.00012784,-
 0.00008986,0.00024308,-0.00023351,0.00014724,0.00017074,-0.00017606,-0
 .00032869,0.00032004,0.00002345,-0.00010005,-0.00016527,0.00019449,0.0
 0063422,0.00017967,0.00004336,-0.00013637,0.00018438,0.00014318,-0.000
 25683,-0.00002549,0.00006490,-0.00006280,-0.00007024,0.00021673,-0.000
 04445,-0.00014890,0.00022903,-0.00000935,-0.00012414,-0.00000536,0.000
 00557,0.08891280,0.06937271,-0.11564719,0.01503343,0.00929659,-0.01763
 844,-0.12099066,-0.08204571,0.14941217||0.00001795,-0.00000775,0.00000
 128,-0.00001467,-0.00000107,-0.00000114,-0.00000273,-0.00000197,-0.000
 00197,0.00001759,0.00000655,-0.00000160,0.00000914,0.00002218,-0.00000
 262,-0.00000371,-0.00000930,0.00000287,-0.00001598,-0.00001376,0.00000
 500,0.00000525,-0.00000810,0.00000108,-0.00000471,-0.00001469,0.000000
 05,0.00000545,0.00004705,-0.00002274,-0.00001492,0.00002584,0.00000181
 ,-0.00001303,0.00000098,-0.00000685,0.00002794,-0.00004982,0.00008079,
 0.00003643,-0.00005793,0.00002172,0.00002429,-0.00000907,0.00000264,0.
 00001487,-0.00000692,0.00000085,0.00002473,0.00001293,-0.00005591,0.00
 002050,0.00000387,0.00000453,-0.00000804,0.00000243,0.00000009,-0.0000
 0162,-0.00001359,0.00000616,-0.00000073,-0.00001349,0.00000167,-0.0000
 1884,0.00002881,-0.00002265,-0.00001507,0.00002114,0.00001045,-0.00002
 145,0.00000432,0.00000164,-0.00001178,-0.00000110,0.00000122,-0.000027
 86,0.00003379,0.00000258,0.00001201,-0.00001295,0.00000061,0.00001554,
 -0.00000303,-0.00000118,0.00000902,0.00000854,-0.00000415,-0.00000346,
 0.00000298,-0.00000283,-0.00000425,0.00000266,-0.00000218,0.00000130,0
 .00000042,0.00000679,-0.00000330,0.00000578,-0.00000095,-0.00000092,0.
 00000521,-0.00000841,-0.00000278,0.00000573,0.00000281,0.00000407,-0.0
 0000333,0.00000052,0.00000058,0.00000501,0.00000111,-0.00000654,0.0000
 0013,-0.00000139,-0.00000027,0.00000122,-0.00000615,0.00000057,0.00000
 126,-0.00000029,0.00000065,0.00000168,-0.00000066,0.00000398,0.0000008
 5,0.00000092,-0.00000293,-0.00000317,0.00000088,-0.00006941,0.00000270
 ,-0.00004006,0.00000080,-0.00002112,0.00003075,0.00001635,-0.00000189,
 -0.00000708|||@


 YOU SHOULDN'T LET PEOPLE DRIVE YOU CRAZY
 WHEN YOU KNOW IT'S WITHIN WALKING DISTANCE.
 Job cpu time:       0 days  0 hours  0 minutes  9.0 seconds.
 File lengths (MBytes):  RWF=    455 Int=      0 D2E=      0 Chk=      5 Scr=      1
 Normal termination of Gaussian 09 at Thu Mar 12 10:55:25 2026.
