 Entering Link 1 = C:\Gaussian\G09W\l1.exe PID=     24308.
  
 Copyright (c) 1988,1990,1992,1993,1995,1998,2003,2009,2013,
            Gaussian, Inc.  All Rights Reserved.
  
 This is part of the Gaussian(R) 09 program.  It is based on
 the Gaussian(R) 03 system (copyright 2003, Gaussian, Inc.),
 the Gaussian(R) 98 system (copyright 1998, Gaussian, Inc.),
 the Gaussian(R) 94 system (copyright 1995, Gaussian, Inc.),
 the Gaussian 92(TM) system (copyright 1992, Gaussian, Inc.),
 the Gaussian 90(TM) system (copyright 1990, Gaussian, Inc.),
 the Gaussian 88(TM) system (copyright 1988, Gaussian, Inc.),
 the Gaussian 86(TM) system (copyright 1986, Carnegie Mellon
 University), and the Gaussian 82(TM) system (copyright 1983,
 Carnegie Mellon University). Gaussian is a federally registered
 trademark of Gaussian, Inc.
  
 This software contains proprietary and confidential information,
 including trade secrets, belonging to Gaussian, Inc.
  
 This software is provided under written license and may be
 used, copied, transmitted, or stored only in accord with that
 written license.
  
 The following legend is applicable only to US Government
 contracts under FAR:
  
                    RESTRICTED RIGHTS LEGEND
  
 Use, reproduction and disclosure by the US Government is
 subject to restrictions as set forth in subparagraphs (a)
 and (c) of the Commercial Computer Software - Restricted
 Rights clause in FAR 52.227-19.
  
 Gaussian, Inc.
 340 Quinnipiac St., Bldg. 40, Wallingford CT 06492
  
  
 ---------------------------------------------------------------
 Warning -- This program may not be used in any manner that
 competes with the business of Gaussian, Inc. or will provide
 assistance to any competitor of Gaussian, Inc.  The licensee
 of this program is prohibited from giving any competitor of
 Gaussian, Inc. access to this program.  By using this program,
 the user acknowledges that Gaussian, Inc. is engaged in the
 business of creating and licensing software in the field of
 computational chemistry and represents and warrants to the
 licensee that it is not a competitor of Gaussian, Inc. and that
 it will not use this program in any manner prohibited above.
 ---------------------------------------------------------------
  

 Cite this work as:
 Gaussian 09, Revision D.01,
 M. J. Frisch, G. W. Trucks, H. B. Schlegel, G. E. Scuseria, 
 M. A. Robb, J. R. Cheeseman, G. Scalmani, V. Barone, B. Mennucci, 
 G. A. Petersson, H. Nakatsuji, M. Caricato, X. Li, H. P. Hratchian, 
 A. F. Izmaylov, J. Bloino, G. Zheng, J. L. Sonnenberg, M. Hada, 
 M. Ehara, K. Toyota, R. Fukuda, J. Hasegawa, M. Ishida, T. Nakajima, 
 Y. Honda, O. Kitao, H. Nakai, T. Vreven, J. A. Montgomery, Jr., 
 J. E. Peralta, F. Ogliaro, M. Bearpark, J. J. Heyd, E. Brothers, 
 K. N. Kudin, V. N. Staroverov, T. Keith, R. Kobayashi, J. Normand, 
 K. Raghavachari, A. Rendell, J. C. Burant, S. S. Iyengar, J. Tomasi, 
 M. Cossi, N. Rega, J. M. Millam, M. Klene, J. E. Knox, J. B. Cross, 
 V. Bakken, C. Adamo, J. Jaramillo, R. Gomperts, R. E. Stratmann, 
 O. Yazyev, A. J. Austin, R. Cammi, C. Pomelli, J. W. Ochterski, 
 R. L. Martin, K. Morokuma, V. G. Zakrzewski, G. A. Voth, 
 P. Salvador, J. J. Dannenberg, S. Dapprich, A. D. Daniels, 
 O. Farkas, J. B. Foresman, J. V. Ortiz, J. Cioslowski, 
 and D. J. Fox, Gaussian, Inc., Wallingford CT, 2013.
 
 ******************************************
 Gaussian 09:  IA32W-G09RevD.01 24-Apr-2013
                11-Mar-2026 
 ******************************************
 %chk=C:\Users\User\Desktop\IMRG\ECE+ML\Fe_Gr_NS.chk
 ---------------------------------------
 # opt freq pm6 scf=qc geom=connectivity
 ---------------------------------------
 1/14=-1,18=20,19=15,26=1,38=1,57=2/1,3;
 2/9=110,12=2,17=6,18=5,40=1/2;
 3/5=2,16=1,25=1,41=3900000,71=1/1,2,3;
 4/35=1/1;
 5/5=2,8=3,35=1,38=5/8;
 6/7=2,8=2,9=2,10=2,28=1/1;
 7//1,2,3,16;
 1/14=-1,18=20,19=15,26=1/3(2);
 2/9=110/2;
 99//99;
 2/9=110/2;
 3/5=2,16=1,25=1,41=3900000,71=1,135=20/1,2,3;
 4/5=5,16=3,35=1/1;
 5/5=2,8=3,35=1,38=5/8;
 7//1,2,3,16;
 1/14=-1,18=20,19=15,26=1/3(-5);
 2/9=110/2;
 6/7=2,8=2,9=2,10=2,19=2,28=1/1;
 99/9=1/99;
 --------
 Fe_Gr_NS
 --------
 Symbolic Z-matrix:
 Charge =  0 Multiplicity = 1
 C                    -1.48734   1.25527   0. 
 C                    -0.11458   1.26757   0.00021 
 C                     0.63784   2.49562   0.00024 
 C                     2.76155   3.73782  -0.0001 
 C                     4.87637   4.98541  -0.00058 
 C                     2.0603    2.51615  -0.00001 
 C                     4.19236   3.77104  -0.00038 
 C                    -3.68033   2.52318  -0.00036 
 C                    -5.85442   3.76459  -0.00032 
 C                    -2.22717   2.49171  -0.00016 
 C                    -4.4314    3.73294  -0.00038 
 C                    -6.52317   4.98925  -0.00022 
 C                    -1.49723   3.66543   0.00004 
 C                    -3.77063   4.98776  -0.00006 
 C                    -5.83173   6.21539  -0.00016 
 C                     0.61876   4.98443   0.00024 
 C                    -1.48853   6.30241   0.00019 
 C                    -3.64606   7.47395  -0.00004 
 C                     2.76334   6.23383  -0.00007 
 C                     0.64426   7.4887    0.0001 
 C                    -1.48605   8.7395   -0.00011 
 C                    -0.07268   3.72258   0.00025 
 C                    -4.42338   6.2256   -0.00018 
 C                     2.03942   4.98572   0.00009 
 C                    -0.08682   6.24592   0.00026 
 C                    -2.24783   7.50962   0.00012 
 C                     4.18329   6.20584  -0.00024 
 C                     2.05117   7.46407  -0.0001 
 C                    -0.10808   8.71832  -0.00011 
 H                     4.73683   7.14171  -0.00013 
 H                     2.60821   8.39816  -0.00027 
 H                     0.45062   9.65387  -0.00038 
 H                    -2.02415   9.68484  -0.0001 
 H                    -4.21082   8.4023   -0.00019 
 H                    -6.39162   7.1481   -0.0001 
 H                    -7.61353   5.00188  -0.00006 
 H                    -6.41745   2.83421  -0.00027 
 H                    -4.20834   1.57407  -0.00036 
 H                    -2.035     0.31468   0.00008 
 H                     0.44259   0.33017   0.00001 
 H                     2.60785   1.57708  -0.00018 
 H                     4.74181   2.8329   -0.00058 
 H                     5.96597   4.99136  -0.0008 
 Fe                   -2.25175   4.98582   0.00002 
 

 GradGradGradGradGradGradGradGradGradGradGradGradGradGradGradGradGradGrad
 Berny optimization.
 Initialization pass.
                           ----------------------------
                           !    Initial Parameters    !
                           ! (Angstroms and Degrees)  !
 --------------------------                            --------------------------
 ! Name  Definition              Value          Derivative Info.                !
 --------------------------------------------------------------------------------
 ! R1    R(1,2)                  1.3728         estimate D2E/DX2                !
 ! R2    R(1,10)                 1.4409         estimate D2E/DX2                !
 ! R3    R(1,39)                 1.0884         estimate D2E/DX2                !
 ! R4    R(2,3)                  1.4402         estimate D2E/DX2                !
 ! R5    R(2,40)                 1.0905         estimate D2E/DX2                !
 ! R6    R(3,6)                  1.4226         estimate D2E/DX2                !
 ! R7    R(3,22)                 1.4178         estimate D2E/DX2                !
 ! R8    R(4,6)                  1.4086         estimate D2E/DX2                !
 ! R9    R(4,7)                  1.4312         estimate D2E/DX2                !
 ! R10   R(4,24)                 1.4418         estimate D2E/DX2                !
 ! R11   R(5,7)                  1.3938         estimate D2E/DX2                !
 ! R12   R(5,27)                 1.4035         estimate D2E/DX2                !
 ! R13   R(5,43)                 1.0896         estimate D2E/DX2                !
 ! R14   R(6,41)                 1.087          estimate D2E/DX2                !
 ! R15   R(7,42)                 1.0872         estimate D2E/DX2                !
 ! R16   R(8,10)                 1.4535         estimate D2E/DX2                !
 ! R17   R(8,11)                 1.4239         estimate D2E/DX2                !
 ! R18   R(8,38)                 1.0861         estimate D2E/DX2                !
 ! R19   R(9,11)                 1.4234         estimate D2E/DX2                !
 ! R20   R(9,12)                 1.3954         estimate D2E/DX2                !
 ! R21   R(9,37)                 1.0875         estimate D2E/DX2                !
 ! R22   R(10,13)                1.3822         estimate D2E/DX2                !
 ! R23   R(11,14)                1.4182         estimate D2E/DX2                !
 ! R24   R(12,15)                1.4077         estimate D2E/DX2                !
 ! R25   R(12,36)                1.0904         estimate D2E/DX2                !
 ! R26   R(13,22)                1.4257         estimate D2E/DX2                !
 ! R27   R(13,44)                1.5208         estimate D2E/DX2                !
 ! R28   R(14,23)                1.3994         estimate D2E/DX2                !
 ! R29   R(14,44)                1.5189         estimate D2E/DX2                !
 ! R30   R(15,23)                1.4084         estimate D2E/DX2                !
 ! R31   R(15,35)                1.0879         estimate D2E/DX2                !
 ! R32   R(16,22)                1.4389         estimate D2E/DX2                !
 ! R33   R(16,24)                1.4207         estimate D2E/DX2                !
 ! R34   R(16,25)                1.4454         estimate D2E/DX2                !
 ! R35   R(17,25)                1.4028         estimate D2E/DX2                !
 ! R36   R(17,26)                1.4261         estimate D2E/DX2                !
 ! R37   R(17,44)                1.5218         estimate D2E/DX2                !
 ! R38   R(18,23)                1.4706         estimate D2E/DX2                !
 ! R39   R(18,26)                1.3987         estimate D2E/DX2                !
 ! R40   R(18,34)                1.0866         estimate D2E/DX2                !
 ! R41   R(19,24)                1.4429         estimate D2E/DX2                !
 ! R42   R(19,27)                1.4202         estimate D2E/DX2                !
 ! R43   R(19,28)                1.4215         estimate D2E/DX2                !
 ! R44   R(20,25)                1.4419         estimate D2E/DX2                !
 ! R45   R(20,28)                1.4071         estimate D2E/DX2                !
 ! R46   R(20,29)                1.4415         estimate D2E/DX2                !
 ! R47   R(21,26)                1.4467         estimate D2E/DX2                !
 ! R48   R(21,29)                1.3781         estimate D2E/DX2                !
 ! R49   R(21,33)                1.0878         estimate D2E/DX2                !
 ! R50   R(27,30)                1.0873         estimate D2E/DX2                !
 ! R51   R(28,31)                1.0876         estimate D2E/DX2                !
 ! R52   R(29,32)                1.0897         estimate D2E/DX2                !
 ! A1    A(2,1,10)             120.3811         estimate D2E/DX2                !
 ! A2    A(2,1,39)             120.7234         estimate D2E/DX2                !
 ! A3    A(10,1,39)            118.8954         estimate D2E/DX2                !
 ! A4    A(1,2,3)              122.0091         estimate D2E/DX2                !
 ! A5    A(1,2,40)             120.2126         estimate D2E/DX2                !
 ! A6    A(3,2,40)             117.7783         estimate D2E/DX2                !
 ! A7    A(2,3,6)              122.323          estimate D2E/DX2                !
 ! A8    A(2,3,22)             118.4295         estimate D2E/DX2                !
 ! A9    A(6,3,22)             119.2474         estimate D2E/DX2                !
 ! A10   A(6,4,7)              121.1867         estimate D2E/DX2                !
 ! A11   A(6,4,24)             120.0864         estimate D2E/DX2                !
 ! A12   A(7,4,24)             118.7269         estimate D2E/DX2                !
 ! A13   A(7,5,27)             121.017          estimate D2E/DX2                !
 ! A14   A(7,5,43)             119.7036         estimate D2E/DX2                !
 ! A15   A(27,5,43)            119.2794         estimate D2E/DX2                !
 ! A16   A(3,6,4)              120.6839         estimate D2E/DX2                !
 ! A17   A(3,6,41)             119.4183         estimate D2E/DX2                !
 ! A18   A(4,6,41)             119.8978         estimate D2E/DX2                !
 ! A19   A(4,7,5)              120.7208         estimate D2E/DX2                !
 ! A20   A(4,7,42)             119.0266         estimate D2E/DX2                !
 ! A21   A(5,7,42)             120.2526         estimate D2E/DX2                !
 ! A22   A(10,8,11)            123.0746         estimate D2E/DX2                !
 ! A23   A(10,8,38)            117.8469         estimate D2E/DX2                !
 ! A24   A(11,8,38)            119.0785         estimate D2E/DX2                !
 ! A25   A(11,9,12)            119.9113         estimate D2E/DX2                !
 ! A26   A(11,9,37)            119.9067         estimate D2E/DX2                !
 ! A27   A(12,9,37)            120.182          estimate D2E/DX2                !
 ! A28   A(1,10,8)             122.1353         estimate D2E/DX2                !
 ! A29   A(1,10,13)            117.2279         estimate D2E/DX2                !
 ! A30   A(8,10,13)            120.6368         estimate D2E/DX2                !
 ! A31   A(8,11,9)             123.1078         estimate D2E/DX2                !
 ! A32   A(8,11,14)            120.3955         estimate D2E/DX2                !
 ! A33   A(9,11,14)            116.4967         estimate D2E/DX2                !
 ! A34   A(9,12,15)            121.9432         estimate D2E/DX2                !
 ! A35   A(9,12,36)            119.3009         estimate D2E/DX2                !
 ! A36   A(15,12,36)           118.7559         estimate D2E/DX2                !
 ! A37   A(10,13,22)           124.1752         estimate D2E/DX2                !
 ! A38   A(10,13,44)           118.3771         estimate D2E/DX2                !
 ! A39   A(22,13,44)           117.4477         estimate D2E/DX2                !
 ! A40   A(11,14,23)           124.4256         estimate D2E/DX2                !
 ! A41   A(11,14,44)           117.6975         estimate D2E/DX2                !
 ! A42   A(23,14,44)           117.8769         estimate D2E/DX2                !
 ! A43   A(12,15,23)           119.8349         estimate D2E/DX2                !
 ! A44   A(12,15,35)           119.6049         estimate D2E/DX2                !
 ! A45   A(23,15,35)           120.5602         estimate D2E/DX2                !
 ! A46   A(22,16,24)           118.7733         estimate D2E/DX2                !
 ! A47   A(22,16,25)           122.0594         estimate D2E/DX2                !
 ! A48   A(24,16,25)           119.1674         estimate D2E/DX2                !
 ! A49   A(25,17,26)           124.4765         estimate D2E/DX2                !
 ! A50   A(25,17,44)           117.7927         estimate D2E/DX2                !
 ! A51   A(26,17,44)           117.7308         estimate D2E/DX2                !
 ! A52   A(23,18,26)           123.3713         estimate D2E/DX2                !
 ! A53   A(23,18,34)           116.7761         estimate D2E/DX2                !
 ! A54   A(26,18,34)           119.8525         estimate D2E/DX2                !
 ! A55   A(24,19,27)           118.9848         estimate D2E/DX2                !
 ! A56   A(24,19,28)           119.8195         estimate D2E/DX2                !
 ! A57   A(27,19,28)           121.1957         estimate D2E/DX2                !
 ! A58   A(25,20,28)           119.4641         estimate D2E/DX2                !
 ! A59   A(25,20,29)           118.073          estimate D2E/DX2                !
 ! A60   A(28,20,29)           122.4629         estimate D2E/DX2                !
 ! A61   A(26,21,29)           120.8936         estimate D2E/DX2                !
 ! A62   A(26,21,33)           118.5771         estimate D2E/DX2                !
 ! A63   A(29,21,33)           120.5293         estimate D2E/DX2                !
 ! A64   A(3,22,13)            117.777          estimate D2E/DX2                !
 ! A65   A(3,22,16)            121.2041         estimate D2E/DX2                !
 ! A66   A(13,22,16)           121.0189         estimate D2E/DX2                !
 ! A67   A(14,23,15)           117.3883         estimate D2E/DX2                !
 ! A68   A(14,23,18)           120.2865         estimate D2E/DX2                !
 ! A69   A(15,23,18)           122.3252         estimate D2E/DX2                !
 ! A70   A(4,24,16)            120.005          estimate D2E/DX2                !
 ! A71   A(4,24,19)            119.8289         estimate D2E/DX2                !
 ! A72   A(16,24,19)           120.1662         estimate D2E/DX2                !
 ! A73   A(16,25,17)           121.5273         estimate D2E/DX2                !
 ! A74   A(16,25,20)           120.3138         estimate D2E/DX2                !
 ! A75   A(17,25,20)           118.159          estimate D2E/DX2                !
 ! A76   A(17,26,18)           120.707          estimate D2E/DX2                !
 ! A77   A(17,26,21)           116.0575         estimate D2E/DX2                !
 ! A78   A(18,26,21)           123.2355         estimate D2E/DX2                !
 ! A79   A(5,27,19)            120.7216         estimate D2E/DX2                !
 ! A80   A(5,27,30)            119.8045         estimate D2E/DX2                !
 ! A81   A(19,27,30)           119.4739         estimate D2E/DX2                !
 ! A82   A(19,28,20)           121.0692         estimate D2E/DX2                !
 ! A83   A(19,28,31)           119.1239         estimate D2E/DX2                !
 ! A84   A(20,28,31)           119.8069         estimate D2E/DX2                !
 ! A85   A(20,29,21)           122.3405         estimate D2E/DX2                !
 ! A86   A(20,29,32)           117.6945         estimate D2E/DX2                !
 ! A87   A(21,29,32)           119.965          estimate D2E/DX2                !
 ! A88   A(13,44,14)           119.8184         estimate D2E/DX2                !
 ! A89   A(13,44,17)           120.1541         estimate D2E/DX2                !
 ! A90   A(14,44,17)           120.0275         estimate D2E/DX2                !
 ! D1    D(10,1,2,3)            -0.0025         estimate D2E/DX2                !
 ! D2    D(10,1,2,40)         -179.9806         estimate D2E/DX2                !
 ! D3    D(39,1,2,3)          -179.9941         estimate D2E/DX2                !
 ! D4    D(39,1,2,40)            0.0278         estimate D2E/DX2                !
 ! D5    D(2,1,10,8)          -179.9988         estimate D2E/DX2                !
 ! D6    D(2,1,10,13)           -0.0059         estimate D2E/DX2                !
 ! D7    D(39,1,10,8)           -0.0071         estimate D2E/DX2                !
 ! D8    D(39,1,10,13)         179.9859         estimate D2E/DX2                !
 ! D9    D(1,2,3,6)           -179.9775         estimate D2E/DX2                !
 ! D10   D(1,2,3,22)             0.0102         estimate D2E/DX2                !
 ! D11   D(40,2,3,6)             0.0012         estimate D2E/DX2                !
 ! D12   D(40,2,3,22)          179.9889         estimate D2E/DX2                !
 ! D13   D(2,3,6,4)            179.9947         estimate D2E/DX2                !
 ! D14   D(2,3,6,41)            -0.0032         estimate D2E/DX2                !
 ! D15   D(22,3,6,4)             0.0071         estimate D2E/DX2                !
 ! D16   D(22,3,6,41)         -179.9908         estimate D2E/DX2                !
 ! D17   D(2,3,22,13)           -0.0093         estimate D2E/DX2                !
 ! D18   D(2,3,22,16)         -179.9984         estimate D2E/DX2                !
 ! D19   D(6,3,22,13)          179.9788         estimate D2E/DX2                !
 ! D20   D(6,3,22,16)           -0.0104         estimate D2E/DX2                !
 ! D21   D(7,4,6,3)           -179.9983         estimate D2E/DX2                !
 ! D22   D(7,4,6,41)            -0.0004         estimate D2E/DX2                !
 ! D23   D(24,4,6,3)             0.0005         estimate D2E/DX2                !
 ! D24   D(24,4,6,41)          179.9984         estimate D2E/DX2                !
 ! D25   D(6,4,7,5)            179.9946         estimate D2E/DX2                !
 ! D26   D(6,4,7,42)             0.0023         estimate D2E/DX2                !
 ! D27   D(24,4,7,5)            -0.0043         estimate D2E/DX2                !
 ! D28   D(24,4,7,42)         -179.9966         estimate D2E/DX2                !
 ! D29   D(6,4,24,16)           -0.0051         estimate D2E/DX2                !
 ! D30   D(6,4,24,19)         -179.9968         estimate D2E/DX2                !
 ! D31   D(7,4,24,16)          179.9938         estimate D2E/DX2                !
 ! D32   D(7,4,24,19)            0.0021         estimate D2E/DX2                !
 ! D33   D(27,5,7,4)             0.0119         estimate D2E/DX2                !
 ! D34   D(27,5,7,42)         -179.9959         estimate D2E/DX2                !
 ! D35   D(43,5,7,4)          -179.9999         estimate D2E/DX2                !
 ! D36   D(43,5,7,42)           -0.0077         estimate D2E/DX2                !
 ! D37   D(7,5,27,19)           -0.0173         estimate D2E/DX2                !
 ! D38   D(7,5,27,30)          179.9838         estimate D2E/DX2                !
 ! D39   D(43,5,27,19)         179.9944         estimate D2E/DX2                !
 ! D40   D(43,5,27,30)          -0.0044         estimate D2E/DX2                !
 ! D41   D(11,8,10,1)          179.9932         estimate D2E/DX2                !
 ! D42   D(11,8,10,13)           0.0005         estimate D2E/DX2                !
 ! D43   D(38,8,10,1)            0.002          estimate D2E/DX2                !
 ! D44   D(38,8,10,13)        -179.9907         estimate D2E/DX2                !
 ! D45   D(10,8,11,9)         -179.9875         estimate D2E/DX2                !
 ! D46   D(10,8,11,14)          -0.0059         estimate D2E/DX2                !
 ! D47   D(38,8,11,9)            0.0036         estimate D2E/DX2                !
 ! D48   D(38,8,11,14)         179.9852         estimate D2E/DX2                !
 ! D49   D(12,9,11,8)          179.9943         estimate D2E/DX2                !
 ! D50   D(12,9,11,14)           0.012          estimate D2E/DX2                !
 ! D51   D(37,9,11,8)           -0.0011         estimate D2E/DX2                !
 ! D52   D(37,9,11,14)        -179.9834         estimate D2E/DX2                !
 ! D53   D(11,9,12,15)          -0.0008         estimate D2E/DX2                !
 ! D54   D(11,9,12,36)        -179.9935         estimate D2E/DX2                !
 ! D55   D(37,9,12,15)         179.9946         estimate D2E/DX2                !
 ! D56   D(37,9,12,36)           0.0019         estimate D2E/DX2                !
 ! D57   D(1,10,13,22)           0.0067         estimate D2E/DX2                !
 ! D58   D(1,10,13,44)        -179.9942         estimate D2E/DX2                !
 ! D59   D(8,10,13,22)         179.9997         estimate D2E/DX2                !
 ! D60   D(8,10,13,44)          -0.0012         estimate D2E/DX2                !
 ! D61   D(8,11,14,23)         179.9937         estimate D2E/DX2                !
 ! D62   D(8,11,14,44)           0.0113         estimate D2E/DX2                !
 ! D63   D(9,11,14,23)          -0.0235         estimate D2E/DX2                !
 ! D64   D(9,11,14,44)         179.9941         estimate D2E/DX2                !
 ! D65   D(9,12,15,23)          -0.0008         estimate D2E/DX2                !
 ! D66   D(9,12,15,35)         179.9989         estimate D2E/DX2                !
 ! D67   D(36,12,15,23)        179.9919         estimate D2E/DX2                !
 ! D68   D(36,12,15,35)         -0.0083         estimate D2E/DX2                !
 ! D69   D(10,13,22,3)           0.001          estimate D2E/DX2                !
 ! D70   D(10,13,22,16)        179.9902         estimate D2E/DX2                !
 ! D71   D(44,13,22,3)        -179.9981         estimate D2E/DX2                !
 ! D72   D(44,13,22,16)         -0.0089         estimate D2E/DX2                !
 ! D73   D(10,13,44,14)          0.0069         estimate D2E/DX2                !
 ! D74   D(10,13,44,17)       -179.9981         estimate D2E/DX2                !
 ! D75   D(22,13,44,14)       -179.9939         estimate D2E/DX2                !
 ! D76   D(22,13,44,17)          0.001          estimate D2E/DX2                !
 ! D77   D(11,14,23,15)          0.0221         estimate D2E/DX2                !
 ! D78   D(11,14,23,18)       -179.9904         estimate D2E/DX2                !
 ! D79   D(44,14,23,15)       -179.9955         estimate D2E/DX2                !
 ! D80   D(44,14,23,18)         -0.008          estimate D2E/DX2                !
 ! D81   D(11,14,44,13)         -0.012          estimate D2E/DX2                !
 ! D82   D(11,14,44,17)        179.993          estimate D2E/DX2                !
 ! D83   D(23,14,44,13)       -179.9956         estimate D2E/DX2                !
 ! D84   D(23,14,44,17)          0.0095         estimate D2E/DX2                !
 ! D85   D(12,15,23,14)         -0.0092         estimate D2E/DX2                !
 ! D86   D(12,15,23,18)       -179.9964         estimate D2E/DX2                !
 ! D87   D(35,15,23,14)        179.991          estimate D2E/DX2                !
 ! D88   D(35,15,23,18)          0.0039         estimate D2E/DX2                !
 ! D89   D(24,16,22,3)           0.0059         estimate D2E/DX2                !
 ! D90   D(24,16,22,13)       -179.9829         estimate D2E/DX2                !
 ! D91   D(25,16,22,3)        -179.9999         estimate D2E/DX2                !
 ! D92   D(25,16,22,13)          0.0113         estimate D2E/DX2                !
 ! D93   D(22,16,24,4)           0.0019         estimate D2E/DX2                !
 ! D94   D(22,16,24,19)        179.9936         estimate D2E/DX2                !
 ! D95   D(25,16,24,4)        -179.9925         estimate D2E/DX2                !
 ! D96   D(25,16,24,19)         -0.0008         estimate D2E/DX2                !
 ! D97   D(22,16,25,17)         -0.005          estimate D2E/DX2                !
 ! D98   D(22,16,25,20)       -179.9929         estimate D2E/DX2                !
 ! D99   D(24,16,25,17)        179.9893         estimate D2E/DX2                !
 ! D100  D(24,16,25,20)          0.0013         estimate D2E/DX2                !
 ! D101  D(26,17,25,16)       -179.9962         estimate D2E/DX2                !
 ! D102  D(26,17,25,20)         -0.008          estimate D2E/DX2                !
 ! D103  D(44,17,25,16)         -0.003          estimate D2E/DX2                !
 ! D104  D(44,17,25,20)        179.9852         estimate D2E/DX2                !
 ! D105  D(25,17,26,18)        179.9954         estimate D2E/DX2                !
 ! D106  D(25,17,26,21)          0.0108         estimate D2E/DX2                !
 ! D107  D(44,17,26,18)          0.0021         estimate D2E/DX2                !
 ! D108  D(44,17,26,21)       -179.9825         estimate D2E/DX2                !
 ! D109  D(25,17,44,13)          0.0049         estimate D2E/DX2                !
 ! D110  D(25,17,44,14)        179.9998         estimate D2E/DX2                !
 ! D111  D(26,17,44,13)        179.9986         estimate D2E/DX2                !
 ! D112  D(26,17,44,14)         -0.0065         estimate D2E/DX2                !
 ! D113  D(26,18,23,14)          0.0039         estimate D2E/DX2                !
 ! D114  D(26,18,23,15)        179.9907         estimate D2E/DX2                !
 ! D115  D(34,18,23,14)        179.9976         estimate D2E/DX2                !
 ! D116  D(34,18,23,15)         -0.0156         estimate D2E/DX2                !
 ! D117  D(23,18,26,17)         -0.0007         estimate D2E/DX2                !
 ! D118  D(23,18,26,21)        179.9827         estimate D2E/DX2                !
 ! D119  D(34,18,26,17)       -179.9942         estimate D2E/DX2                !
 ! D120  D(34,18,26,21)         -0.0107         estimate D2E/DX2                !
 ! D121  D(27,19,24,4)          -0.0072         estimate D2E/DX2                !
 ! D122  D(27,19,24,16)       -179.999          estimate D2E/DX2                !
 ! D123  D(28,19,24,4)         179.9902         estimate D2E/DX2                !
 ! D124  D(28,19,24,16)         -0.0015         estimate D2E/DX2                !
 ! D125  D(24,19,27,5)           0.0148         estimate D2E/DX2                !
 ! D126  D(24,19,27,30)       -179.9864         estimate D2E/DX2                !
 ! D127  D(28,19,27,5)        -179.9826         estimate D2E/DX2                !
 ! D128  D(28,19,27,30)          0.0163         estimate D2E/DX2                !
 ! D129  D(24,19,28,20)          0.0035         estimate D2E/DX2                !
 ! D130  D(24,19,28,31)       -179.9967         estimate D2E/DX2                !
 ! D131  D(27,19,28,20)       -179.9991         estimate D2E/DX2                !
 ! D132  D(27,19,28,31)          0.0007         estimate D2E/DX2                !
 ! D133  D(28,20,25,16)          0.0006         estimate D2E/DX2                !
 ! D134  D(28,20,25,17)       -179.9877         estimate D2E/DX2                !
 ! D135  D(29,20,25,16)        179.9894         estimate D2E/DX2                !
 ! D136  D(29,20,25,17)          0.0011         estimate D2E/DX2                !
 ! D137  D(25,20,28,19)         -0.003          estimate D2E/DX2                !
 ! D138  D(25,20,28,31)        179.9972         estimate D2E/DX2                !
 ! D139  D(29,20,28,19)       -179.9913         estimate D2E/DX2                !
 ! D140  D(29,20,28,31)          0.0089         estimate D2E/DX2                !
 ! D141  D(25,20,29,21)          0.0025         estimate D2E/DX2                !
 ! D142  D(25,20,29,32)       -179.9913         estimate D2E/DX2                !
 ! D143  D(28,20,29,21)        179.991          estimate D2E/DX2                !
 ! D144  D(28,20,29,32)         -0.0029         estimate D2E/DX2                !
 ! D145  D(29,21,26,17)         -0.0068         estimate D2E/DX2                !
 ! D146  D(29,21,26,18)       -179.9909         estimate D2E/DX2                !
 ! D147  D(33,21,26,17)       -179.9966         estimate D2E/DX2                !
 ! D148  D(33,21,26,18)          0.0193         estimate D2E/DX2                !
 ! D149  D(26,21,29,20)          0.0005         estimate D2E/DX2                !
 ! D150  D(26,21,29,32)        179.9942         estimate D2E/DX2                !
 ! D151  D(33,21,29,20)        179.9901         estimate D2E/DX2                !
 ! D152  D(33,21,29,32)         -0.0162         estimate D2E/DX2                !
 --------------------------------------------------------------------------------
 Trust Radius=3.00D-01 FncErr=1.00D-07 GrdErr=1.00D-07
 Number of steps in this run=    264 maximum allowed number of steps=    264.
 GradGradGradGradGradGradGradGradGradGradGradGradGradGradGradGradGradGrad

                          Input orientation:                          
 ---------------------------------------------------------------------
 Center     Atomic      Atomic             Coordinates (Angstroms)
 Number     Number       Type             X           Y           Z
 ---------------------------------------------------------------------
      1          6           0       -1.487342    1.255274    0.000000
      2          6           0       -0.114579    1.267573    0.000214
      3          6           0        0.637842    2.495615    0.000237
      4          6           0        2.761554    3.737816   -0.000096
      5          6           0        4.876369    4.985412   -0.000577
      6          6           0        2.060297    2.516154   -0.000014
      7          6           0        4.192364    3.771038   -0.000385
      8          6           0       -3.680332    2.523182   -0.000361
      9          6           0       -5.854424    3.764586   -0.000316
     10          6           0       -2.227169    2.491707   -0.000158
     11          6           0       -4.431403    3.732940   -0.000377
     12          6           0       -6.523170    4.989254   -0.000217
     13          6           0       -1.497229    3.665426    0.000042
     14          6           0       -3.770635    4.987756   -0.000065
     15          6           0       -5.831731    6.215386   -0.000158
     16          6           0        0.618765    4.984426    0.000243
     17          6           0       -1.488529    6.302410    0.000188
     18          6           0       -3.646057    7.473946   -0.000044
     19          6           0        2.763344    6.233835   -0.000066
     20          6           0        0.644264    7.488696    0.000097
     21          6           0       -1.486048    8.739497   -0.000106
     22          6           0       -0.072682    3.722583    0.000254
     23          6           0       -4.423380    6.225598   -0.000181
     24          6           0        2.039423    4.985716    0.000088
     25          6           0       -0.086819    6.245918    0.000262
     26          6           0       -2.247828    7.509622    0.000125
     27          6           0        4.183286    6.205843   -0.000242
     28          6           0        2.051167    7.464069   -0.000096
     29          6           0       -0.108077    8.718323   -0.000112
     30          1           0        4.736826    7.141709   -0.000134
     31          1           0        2.608212    8.398162   -0.000269
     32          1           0        0.450622    9.653867   -0.000382
     33          1           0       -2.024149    9.684844   -0.000104
     34          1           0       -4.210816    8.402296   -0.000186
     35          1           0       -6.391623    7.148101   -0.000098
     36          1           0       -7.613530    5.001882   -0.000063
     37          1           0       -6.417453    2.834207   -0.000272
     38          1           0       -4.208336    1.574068   -0.000359
     39          1           0       -2.035005    0.314677    0.000084
     40          1           0        0.442586    0.330166    0.000014
     41          1           0        2.607852    1.577080   -0.000179
     42          1           0        4.741811    2.832903   -0.000582
     43          1           0        5.965971    4.991361   -0.000799
     44         26           0       -2.251750    4.985817    0.000017
 ---------------------------------------------------------------------
                    Distance matrix (angstroms):
                    1          2          3          4          5
     1  C    0.000000
     2  C    1.372818   0.000000
     3  C    2.460661   1.440217   0.000000
     4  C    4.920988   3.791337   2.460328   0.000000
     5  C    7.376364   6.223494   4.915709   2.455390   0.000000
     6  C    3.765044   2.507795   1.422603   1.408623   3.745330
     7  C    6.211934   4.981675   3.776417   1.431196   1.393760
     8  C    2.533140   3.780364   4.318263   6.555397   8.903916
     9  C    5.036670   6.259464   6.615119   8.616019  10.800015
    10  C    1.440871   2.441627   2.865014   5.141998   7.528533
    11  C    3.847899   4.971218   5.218067   7.192959   9.391662
    12  C    6.269144   7.410867   7.582765   9.368681  11.399540
    13  C    2.410172   2.767927   2.434540   4.259398   6.508849
    14  C    4.375483   5.215986   5.064132   6.650702   8.647004
    15  C    6.593666   7.560866   7.462713   8.943316  10.778509
    16  C    4.282786   3.788507   2.488884   2.479028   4.257604
    17  C    5.047136   5.218939   4.360406   4.963904   6.499724
    18  C    6.582699   7.140757   6.567768   7.417287   8.878319
    19  C    6.546327   5.739878   4.300238   2.496019   2.454269
    20  C    6.587813   6.267233   4.993085   4.307204   4.917026
    21  C    7.484223   7.596748   6.595223   6.561930   7.387389
    22  C    2.844095   2.455367   1.417849   2.834277   5.107626
    23  C    5.772732   6.568697   6.287188   7.603442   9.382078
    24  C    5.133641   4.297012   2.857452   1.441779   2.836946
    25  C    5.183434   4.978422   3.819674   3.795234   5.120753
    26  C    6.300413   6.596509   5.785098   6.270600   7.558163
    27  C    7.527559   6.546613   5.131857   2.848241   1.403502
    28  C    7.146340   6.564070   5.165562   3.793364   3.758392
    29  C    7.589432   7.450753   6.267256   5.748063   6.227305
    30  H    8.566818   7.618504   6.195794   3.935503   2.160808
    31  H    8.233736   7.632751   6.222734   4.662868   4.097731
    32  H    8.619284   8.405318   7.160700   6.351382   6.432862
    33  H    8.446645   8.631159   7.666238   7.633485   8.348761
    34  H    7.648348   8.226994   7.641883   8.388761   9.708349
    35  H    7.666641   8.601273   8.429650   9.767839  11.473660
    36  H    7.181034   8.377311   8.623602  10.451805  12.489910
    37  H    5.176778   6.494657   7.063415   9.223376  11.496873
    38  H    2.739605   4.105214   4.933020   7.298025   9.704078
    39  H    1.088420   2.143839   3.449725   5.892780   8.341634
    40  H    2.140197   1.090488   2.174234   4.121855   6.428821
    41  H    4.107818   2.739967   2.173625   2.166196   4.094252
    42  H    6.425828   5.102429   4.117806   2.177221   2.156710
    43  H    8.337279   7.130195   5.883681   3.440881   1.089618
    44  Fe   3.808053   4.288687   3.814558   5.166306   7.128119
                    6          7          8          9         10
     6  C    0.000000
     7  C    2.473953   0.000000
     8  C    5.740633   7.970978   0.000000
     9  C    8.012576  10.046789   2.503549   0.000000
    10  C    4.287535   6.545768   1.453504   3.844112   0.000000
    11  C    6.604751   8.623851   1.423946   1.423372   2.529685
    12  C    8.932643  10.784559   3.763407   1.395361   4.969242
    13  C    3.738558   5.690573   2.463871   4.358323   1.382183
    14  C    6.333133   8.055417   2.466228   2.416262   2.934714
    15  C    8.715987  10.317816   4.273276   2.450906   5.182534
    16  C    2.858387   3.773979   4.953783   6.587123   3.783251
    17  C    5.189402   6.219356   4.368817   5.049910   3.881629
    18  C    7.559244   8.669047   4.950883   4.316971   5.180343
    19  C    3.783573   2.847361   7.435719   8.964548   6.237687
    20  C    5.170233   5.139065   6.584714   7.490123   5.763248
    21  C    7.162859   7.545194   6.592227   6.620608   6.291593
    22  C    2.450524   4.265321   3.801803   5.781894   2.481304
    23  C    7.469808   8.958565   3.776242   2.846835   4.331892
    24  C    2.469650   2.471962   6.227333   7.987739   4.942053
    25  C    4.303631   4.943322   5.174177   6.278716   4.321481
    26  C    6.595048   7.446683   5.188126   5.199311   5.017958
    27  C    4.256863   2.434822   8.683230  10.330312   7.408693
    28  C    4.947924   4.268865   7.567196   8.728376   6.559615
    29  C    6.570293   6.555106   7.151279   7.586832   6.577333
    30  H    5.344115   3.414361   9.601008  11.116633   8.373753
    31  H    5.907472   4.890788   8.605881   9.648121   7.633290
    32  H    7.316966   6.971965   8.240841   8.627702   7.646378
    33  H    8.250625   8.580101   7.350670   7.051274   7.196001
    34  H    8.600786   9.594894   5.902999   4.920346   6.234575
    35  H    9.637940  11.109695   5.361061   3.425895   6.246974
    36  H    9.988081  11.869882   4.649085   2.150664   5.942547
    37  H    8.483714  10.651096   2.754735   1.087477   4.204258
    38  H    6.339028   8.683227   1.086096   2.740068   2.183365
    39  H    4.649516   7.122257   2.754015   5.146827   2.185495
    40  H    2.719473   5.089246   4.669879   7.172696   3.435091
    41  H    1.087050   2.706313   6.358960   8.740440   4.920769
    42  H    2.700158   1.087194   8.427837  10.637116   6.977328
    43  H    4.623953   2.152875   9.957062  11.883884   8.565968
    44  Fe   4.969203   6.557613   2.847002   3.804032   2.494231
                   11         12         13         14         15
    11  C    0.000000
    12  C    2.440044   0.000000
    13  C    2.934951   5.197365   0.000000
    14  C    1.418161   2.752535   2.630006   0.000000
    15  C    2.850168   1.407654   5.028937   2.398999   0.000000
    16  C    5.202924   7.141937   2.493430   4.389401   6.566899
    17  C    3.906749   5.203075   2.636998   2.633690   4.344074
    18  C    3.822551   3.801510   4.372904   2.489309   2.522131
    19  C    7.617012   9.369543   4.974858   6.651736   8.595095
    20  C    6.314120   7.590740   4.382166   5.074055   6.599988
    21  C    5.808677   6.279882   5.074083   4.392596   5.025544
    22  C    4.358734   6.573679   1.425693   3.908391   6.275406
    23  C    2.492671   2.436733   3.888038   1.399403   1.408389
    24  C    6.590982   8.562594   3.775060   5.810059   7.966628
    25  C    5.019011   6.557882   2.940781   3.892746   5.744993
    26  C    4.362491   4.962943   3.916790   2.945972   3.810434
    27  C    8.962595  10.775355   6.222697   8.046651  10.015021
    28  C    7.479642   8.924347   5.198154   6.326571   7.981184
    29  C    6.598879   7.420201   5.240374   5.227950   6.246993
    30  H    9.781418  11.463882   7.137786   8.775899  10.609076
    31  H    8.445146   9.746938   6.265256   7.233295   8.717635
    32  H    7.674083   8.390018   6.297265   6.292186   7.161782
    33  H    6.420283   6.503057   6.042436   5.011272   5.151196
    34  H    4.674564   4.122601   5.459074   3.442796   2.722120
    35  H    3.937739   2.162852   6.007006   3.396567   1.087858
    36  H    3.425806   1.090433   6.260611   3.842921   2.155783
    37  H    2.179934   2.157638   4.989943   3.412245   3.431536
    38  H    2.170366   4.125767   3.424015   3.441635   4.917037
    39  H    4.174595   6.480378   3.393630   4.984985   7.016659
    40  H    5.944294   8.380265   3.858347   6.280475   8.602492
    41  H    7.361986   9.747743   4.605744   7.233105   9.630184
    42  H    9.217263  11.469510   6.294340   8.780953  11.101396
    43  H   10.473252  12.489141   7.580070   9.736606  11.861029
    44  Fe   2.514078   4.271421   1.520768   1.518886   3.785248
                   16         17         18         19         20
    16  C    0.000000
    17  C    2.485512   0.000000
    18  C    4.938261   2.455081   0.000000
    19  C    2.481984   4.252426   6.528269   0.000000
    20  C    2.504399   2.440509   4.290347   2.462758   0.000000
    21  C    4.304741   2.437089   2.503449   4.933121   2.470372
    22  C    1.438870   2.942810   5.180901   3.788064   3.833747
    23  C    5.192661   2.935855   1.470579   7.186729   5.222684
    24  C    1.420659   3.765651   6.206124   1.442866   2.865550
    25  C    1.445410   1.402848   3.765133   2.850189   1.441867
    26  C    3.820206   1.426147   1.398684   5.171023   2.892168
    27  C    3.767979   5.672637   7.931374   1.420217   3.764357
    28  C    2.863635   3.725440   5.697232   1.421504   1.407118
    29  C    3.803983   2.782497   3.750437   3.797070   1.441528
    30  H    4.648903   6.281678   8.389465   2.172295   4.107245
    31  H    3.951138   4.601681   6.322188   2.169880   2.164306
    32  H    4.672467   3.872024   4.640564   4.128595   2.173813
    33  H    5.392488   3.424580   2.742016   5.901657   3.455937
    34  H    5.916645   3.438077   1.086640   7.303502   4.940291
    35  H    7.336691   4.975492   2.764834   9.200506   7.044127
    36  H    8.232313   6.261550   4.674606  10.449748   8.624118
    37  H    7.357432   6.026833   5.404425   9.790021   8.457666
    38  H    5.910283   5.454775   5.926611   8.385568   7.650526
    39  H    5.371131   6.012618   7.338298   7.619749   7.658004
    40  H    4.657593   6.276695   8.231075   6.343439   7.161370
    41  H    3.945437   6.253725   8.595604   4.659350   6.229195
    42  H    4.650652   7.131243   9.586220   3.934548   6.202120
    43  H    5.347210   7.568911   9.927452   3.435194   5.878540
    44  Fe   2.870516   1.521816   2.852171   5.168048   3.827702
                   21         22         23         24         25
    21  C    0.000000
    22  C    5.212200   0.000000
    23  C    3.866213   5.019328   0.000000
    24  C    5.149740   2.460994   6.580663   0.000000
    25  C    2.859332   2.523375   4.336608   2.471643   0.000000
    26  C    1.446686   4.367256   2.526211   4.975000   2.503379
    27  C    6.209730   4.927458   8.606688   2.466750   4.270293
    28  C    3.760134   4.302262   6.591931   2.478382   2.460666
    29  C    1.378134   4.995866   4.983525   4.306288   2.472497
    30  H    6.424725   5.900999   9.205902   3.453156   4.906118
    31  H    4.108464   5.389641   7.359573   3.459524   3.448963
    32  H    2.141673   5.954324   5.958936   4.931118   3.450066
    33  H    1.087765   6.273498   4.209832   6.212441   3.947082
    34  H    2.745554   6.246909   2.187052   7.123097   4.653743
    35  H    5.157248   7.187711   2.173705   8.703933   6.369026
    36  H    7.177451   7.648594   3.416803   9.652967   7.628827
    37  H    7.693582   6.406663   3.934191   8.726267   7.191432
    38  H    7.665131   4.660445   4.656499   7.118556   6.230015
    39  H    8.442686   3.932497   6.375212   6.198352   6.243000
    40  H    8.627657   3.431325   7.644196   4.921791   5.939393
    41  H    8.249863   3.433431   8.428934   3.455707   5.390668
    42  H    8.583361   4.896006   9.772978   3.455069   5.913066
    43  H    8.341529   6.170505  10.462406   3.926552   6.181438
    44  Fe   3.830981   2.518749   2.500606   4.291174   2.504951
                   26         27         28         29         30
    26  C    0.000000
    27  C    6.561941   0.000000
    28  C    4.299236   2.475695   0.000000
    29  C    2.457539   4.972761   2.497095   0.000000
    30  H    6.994338   1.087314   2.704937   5.094978   0.000000
    31  H    4.936662   2.699466   1.087579   2.735092   2.471775
    32  H    3.446653   5.081500   2.712371   1.089672   4.968147
    33  H    2.186692   7.115876   4.641125   2.146042   7.223457
    34  H    2.156430   8.676713   6.331880   4.114893   9.036005
    35  H    4.159535  10.616805   8.448700   6.476770  11.128451
    36  H    5.922796  11.858093   9.973401   8.375188  12.534359
    37  H    6.264605  11.124009   9.651587   8.627343  11.957111
    38  H    6.250952   9.585022   8.594969   8.237264  10.536344
    39  H    7.198092   8.565802   8.234720   8.621736   9.615927
    40  H    7.667001   6.965372   7.313009   8.406212   8.052180
    41  H    7.666335   4.889524   5.913252   7.640264   5.957989
    42  H    8.409921   3.418871   5.356050   7.626243   4.308809
    43  H    8.591166   2.157066   4.630332   7.126310   2.476851
    44  Fe   2.523808   6.549668   4.965564   4.304293   7.313554
                   31         32         33         34         35
    31  H    0.000000
    32  H    2.496395   0.000000
    33  H    4.807736   2.474965   0.000000
    34  H    6.819030   4.826535   2.535043   0.000000
    35  H    9.086236   7.286644   5.050732   2.515735   0.000000
    36  H   10.771199   9.309754   7.291866   4.810538   2.469679
    37  H   10.602840   9.678750   8.138325   5.989395   4.313971
    38  H    9.645392   9.326792   8.399724   6.828229   5.986367
    39  H    9.322134   9.664306   9.370173   8.375186   8.104061
    40  H    8.353591   9.323704   9.674439   9.317372   9.653530
    41  H    6.821082   8.359912   9.337627   9.647684  10.584273
    42  H    5.960231   8.058527   9.629502  10.543609  11.940448
    43  H    4.783391   7.222051   9.266650  10.733195  12.544387
    44  Fe   5.938294   5.393840   4.704536   3.938308   4.670548
                   36         37         38         39         40
    36  H    0.000000
    37  H    2.475765   0.000000
    38  H    4.831693   2.543256   0.000000
    39  H    7.286277   5.055085   2.511858   0.000000
    40  H    9.312676   7.302763   4.814391   2.477639   0.000000
    41  H   10.779885   9.112436   6.816188   4.811421   2.498633
    42  H   12.544279  11.159264   9.038241   7.229571   4.974639
    43  H   13.579505  12.569904  10.732866   9.267523   7.227345
    44  Fe   5.361804   4.688550   3.932971   4.676166   5.379083
                   41         42         43         44
    41  H    0.000000
    42  H    2.476061   0.000000
    43  H    4.788975   2.481433   0.000000
    44  Fe   5.935926   7.317441   8.217723   0.000000
 Stoichiometry    C29H14Fe
 Framework group  C1[X(C29H14Fe)]
 Deg. of freedom   126
 Full point group                 C1      NOp   1
 Largest Abelian subgroup         C1      NOp   1
 Largest concise Abelian subgroup C1      NOp   1
                         Standard orientation:                         
 ---------------------------------------------------------------------
 Center     Atomic      Atomic             Coordinates (Angstroms)
 Number     Number       Type             X           Y           Z
 ---------------------------------------------------------------------
      1          6           0        0.540106   -3.733992   -0.000064
      2          6           0       -0.832658   -3.721825   -0.000279
      3          6           0       -1.585197   -2.493856   -0.000302
      4          6           0       -3.709027   -1.251858    0.000031
      5          6           0       -5.823963   -0.004466    0.000512
      6          6           0       -3.007653   -2.473453   -0.000050
      7          6           0       -5.139841   -1.218774    0.000320
      8          6           0        2.732975   -2.465874    0.000296
      9          6           0        4.906947   -1.224262    0.000252
     10          6           0        1.279815   -2.497489    0.000093
     11          6           0        3.483930   -1.256045    0.000313
     12          6           0        5.575576    0.000470    0.000152
     13          6           0        0.549762   -1.323840   -0.000107
     14          6           0        2.823041   -0.001292    0.000000
     15          6           0        4.884020    1.226536    0.000093
     16          6           0       -1.566358   -0.005043   -0.000308
     17          6           0        0.540809    1.313143   -0.000253
     18          6           0        2.698225    2.484887   -0.000021
     19          6           0       -3.711058    1.244160    0.000002
     20          6           0       -1.592098    2.499224   -0.000161
     21          6           0        0.538094    3.750230    0.000041
     22          6           0       -0.874790   -1.266820   -0.000318
     23          6           0        3.475667    1.236613    0.000117
     24          6           0       -2.987017   -0.003889   -0.000153
     25          6           0       -0.860895    1.256517   -0.000327
     26          6           0        1.299992    2.520428   -0.000189
     27          6           0       -5.130996    1.216032    0.000178
     28          6           0       -2.998998    2.474463    0.000032
     29          6           0       -0.839875    3.728924    0.000047
     30          1           0       -5.684627    2.151845    0.000070
     31          1           0       -3.556133    3.408502    0.000204
     32          1           0       -1.398664    4.664414    0.000317
     33          1           0        1.076105    4.695629    0.000040
     34          1           0        3.262895    3.413291    0.000122
     35          1           0        5.443822    2.159305    0.000033
     36          1           0        6.665935    0.013203   -0.000002
     37          1           0        5.470066   -2.154586    0.000208
     38          1           0        3.261069   -3.414938    0.000294
     39          1           0        1.087859   -4.674537   -0.000148
     40          1           0       -1.389733   -4.659286   -0.000079
     41          1           0       -3.555118   -3.412580    0.000115
     42          1           0       -5.689198   -2.156962    0.000517
     43          1           0       -6.913565    0.001379    0.000734
     44         26           0        1.304157   -0.003376   -0.000081
 ---------------------------------------------------------------------
 Rotational constants (GHZ):      0.3074629      0.1347448      0.0936868
 Standard basis: VSTO-6G (5D, 7F)
 There are   140 symmetry adapted cartesian basis functions of A   symmetry.
 There are   139 symmetry adapted basis functions of A   symmetry.
   139 basis functions,   840 primitive gaussians,   140 cartesian basis functions
    69 alpha electrons       69 beta electrons
       nuclear repulsion energy      1344.3202321718 Hartrees.
 Integral buffers will be    262144 words long.
 Regular integral format.
 Two-electron integral symmetry is turned off.
 Do NDO integrals.
 One-electron integrals computed using PRISM.
 NBasis=   139 RedAO= F EigKep=  0.00D+00  NBF=   139
 NBsUse=   139 1.00D-04 EigRej=  0.00D+00 NBFU=   139
 Simple Huckel Guess.
 Keep J ints in memory in canonical form, NReq=2092071.
 Gradient too large for Newton-Raphson -- use scaled steepest descent instead.
     Minimum is close to point  5 DX=  3.36D-04 DF= -4.35D-07 DXR=  4.19D-04 DFR=  1.64D-07 which will be used.
 Gradient too large for Newton-Raphson -- use scaled steepest descent instead.
     Accept linear search using points  1 and  2.
 Gradient too large for Newton-Raphson -- use scaled steepest descent instead.
     Minimum is close to point  4 DX=  6.33D-02 DF= -1.37D-03 DXR=  5.44D-02 DFR=  2.97D-03 which will be used.
 Gradient too large for Newton-Raphson -- use scaled steepest descent instead.
     Accept linear search using points  2 and  3.
 Gradient too large for Newton-Raphson -- use scaled steepest descent instead.
 Gradient too large for Newton-Raphson -- use scaled steepest descent instead.
     Accept linear search using points  1 and  2.
 Gradient too large for Newton-Raphson -- use scaled steepest descent instead.
     Accept linear search using points  2 and  3.
 Gradient too large for Newton-Raphson -- use scaled steepest descent instead.
     Accept linear search using points  1 and  2.
 Gradient too large for Newton-Raphson -- use scaled steepest descent instead.
     Accept linear search using points  2 and  3.
     Minimum is close to point  3 DX= -1.05D-01 DF= -3.16D-05 DXR=  6.56D-02 DFR=  3.03D-03 which will be used.
 Gradient too large for Newton-Raphson -- use scaled steepest descent instead.
     Accept linear search using points  1 and  2.
 Gradient too large for Newton-Raphson -- use scaled steepest descent instead.
     Minimum is close to point  3 DX=  7.82D-02 DF= -1.02D-05 DXR=  3.96D-02 DFR=  1.54D-03 which will be used.
 Gradient too large for Newton-Raphson -- use scaled steepest descent instead.
     Accept linear search using points  1 and  2.
 Gradient too large for Newton-Raphson -- use scaled steepest descent instead.
     Accept linear search using points  2 and  3.
 Gradient too large for Newton-Raphson -- use scaled steepest descent instead.
     Accept linear search using points  1 and  2.
 Gradient too large for Newton-Raphson -- use scaled steepest descent instead.
 Gradient too large for Newton-Raphson -- use scaled steepest descent instead.
     Accept linear search using points  1 and  2.
 Gradient too large for Newton-Raphson -- use scaled steepest descent instead.
 Gradient too large for Newton-Raphson -- use scaled steepest descent instead.
     Accept linear search using points  1 and  2.
 Gradient too large for Newton-Raphson -- use scaled steepest descent instead.
 Gradient too large for Newton-Raphson -- use scaled steepest descent instead.
     Accept linear search using points  1 and  2.
 Gradient too large for Newton-Raphson -- use scaled steepest descent instead.
 Gradient too large for Newton-Raphson -- use scaled steepest descent instead.
     Accept linear search using points  1 and  2.
 Gradient too large for Newton-Raphson -- use scaled steepest descent instead.
 Gradient too large for Newton-Raphson -- use scaled steepest descent instead.
     Accept linear search using points  1 and  2.
 Gradient too large for Newton-Raphson -- use scaled steepest descent instead.
 Gradient too large for Newton-Raphson -- use scaled steepest descent instead.
     Accept linear search using points  1 and  2.
     Minimum is close to point  2 DX= -8.82D-02 DF= -9.04D-06 DXR=  8.71D-02 DFR=  8.90D-03 which will be used.
 Gradient too large for Newton-Raphson -- use scaled steepest descent instead.
     Accept linear search using points  1 and  2.
     Minimum is close to point  2 DX= -4.74D-02 DF= -1.98D-06 DXR=  4.50D-02 DFR=  2.37D-03 which will be used.
 Gradient too large for Newton-Raphson -- use scaled steepest descent instead.
     Minimum is close to point  2 DX=  8.54D-02 DF= -4.14D-06 DXR=  7.87D-02 DFR=  6.23D-03 which will be used.
 Gradient too large for Newton-Raphson -- use scaled steepest descent instead.
 Gradient too large for Newton-Raphson -- use scaled steepest descent instead.
     Accept linear search using points  1 and  2.
 Gradient too large for Newton-Raphson -- use scaled steepest descent instead.
     Accept linear search using points  1 and  2.
     Minimum is close to point  2 DX= -3.43D-02 DF= -3.77D-07 DXR=  2.94D-02 DFR=  1.17D-03 which will be used.
 Gradient too large for Newton-Raphson -- use scaled steepest descent instead.
     Accept linear search using points  1 and  2.
     Minimum is close to point  2 DX= -5.63D-02 DF= -8.66D-07 DXR=  5.40D-02 DFR=  3.43D-03 which will be used.
 LinEq1:  Iter=  0 NonCon=     1 RMS=2.34D-04 Max=6.17D-03 NDo=     1
 AX will form     1 AO Fock derivatives at one time.
 LinEq1:  Iter=  1 NonCon=     1 RMS=1.68D-04 Max=5.40D-03 NDo=     1
 LinEq1:  Iter=  2 NonCon=     1 RMS=2.45D-05 Max=5.09D-04 NDo=     1
 LinEq1:  Iter=  3 NonCon=     1 RMS=6.22D-06 Max=1.65D-04 NDo=     1
 LinEq1:  Iter=  4 NonCon=     1 RMS=2.55D-06 Max=3.89D-05 NDo=     1
 LinEq1:  Iter=  5 NonCon=     1 RMS=7.77D-07 Max=1.41D-05 NDo=     1
 LinEq1:  Iter=  6 NonCon=     1 RMS=2.30D-07 Max=5.03D-06 NDo=     1
 LinEq1:  Iter=  7 NonCon=     1 RMS=7.43D-08 Max=9.14D-07 NDo=     1
 LinEq1:  Iter=  8 NonCon=     1 RMS=1.88D-08 Max=2.41D-07 NDo=     1
 LinEq1:  Iter=  9 NonCon=     0 RMS=4.75D-09 Max=6.61D-08 NDo=     1
 Linear equations converged to 9.829D-09 9.829D-08 after     9 iterations.
     Accept linear search using points  1 and  2.
     Minimum is close to point  2 DX= -6.81D-02 DF= -4.56D-06 DXR=  7.31D-02 DFR=  5.65D-03 which will be used.
 LinEq1:  Iter=  0 NonCon=     1 RMS=2.60D-05 Max=7.00D-04 NDo=     1
 LinEq1:  Iter=  1 NonCon=     1 RMS=1.20D-05 Max=2.89D-04 NDo=     1
 LinEq1:  Iter=  2 NonCon=     1 RMS=4.42D-06 Max=8.53D-05 NDo=     1
 LinEq1:  Iter=  3 NonCon=     1 RMS=2.37D-06 Max=4.00D-05 NDo=     1
 LinEq1:  Iter=  4 NonCon=     1 RMS=6.56D-07 Max=1.15D-05 NDo=     1
 LinEq1:  Iter=  5 NonCon=     1 RMS=2.66D-07 Max=6.11D-06 NDo=     1
 LinEq1:  Iter=  6 NonCon=     1 RMS=7.96D-08 Max=1.64D-06 NDo=     1
 LinEq1:  Iter=  7 NonCon=     1 RMS=2.34D-08 Max=4.17D-07 NDo=     1
 LinEq1:  Iter=  8 NonCon=     1 RMS=6.83D-09 Max=1.05D-07 NDo=     1
 LinEq1:  Iter=  9 NonCon=     0 RMS=2.05D-09 Max=3.72D-08 NDo=     1
 Linear equations converged to 9.829D-09 9.829D-08 after     9 iterations.
     Minimum is close to point  2 DX=  1.02D-02 DF= -7.18D-10 DXR=  1.01D-02 DFR=  1.02D-04 which will be used.
 LinEq1:  Iter=  0 NonCon=     1 RMS=2.78D-07 Max=7.44D-06 NDo=     1
 LinEq1:  Iter=  1 NonCon=     1 RMS=1.09D-07 Max=2.39D-06 NDo=     1
 LinEq1:  Iter=  2 NonCon=     1 RMS=3.31D-08 Max=5.52D-07 NDo=     1
 LinEq1:  Iter=  3 NonCon=     1 RMS=1.01D-08 Max=2.69D-07 NDo=     1
 LinEq1:  Iter=  4 NonCon=     1 RMS=3.87D-09 Max=8.02D-08 NDo=     1
 LinEq1:  Iter=  5 NonCon=     1 RMS=1.30D-09 Max=2.00D-08 NDo=     1
 LinEq1:  Iter=  6 NonCon=     1 RMS=6.13D-10 Max=1.34D-08 NDo=     1
 LinEq1:  Iter=  7 NonCon=     1 RMS=3.08D-10 Max=5.15D-09 NDo=     1
 LinEq1:  Iter=  8 NonCon=     1 RMS=1.03D-10 Max=2.19D-09 NDo=     1
 LinEq1:  Iter=  9 NonCon=     0 RMS=3.38D-11 Max=5.92D-10 NDo=     1
 Linear equations converged to 1.034D-10 1.034D-09 after     9 iterations.
 SCF Done:  E(RPM6) =  0.481826954557     a.u. after   36 cycles
            Convg  =    0.2878D-06                   110 Fock formations.
              S**2 =  0.0000                  -V/T =  1.0050

 **********************************************************************

            Population analysis using the SCF density.

 **********************************************************************

 Orbital symmetries:
       Occupied  (A) (A) (A) (A) (A) (A) (A) (A) (A) (A) (A) (A)
                 (A) (A) (A) (A) (A) (A) (A) (A) (A) (A) (A) (A)
                 (A) (A) (A) (A) (A) (A) (A) (A) (A) (A) (A) (A)
                 (A) (A) (A) (A) (A) (A) (A) (A) (A) (A) (A) (A)
                 (A) (A) (A) (A) (A) (A) (A) (A) (A) (A) (A) (A)
                 (A) (A) (A) (A) (A) (A) (A) (A) (A)
       Virtual   (A) (A) (A) (A) (A) (A) (A) (A) (A) (A) (A) (A)
                 (A) (A) (A) (A) (A) (A) (A) (A) (A) (A) (A) (A)
                 (A) (A) (A) (A) (A) (A) (A) (A) (A) (A) (A) (A)
                 (A) (A) (A) (A) (A) (A) (A) (A) (A) (A) (A) (A)
                 (A) (A) (A) (A) (A) (A) (A) (A) (A) (A) (A) (A)
                 (A) (A) (A) (A) (A) (A) (A) (A) (A) (A)
 The electronic state is 1-A.
 Alpha  occ. eigenvalues --   -1.15500  -1.14208  -1.12776  -1.09087  -1.07381
 Alpha  occ. eigenvalues --   -1.04419  -1.01428  -1.01071  -0.96354  -0.95882
 Alpha  occ. eigenvalues --   -0.95362  -0.94628  -0.91116  -0.89750  -0.87873
 Alpha  occ. eigenvalues --   -0.81818  -0.80615  -0.79994  -0.78634  -0.76413
 Alpha  occ. eigenvalues --   -0.75560  -0.73146  -0.71895  -0.68140  -0.66176
 Alpha  occ. eigenvalues --   -0.64018  -0.63422  -0.62169  -0.59441  -0.58872
 Alpha  occ. eigenvalues --   -0.58686  -0.58447  -0.58077  -0.57514  -0.56372
 Alpha  occ. eigenvalues --   -0.55141  -0.53660  -0.53363  -0.53042  -0.52374
 Alpha  occ. eigenvalues --   -0.51704  -0.50418  -0.49401  -0.48821  -0.48375
 Alpha  occ. eigenvalues --   -0.47843  -0.47226  -0.47065  -0.46808  -0.45814
 Alpha  occ. eigenvalues --   -0.45323  -0.44693  -0.44561  -0.42114  -0.41140
 Alpha  occ. eigenvalues --   -0.41016  -0.40514  -0.39671  -0.39380  -0.39076
 Alpha  occ. eigenvalues --   -0.35505  -0.34585  -0.34388  -0.33332  -0.32949
 Alpha  occ. eigenvalues --   -0.32148  -0.31264  -0.29575  -0.25427
 Alpha virt. eigenvalues --   -0.06863  -0.06202  -0.00743  -0.00514   0.01532
 Alpha virt. eigenvalues --    0.01991   0.02614   0.04577   0.05376   0.05591
 Alpha virt. eigenvalues --    0.05618   0.06166   0.06645   0.07252   0.08051
 Alpha virt. eigenvalues --    0.08566   0.10076   0.10234   0.10516   0.10787
 Alpha virt. eigenvalues --    0.11479   0.12178   0.13116   0.13536   0.13607
 Alpha virt. eigenvalues --    0.13944   0.14544   0.15177   0.15225   0.15531
 Alpha virt. eigenvalues --    0.15866   0.15969   0.16299   0.16468   0.16934
 Alpha virt. eigenvalues --    0.17079   0.17413   0.17539   0.17628   0.17905
 Alpha virt. eigenvalues --    0.18121   0.18343   0.18447   0.18507   0.18785
 Alpha virt. eigenvalues --    0.19187   0.19596   0.19684   0.19755   0.19910
 Alpha virt. eigenvalues --    0.20055   0.20187   0.20379   0.20571   0.20680
 Alpha virt. eigenvalues --    0.21008   0.21214   0.21512   0.21817   0.22120
 Alpha virt. eigenvalues --    0.22206   0.22614   0.23096   0.23499   0.23730
 Alpha virt. eigenvalues --    0.24769   0.25072   0.25460   0.25901   0.26144
          Condensed to atoms (all electrons):
               1          2          3          4          5          6
     1  C    3.976750   0.000000   0.000000   0.000000   0.000000   0.000000
     2  C    0.000000   4.317915   0.000000   0.000000   0.000000   0.000000
     3  C    0.000000   0.000000   3.669381   0.000000   0.000000   0.000000
     4  C    0.000000   0.000000   0.000000   3.707517   0.000000   0.000000
     5  C    0.000000   0.000000   0.000000   0.000000   3.956324   0.000000
     6  C    0.000000   0.000000   0.000000   0.000000   0.000000   4.446750
     7  C    0.000000   0.000000   0.000000   0.000000   0.000000   0.000000
     8  C    0.000000   0.000000   0.000000   0.000000   0.000000   0.000000
     9  C    0.000000   0.000000   0.000000   0.000000   0.000000   0.000000
    10  C    0.000000   0.000000   0.000000   0.000000   0.000000   0.000000
    11  C    0.000000   0.000000   0.000000   0.000000   0.000000   0.000000
    12  C    0.000000   0.000000   0.000000   0.000000   0.000000   0.000000
    13  C    0.000000   0.000000   0.000000   0.000000   0.000000   0.000000
    14  C    0.000000   0.000000   0.000000   0.000000   0.000000   0.000000
    15  C    0.000000   0.000000   0.000000   0.000000   0.000000   0.000000
    16  C    0.000000   0.000000   0.000000   0.000000   0.000000   0.000000
    17  C    0.000000   0.000000   0.000000   0.000000   0.000000   0.000000
    18  C    0.000000   0.000000   0.000000   0.000000   0.000000   0.000000
    19  C    0.000000   0.000000   0.000000   0.000000   0.000000   0.000000
    20  C    0.000000   0.000000   0.000000   0.000000   0.000000   0.000000
    21  C    0.000000   0.000000   0.000000   0.000000   0.000000   0.000000
    22  C    0.000000   0.000000   0.000000   0.000000   0.000000   0.000000
    23  C    0.000000   0.000000   0.000000   0.000000   0.000000   0.000000
    24  C    0.000000   0.000000   0.000000   0.000000   0.000000   0.000000
    25  C    0.000000   0.000000   0.000000   0.000000   0.000000   0.000000
    26  C    0.000000   0.000000   0.000000   0.000000   0.000000   0.000000
    27  C    0.000000   0.000000   0.000000   0.000000   0.000000   0.000000
    28  C    0.000000   0.000000   0.000000   0.000000   0.000000   0.000000
    29  C    0.000000   0.000000   0.000000   0.000000   0.000000   0.000000
    30  H    0.000000   0.000000   0.000000   0.000000   0.000000   0.000000
    31  H    0.000000   0.000000   0.000000   0.000000   0.000000   0.000000
    32  H    0.000000   0.000000   0.000000   0.000000   0.000000   0.000000
    33  H    0.000000   0.000000   0.000000   0.000000   0.000000   0.000000
    34  H    0.000000   0.000000   0.000000   0.000000   0.000000   0.000000
    35  H    0.000000   0.000000   0.000000   0.000000   0.000000   0.000000
    36  H    0.000000   0.000000   0.000000   0.000000   0.000000   0.000000
    37  H    0.000000   0.000000   0.000000   0.000000   0.000000   0.000000
    38  H    0.000000   0.000000   0.000000   0.000000   0.000000   0.000000
    39  H    0.000000   0.000000   0.000000   0.000000   0.000000   0.000000
    40  H    0.000000   0.000000   0.000000   0.000000   0.000000   0.000000
    41  H    0.000000   0.000000   0.000000   0.000000   0.000000   0.000000
    42  H    0.000000   0.000000   0.000000   0.000000   0.000000   0.000000
    43  H    0.000000   0.000000   0.000000   0.000000   0.000000   0.000000
    44  Fe   0.000000   0.000000   0.000000   0.000000   0.000000   0.000000
               7          8          9         10         11         12
     1  C    0.000000   0.000000   0.000000   0.000000   0.000000   0.000000
     2  C    0.000000   0.000000   0.000000   0.000000   0.000000   0.000000
     3  C    0.000000   0.000000   0.000000   0.000000   0.000000   0.000000
     4  C    0.000000   0.000000   0.000000   0.000000   0.000000   0.000000
     5  C    0.000000   0.000000   0.000000   0.000000   0.000000   0.000000
     6  C    0.000000   0.000000   0.000000   0.000000   0.000000   0.000000
     7  C    4.381572   0.000000   0.000000   0.000000   0.000000   0.000000
     8  C    0.000000   3.741795   0.000000   0.000000   0.000000   0.000000
     9  C    0.000000   0.000000   3.820922   0.000000   0.000000   0.000000
    10  C    0.000000   0.000000   0.000000   4.554805   0.000000   0.000000
    11  C    0.000000   0.000000   0.000000   0.000000   4.615261   0.000000
    12  C    0.000000   0.000000   0.000000   0.000000   0.000000   4.444860
    13  C    0.000000   0.000000   0.000000   0.000000   0.000000   0.000000
    14  C    0.000000   0.000000   0.000000   0.000000   0.000000   0.000000
    15  C    0.000000   0.000000   0.000000   0.000000   0.000000   0.000000
    16  C    0.000000   0.000000   0.000000   0.000000   0.000000   0.000000
    17  C    0.000000   0.000000   0.000000   0.000000   0.000000   0.000000
    18  C    0.000000   0.000000   0.000000   0.000000   0.000000   0.000000
    19  C    0.000000   0.000000   0.000000   0.000000   0.000000   0.000000
    20  C    0.000000   0.000000   0.000000   0.000000   0.000000   0.000000
    21  C    0.000000   0.000000   0.000000   0.000000   0.000000   0.000000
    22  C    0.000000   0.000000   0.000000   0.000000   0.000000   0.000000
    23  C    0.000000   0.000000   0.000000   0.000000   0.000000   0.000000
    24  C    0.000000   0.000000   0.000000   0.000000   0.000000   0.000000
    25  C    0.000000   0.000000   0.000000   0.000000   0.000000   0.000000
    26  C    0.000000   0.000000   0.000000   0.000000   0.000000   0.000000
    27  C    0.000000   0.000000   0.000000   0.000000   0.000000   0.000000
    28  C    0.000000   0.000000   0.000000   0.000000   0.000000   0.000000
    29  C    0.000000   0.000000   0.000000   0.000000   0.000000   0.000000
    30  H    0.000000   0.000000   0.000000   0.000000   0.000000   0.000000
    31  H    0.000000   0.000000   0.000000   0.000000   0.000000   0.000000
    32  H    0.000000   0.000000   0.000000   0.000000   0.000000   0.000000
    33  H    0.000000   0.000000   0.000000   0.000000   0.000000   0.000000
    34  H    0.000000   0.000000   0.000000   0.000000   0.000000   0.000000
    35  H    0.000000   0.000000   0.000000   0.000000   0.000000   0.000000
    36  H    0.000000   0.000000   0.000000   0.000000   0.000000   0.000000
    37  H    0.000000   0.000000   0.000000   0.000000   0.000000   0.000000
    38  H    0.000000   0.000000   0.000000   0.000000   0.000000   0.000000
    39  H    0.000000   0.000000   0.000000   0.000000   0.000000   0.000000
    40  H    0.000000   0.000000   0.000000   0.000000   0.000000   0.000000
    41  H    0.000000   0.000000   0.000000   0.000000   0.000000   0.000000
    42  H    0.000000   0.000000   0.000000   0.000000   0.000000   0.000000
    43  H    0.000000   0.000000   0.000000   0.000000   0.000000   0.000000
    44  Fe   0.000000   0.000000   0.000000   0.000000   0.000000   0.000000
              13         14         15         16         17         18
     1  C    0.000000   0.000000   0.000000   0.000000   0.000000   0.000000
     2  C    0.000000   0.000000   0.000000   0.000000   0.000000   0.000000
     3  C    0.000000   0.000000   0.000000   0.000000   0.000000   0.000000
     4  C    0.000000   0.000000   0.000000   0.000000   0.000000   0.000000
     5  C    0.000000   0.000000   0.000000   0.000000   0.000000   0.000000
     6  C    0.000000   0.000000   0.000000   0.000000   0.000000   0.000000
     7  C    0.000000   0.000000   0.000000   0.000000   0.000000   0.000000
     8  C    0.000000   0.000000   0.000000   0.000000   0.000000   0.000000
     9  C    0.000000   0.000000   0.000000   0.000000   0.000000   0.000000
    10  C    0.000000   0.000000   0.000000   0.000000   0.000000   0.000000
    11  C    0.000000   0.000000   0.000000   0.000000   0.000000   0.000000
    12  C    0.000000   0.000000   0.000000   0.000000   0.000000   0.000000
    13  C    3.313163   0.000000   0.000000   0.000000   0.000000   0.000000
    14  C    0.000000   3.445918   0.000000   0.000000   0.000000   0.000000
    15  C    0.000000   0.000000   3.834081   0.000000   0.000000   0.000000
    16  C    0.000000   0.000000   0.000000   3.563656   0.000000   0.000000
    17  C    0.000000   0.000000   0.000000   0.000000   3.379326   0.000000
    18  C    0.000000   0.000000   0.000000   0.000000   0.000000   3.872320
    19  C    0.000000   0.000000   0.000000   0.000000   0.000000   0.000000
    20  C    0.000000   0.000000   0.000000   0.000000   0.000000   0.000000
    21  C    0.000000   0.000000   0.000000   0.000000   0.000000   0.000000
    22  C    0.000000   0.000000   0.000000   0.000000   0.000000   0.000000
    23  C    0.000000   0.000000   0.000000   0.000000   0.000000   0.000000
    24  C    0.000000   0.000000   0.000000   0.000000   0.000000   0.000000
    25  C    0.000000   0.000000   0.000000   0.000000   0.000000   0.000000
    26  C    0.000000   0.000000   0.000000   0.000000   0.000000   0.000000
    27  C    0.000000   0.000000   0.000000   0.000000   0.000000   0.000000
    28  C    0.000000   0.000000   0.000000   0.000000   0.000000   0.000000
    29  C    0.000000   0.000000   0.000000   0.000000   0.000000   0.000000
    30  H    0.000000   0.000000   0.000000   0.000000   0.000000   0.000000
    31  H    0.000000   0.000000   0.000000   0.000000   0.000000   0.000000
    32  H    0.000000   0.000000   0.000000   0.000000   0.000000   0.000000
    33  H    0.000000   0.000000   0.000000   0.000000   0.000000   0.000000
    34  H    0.000000   0.000000   0.000000   0.000000   0.000000   0.000000
    35  H    0.000000   0.000000   0.000000   0.000000   0.000000   0.000000
    36  H    0.000000   0.000000   0.000000   0.000000   0.000000   0.000000
    37  H    0.000000   0.000000   0.000000   0.000000   0.000000   0.000000
    38  H    0.000000   0.000000   0.000000   0.000000   0.000000   0.000000
    39  H    0.000000   0.000000   0.000000   0.000000   0.000000   0.000000
    40  H    0.000000   0.000000   0.000000   0.000000   0.000000   0.000000
    41  H    0.000000   0.000000   0.000000   0.000000   0.000000   0.000000
    42  H    0.000000   0.000000   0.000000   0.000000   0.000000   0.000000
    43  H    0.000000   0.000000   0.000000   0.000000   0.000000   0.000000
    44  Fe   0.000000   0.000000   0.000000   0.000000   0.000000   0.000000
              19         20         21         22         23         24
     1  C    0.000000   0.000000   0.000000   0.000000   0.000000   0.000000
     2  C    0.000000   0.000000   0.000000   0.000000   0.000000   0.000000
     3  C    0.000000   0.000000   0.000000   0.000000   0.000000   0.000000
     4  C    0.000000   0.000000   0.000000   0.000000   0.000000   0.000000
     5  C    0.000000   0.000000   0.000000   0.000000   0.000000   0.000000
     6  C    0.000000   0.000000   0.000000   0.000000   0.000000   0.000000
     7  C    0.000000   0.000000   0.000000   0.000000   0.000000   0.000000
     8  C    0.000000   0.000000   0.000000   0.000000   0.000000   0.000000
     9  C    0.000000   0.000000   0.000000   0.000000   0.000000   0.000000
    10  C    0.000000   0.000000   0.000000   0.000000   0.000000   0.000000
    11  C    0.000000   0.000000   0.000000   0.000000   0.000000   0.000000
    12  C    0.000000   0.000000   0.000000   0.000000   0.000000   0.000000
    13  C    0.000000   0.000000   0.000000   0.000000   0.000000   0.000000
    14  C    0.000000   0.000000   0.000000   0.000000   0.000000   0.000000
    15  C    0.000000   0.000000   0.000000   0.000000   0.000000   0.000000
    16  C    0.000000   0.000000   0.000000   0.000000   0.000000   0.000000
    17  C    0.000000   0.000000   0.000000   0.000000   0.000000   0.000000
    18  C    0.000000   0.000000   0.000000   0.000000   0.000000   0.000000
    19  C    3.721194   0.000000   0.000000   0.000000   0.000000   0.000000
    20  C    0.000000   3.711800   0.000000   0.000000   0.000000   0.000000
    21  C    0.000000   0.000000   4.053362   0.000000   0.000000   0.000000
    22  C    0.000000   0.000000   0.000000   4.665154   0.000000   0.000000
    23  C    0.000000   0.000000   0.000000   0.000000   4.532631   0.000000
    24  C    0.000000   0.000000   0.000000   0.000000   0.000000   4.284341
    25  C    0.000000   0.000000   0.000000   0.000000   0.000000   0.000000
    26  C    0.000000   0.000000   0.000000   0.000000   0.000000   0.000000
    27  C    0.000000   0.000000   0.000000   0.000000   0.000000   0.000000
    28  C    0.000000   0.000000   0.000000   0.000000   0.000000   0.000000
    29  C    0.000000   0.000000   0.000000   0.000000   0.000000   0.000000
    30  H    0.000000   0.000000   0.000000   0.000000   0.000000   0.000000
    31  H    0.000000   0.000000   0.000000   0.000000   0.000000   0.000000
    32  H    0.000000   0.000000   0.000000   0.000000   0.000000   0.000000
    33  H    0.000000   0.000000   0.000000   0.000000   0.000000   0.000000
    34  H    0.000000   0.000000   0.000000   0.000000   0.000000   0.000000
    35  H    0.000000   0.000000   0.000000   0.000000   0.000000   0.000000
    36  H    0.000000   0.000000   0.000000   0.000000   0.000000   0.000000
    37  H    0.000000   0.000000   0.000000   0.000000   0.000000   0.000000
    38  H    0.000000   0.000000   0.000000   0.000000   0.000000   0.000000
    39  H    0.000000   0.000000   0.000000   0.000000   0.000000   0.000000
    40  H    0.000000   0.000000   0.000000   0.000000   0.000000   0.000000
    41  H    0.000000   0.000000   0.000000   0.000000   0.000000   0.000000
    42  H    0.000000   0.000000   0.000000   0.000000   0.000000   0.000000
    43  H    0.000000   0.000000   0.000000   0.000000   0.000000   0.000000
    44  Fe   0.000000   0.000000   0.000000   0.000000   0.000000   0.000000
              25         26         27         28         29         30
     1  C    0.000000   0.000000   0.000000   0.000000   0.000000   0.000000
     2  C    0.000000   0.000000   0.000000   0.000000   0.000000   0.000000
     3  C    0.000000   0.000000   0.000000   0.000000   0.000000   0.000000
     4  C    0.000000   0.000000   0.000000   0.000000   0.000000   0.000000
     5  C    0.000000   0.000000   0.000000   0.000000   0.000000   0.000000
     6  C    0.000000   0.000000   0.000000   0.000000   0.000000   0.000000
     7  C    0.000000   0.000000   0.000000   0.000000   0.000000   0.000000
     8  C    0.000000   0.000000   0.000000   0.000000   0.000000   0.000000
     9  C    0.000000   0.000000   0.000000   0.000000   0.000000   0.000000
    10  C    0.000000   0.000000   0.000000   0.000000   0.000000   0.000000
    11  C    0.000000   0.000000   0.000000   0.000000   0.000000   0.000000
    12  C    0.000000   0.000000   0.000000   0.000000   0.000000   0.000000
    13  C    0.000000   0.000000   0.000000   0.000000   0.000000   0.000000
    14  C    0.000000   0.000000   0.000000   0.000000   0.000000   0.000000
    15  C    0.000000   0.000000   0.000000   0.000000   0.000000   0.000000
    16  C    0.000000   0.000000   0.000000   0.000000   0.000000   0.000000
    17  C    0.000000   0.000000   0.000000   0.000000   0.000000   0.000000
    18  C    0.000000   0.000000   0.000000   0.000000   0.000000   0.000000
    19  C    0.000000   0.000000   0.000000   0.000000   0.000000   0.000000
    20  C    0.000000   0.000000   0.000000   0.000000   0.000000   0.000000
    21  C    0.000000   0.000000   0.000000   0.000000   0.000000   0.000000
    22  C    0.000000   0.000000   0.000000   0.000000   0.000000   0.000000
    23  C    0.000000   0.000000   0.000000   0.000000   0.000000   0.000000
    24  C    0.000000   0.000000   0.000000   0.000000   0.000000   0.000000
    25  C    4.675224   0.000000   0.000000   0.000000   0.000000   0.000000
[...]
 ,-0.00012490,0.00000006,-0.00004293,-0.00004387,-0.00000001,-0.0005413
 9,-0.00205657,-0.00000006,0.00083426,-0.00033545,0.00000026,0.00003601
 ,0.00002341,0.00000002,0.00044109,-0.00002754,0.,0.00014529,0.00010483
 ,-0.00000007,0.00013825,-0.00001653,-0.00000002,0.00019160,-0.00006308
 ,-0.00000002,0.00003217,0.00003200,0.,-0.00002120,-0.00002354,0.,-0.00
 001729,-0.00002428,0.00000002,-0.00001112,-0.00002848,0.,0.00000463,-0
 .00000682,0.,0.00000648,-0.00000583,0.,0.00003920,-0.00005063,0.000000
 02,0.00004719,-0.00000101,0.00000001,0.00003832,0.00004247,0.,0.000122
 44,0.00018248,0.00000005,-0.00020734,0.00112186,0.00000020,-0.09648206
 ,0.21061306,0.00000345,-0.00000238,0.00585431,0.00000715,-0.00001183,-
 0.04089336,-0.00000010,-0.00000132,0.00802996,-0.00000004,-0.00000004,
 -0.00003650,0.,0.,0.00002754,0.00000013,0.00000012,-0.00065646,0.00000
 003,0.,-0.00007716,0.00000027,-0.00000040,0.00032752,0.00000011,-0.000
 00004,-0.00004543,0.00000036,-0.00000032,0.00781429,0.00000004,0.00000
 021,-0.00081732,-0.00000002,0.00000015,0.00003738,0.00000002,0.0000001
 3,0.00009914,-0.00000016,-0.00000006,-0.00010778,-0.00000012,-0.000000
 07,0.00000685,-0.00000003,0.,0.00005525,-0.00000003,-0.00000003,-0.000
 00363,0.00000001,0.,0.00000286,0.,0.00000002,0.00005454,-0.00000003,-0
 .00000001,0.00002703,0.,0.,-0.00000136,0.00000022,0.00000006,0.0001627
 7,0.00000010,-0.00000009,-0.00000893,-0.00000001,-0.00000002,-0.000075
 20,0.00000002,0.00000002,-0.00007412,0.00000002,0.00000004,-0.00001014
 ,0.,0.,-0.00002909,0.00000002,-0.00000002,-0.00003362,0.,0.,-0.0000103
 6,0.,0.,0.00000552,0.,0.,0.00000829,0.,0.,0.00000445,0.,0.,0.00000376,
 0.,0.,0.00000191,0.,0.,-0.00000057,0.,0.,0.00001012,0.,0.,0.00000448,-
 0.00000001,0.00000002,0.00034050,-0.00000016,0.00000019,-0.00286677,-0
 .00001154,0.00001579,0.02210676,0.00003443,0.00031867,0.,-0.00098773,-
 0.00007762,-0.00000019,-0.03381896,0.02713717,0.00000626,0.00827930,-0
 .00801828,-0.00000062,0.00000075,-0.00014871,0.,-0.08694614,0.08434459
 ,0.00000985,-0.00092658,-0.00087247,-0.00000004,-0.00044855,0.00031417
 ,-0.00000005,-0.00040148,0.00022948,-0.00000011,0.00045384,-0.00006461
 ,0.00000014,0.00043986,-0.00032713,0.00000010,0.00004602,-0.00042206,0
 .,-0.00058148,0.00043481,0.00000004,0.00019176,-0.00006287,0.00000007,
 0.00027601,0.00016925,0.00000011,0.00022647,0.00075231,-0.00000003,-0.
 00011574,0.00003579,0.,0.00007293,0.00006513,0.,0.00057152,-0.00030043
 ,-0.00000007,0.00026461,0.00026389,-0.00000006,0.00002572,0.00001971,0
 .00000002,-0.00267872,-0.00110984,0.00000101,-0.00023767,0.00003369,-0
 .00000005,-0.00108673,-0.00145234,0.00000039,0.00013498,-0.00060930,-0
 .00000015,-0.00005016,-0.00006551,0.00000009,-0.00038586,0.00017205,0.
 00000003,-0.00034562,-0.00000603,0.00000004,-0.00001084,-0.00004763,0.
 ,0.00001468,0.00002006,0.,0.00003349,0.00001923,-0.00000001,0.00000912
 ,0.00001720,0.,-0.00000309,0.00000396,0.,-0.00000366,0.00000773,0.,-0.
 00001742,0.00002462,0.,-0.00002683,0.00000103,0.,-0.00001528,-0.000017
 10,0.,-0.00004064,-0.00005580,-0.00000002,-0.00001109,-0.00012606,0.00
 000002,-0.00055369,-0.00063996,0.00000010,0.11907045,-0.00023161,-0.00
 022740,0.00000004,0.00013338,0.00021617,0.00000009,0.01509709,-0.00311
 263,-0.00000229,0.00365296,-0.03897629,-0.00000230,0.00020252,-0.00067
 056,-0.00000002,0.08403287,-0.16825811,-0.00001665,0.00001683,-0.00090
 107,-0.00000002,0.00029321,-0.00022290,0.00000002,0.00028759,-0.000165
 62,0.00000006,-0.00031377,-0.00022570,-0.00000010,-0.00038308,0.000132
 04,-0.00000007,-0.00009316,0.00021656,-0.00000002,0.00078491,-0.000043
 45,-0.00000005,-0.00004106,0.00006835,0.,-0.00007177,-0.00003898,-0.00
 000003,-0.00085191,-0.00177866,0.00000012,0.00064188,-0.00000740,-0.00
 000008,0.00001499,0.00000154,0.,0.00058208,-0.00025137,-0.00000005,-0.
 00007948,-0.00025116,0.,-0.00003679,0.00000161,0.,-0.00078979,0.002825
 76,-0.00000007,-0.00004714,0.00001102,0.,-0.00093595,-0.00219443,-0.00
 000001,-0.00070231,0.00095193,0.00000012,-0.00003437,0.00013537,-0.000
 00001,-0.00035746,0.00028450,0.00000005,-0.00001855,0.00011331,0.,0.00
 001443,0.00007899,0.,-0.00002698,-0.00002915,0.,-0.00001929,-0.0000675
 0,0.00000001,-0.00001514,-0.00002418,0.,0.00001140,-0.00001486,0.,0.00
 001284,-0.00002649,0.,0.00002022,-0.00003521,0.,0.00004787,0.00000050,
 0.00000002,0.00002194,0.00003686,0.,0.00003619,0.00007772,0.00000002,0
 .00000583,0.00012187,0.00000001,-0.00060605,0.00009268,0.00000005,-0.0
 9931829,0.21217614,-0.00000008,-0.00000007,-0.00005137,-0.00000021,0.0
 0000012,-0.00241797,0.00000610,-0.00000378,0.00563555,0.00000017,-0.00
 000046,0.00658392,0.00000001,0.00000003,-0.00002985,0.00000948,-0.0000
 1686,-0.03860950,-0.00000009,0.00000010,-0.00112717,0.00000003,0.,-0.0
 0002313,0.00000012,-0.00000011,0.00001175,-0.00000017,-0.00000012,0.00
 016924,-0.00000002,-0.00000008,-0.00001166,-0.00000004,0.,-0.00001486,
 -0.00000027,-0.00000004,-0.00010577,0.00000018,0.00000004,0.00002724,0
 .00000011,0.00000010,0.00001183,-0.00000025,-0.00000062,0.00026462,0.0
 0000025,0.00000018,0.00009706,-0.00000001,0.00000002,0.00002405,-0.000
 00007,-0.00000002,-0.00013680,-0.00000001,-0.00000010,0.00002251,-0.00
 000006,-0.00000001,0.00000007,0.00000180,0.00000039,0.00606065,-0.0000
 0002,0.00000008,0.00006357,0.00000060,-0.00000004,0.00211671,-0.000000
 12,0.00000009,-0.00058245,-0.00000015,-0.00000003,0.00003727,0.0000000
 3,-0.00000004,-0.00013752,0.00000007,0.00000005,-0.00003614,0.,0.00000
 004,-0.00001252,0.,0.,0.00004930,-0.00000001,-0.00000001,0.00005121,0.
 ,-0.00000002,0.00000831,0.00000002,0.00000001,0.00000378,0.,0.00000001
 ,-0.00000252,-0.00000002,0.,-0.00000427,0.,0.,0.00000329,-0.00000002,0
 .00000001,0.00000183,0.,-0.00000002,-0.00002282,0.00000003,0.,0.000257
 48,0.00000009,0.00000009,0.00043363,-0.00001693,0.00002103,0.02115221,
 0.00002957,0.00007157,0.,-0.00001075,-0.00001671,0.00000001,-0.0006538
 2,0.00059695,0.00000013,-0.03173662,0.02527848,0.00000494,0.00714840,-
 0.00776235,-0.00000032,-0.00089191,0.00033595,-0.00000012,-0.08359127,
 0.08229925,0.00000609,-0.00016439,0.00010971,-0.00000001,-0.00010937,0
 .00006050,0.,0.00018132,0.00006218,0.00000008,0.00016771,-0.00010423,0
 .00000003,0.00005579,-0.00005221,0.,-0.00038160,0.00000386,0.00000001,
 0.00008071,-0.00001412,0.00000001,-0.00002409,-0.00001183,0.,0.0003886
 0,0.00061445,-0.00000005,-0.00029182,0.00003346,0.00000004,-0.00009204
 ,-0.00005858,0.,-0.00062927,0.00035605,0.00000009,-0.00047677,-0.00027
 898,0.00000007,0.00002373,-0.00003566,0.,0.00030881,-0.00072405,-0.000
 00012,0.00008684,0.00006611,0.00000001,-0.00345443,-0.00016627,0.00000
 105,0.00013515,0.00033692,-0.00000010,0.00009696,-0.00007034,0.0000000
 6,-0.00003208,-0.00196631,0.00000065,0.00056003,-0.00042147,-0.0000001
 7,-0.00002954,-0.00000764,0.00000002,0.00017228,-0.00018877,-0.0000000
 1,0.00001456,0.00002706,0.,0.00001543,0.00002105,0.,-0.00001266,0.0000
 2999,0.,-0.00001480,0.00002539,0.,-0.00001420,0.00002186,0.,-0.0000297
 3,-0.00000006,0.,-0.00001450,-0.00002155,0.,-0.00002013,-0.00003464,0.
 ,-0.00001563,-0.00005003,-0.00000001,0.00001924,-0.00003762,0.,-0.0006
 1063,-0.00072068,0.00000008,0.11327498,-0.00006626,-0.00001628,0.00000
 001,0.00009440,-0.00008880,-0.00000001,0.00039759,-0.00023743,-0.00000
 010,0.01323273,-0.00036532,-0.00000171,0.00526635,-0.04318935,-0.00000
 088,-0.00088510,-0.00079318,0.00000013,0.08220078,-0.17134323,-0.00001
 135,-0.00000265,0.00000251,-0.00000001,-0.00004302,0.00002916,-0.00000
 001,-0.00003039,-0.00014507,0.00000003,-0.00004956,-0.00005280,0.00000
 002,-0.00007458,-0.00016361,-0.00000002,0.00042620,-0.00001911,-0.0000
 0007,0.00002634,-0.00003805,0.00000002,0.00021296,0.00012175,0.0000000
 6,-0.00032632,0.00039271,0.00000004,0.00061029,0.00007392,-0.00000005,
 0.00020293,0.00013641,0.,0.00108843,-0.00065593,-0.00000009,0.00088213
 ,0.00050030,-0.00000017,-0.00001732,0.00008274,0.00000002,-0.00047278,
 -0.00000009,0.00000009,-0.00029132,-0.00006692,-0.00000005,0.00030291,
 -0.00002761,-0.00000011,-0.00065053,-0.00072308,0.00000011,-0.00023774
 ,0.00005990,0.,-0.00305414,-0.00107029,0.00000036,-0.00102246,0.000732
 76,0.00000011,0.00002224,-0.00000265,0.,0.00018861,-0.00035959,-0.0000
 0001,-0.00001990,-0.00002903,0.,-0.00001858,-0.00002344,0.,0.00001991,
 -0.00005261,0.,0.00002344,-0.00004035,0.,0.00001476,-0.00002242,0.,0.0
 0003754,0.00000117,0.00000001,0.00001675,0.00002979,0.,0.00001297,0.00
 003091,0.,0.00000792,0.00003159,0.,-0.00009658,0.00007340,0.00000001,-
 0.00059659,0.00007641,0.00000005,-0.09673388,0.21736995,0.,-0.00000001
 ,0.00000472,0.,0.,0.00004237,0.00000019,-0.00000012,0.00012570,0.00000
 540,-0.00000327,0.00585973,-0.00000013,0.00000117,0.00513639,-0.000000
 24,-0.00000008,-0.00181383,0.00000560,-0.00001162,-0.03914498,0.000000
 03,-0.00000002,0.00000963,0.,0.,0.00000724,-0.00000002,-0.00000001,-0.
 00002909,-0.00000004,0.00000002,-0.00001351,0.,0.00000001,-0.00000932,
 0.00000013,0.,0.00009113,-0.00000001,0.,-0.00001379,0.,0.,0.00000735,-
 0.00000005,-0.00000007,0.00001198,0.00000002,-0.00000002,0.00010251,0.
 ,0.,0.00000640,-0.00000018,-0.00000012,0.00033369,0.00000001,0.,0.0000
 0085,0.,0.,0.00000128,-0.00000019,0.00000013,-0.00020220,-0.00000002,0
 .,-0.00001181,0.00000101,0.00000023,0.00440943,-0.00000003,0.,-0.00020
 296,0.,0.00000001,-0.00002516,0.00000084,0.00000006,0.00486804,-0.0000
 0012,-0.00000002,-0.00083572,0.00000001,0.,0.00007636,-0.00000001,0.00
 000002,-0.00004118,0.,0.,0.00004924,0.,0.,0.00000548,0.,0.,-0.00000752
 ,0.,0.,0.00000747,0.,0.,0.00000091,0.,0.,0.00000236,0.,0.,0.00000219,0
 .,0.,0.00000589,0.,0.,-0.00000150,0.,0.,0.00003670,0.00000010,0.000000
 06,0.00043822,-0.00001217,0.00001351,0.02202903,0.00002265,0.00002528,
 0.,0.00000790,0.00006652,0.,-0.00026533,-0.00009185,0.00000004,-0.0015
 4637,-0.00139059,0.00000092,-0.21795970,0.00003843,0.00002176,0.000135
 35,0.00035311,-0.00000008,-0.02593436,-0.01413809,0.00000402,-0.000002
 61,0.00000603,0.00000002,-0.00008995,0.00004328,-0.00000002,0.00009155
 ,0.00009511,0.,0.00017570,0.00016672,0.00000003,0.00008305,0.00000055,
 0.00000002,-0.00056759,0.00007478,0.00000006,-0.00026300,0.00000058,-0
 .00000003,-0.00009112,-0.00004364,-0.00000002,-0.00129524,-0.00000007,
 0.00000010,-0.00056166,-0.00007516,0.00000006,-0.00000241,-0.00000629,
 0.00000002,-0.00152836,0.00139551,0.00000090,-0.00026173,0.00008966,0.
 00000004,0.00002293,-0.00002474,0.,0.00083259,0.00033885,-0.00000017,0
 .00017632,-0.00016768,0.00000003,0.00155366,-0.00000665,-0.00000024,0.
 00082333,-0.00033715,-0.00000016,0.00009135,-0.00009502,0.,-0.02587837
 ,0.01414363,0.00000394,0.00013043,-0.00035064,-0.00000008,0.00000682,-
 0.00006623,0.,0.00044046,0.00048681,-0.00000021,0.00002870,0.00005298,
 0.,0.00001572,0.00002682,0.,-0.00001076,0.00002567,0.,-0.00001529,0.00
 003003,0.,-0.00001286,0.00002253,0.,-0.00003823,0.00000005,-0.00000001
 ,-0.00001296,-0.00002254,0.,-0.00001524,-0.00002989,0.,-0.00001077,-0.
 00002596,0.,0.00001556,-0.00002678,0.,0.00002853,-0.00005393,0.,0.0004
 4008,-0.00049036,-0.00000021,0.27126279,0.00000276,-0.00001817,0.,-0.0
 0004299,-0.00000611,0.,0.00012692,-0.00014980,-0.00000002,-0.00075192,
 -0.00242531,0.00000008,0.00004606,-0.03416950,-0.00000004,-0.00068693,
 -0.00008649,0.00000009,-0.02947674,-0.00751743,0.00000371,0.00002125,-
 0.00001235,0.,0.00001810,-0.00000996,0.00000001,-0.00002548,0.00000392
 ,0.,-0.00001659,0.00001094,0.,-0.00000003,0.00002210,0.,0.00007823,-0.
 00001014,-0.00000003,0.00000034,0.00000771,0.,-0.00001803,-0.00000985,
 -0.00000001,0.00000026,-0.00007500,0.,-0.00007753,-0.00000999,0.000000
 03,-0.00002152,-0.00001256,0.,0.00074696,-0.00243048,-0.00000003,-0.00
 012683,-0.00014999,0.00000002,-0.00000285,-0.00001820,0.,-0.00009436,0
 .00011137,0.00000003,0.00001624,0.00001147,0.,0.00000031,0.00014233,0.
 ,0.00009338,0.00011111,-0.00000003,0.00002574,0.00000405,0.,0.02947524
 ,-0.00755939,-0.00000363,0.00068726,-0.00008678,-0.00000009,0.00004307
 ,-0.00000601,0.,0.00090463,-0.00030987,-0.00000012,0.00001505,0.000055
 59,0.,0.00000265,0.00000686,0.,0.00000063,0.00000598,0.,-0.00000138,0.
 00000249,0.,-0.00000013,-0.00000012,0.,0.00000002,0.00000002,0.,0.0000
 0014,-0.00000009,0.,0.00000145,0.00000249,0.,-0.00000061,0.00000601,0.
 ,-0.00000269,0.00000690,0.,-0.00001512,0.00005571,0.,-0.00090385,-0.00
 030823,0.00000011,-0.00004116,0.05481733,0.,0.,0.00000429,0.,-0.000000
 01,0.00004241,0.,0.00000003,-0.00019465,0.00000095,0.00000010,0.005860
 12,0.00002174,-0.00000006,-0.04396613,-0.00000007,-0.00000002,-0.00059
 149,0.00000404,0.00000175,0.00635510,0.,0.,0.00000390,0.,0.,0.00000395
 ,0.,-0.00000001,-0.00001882,-0.00000003,-0.00000002,-0.00000477,0.,0.,
 -0.00000433,0.00000009,0.,0.00006900,0.00000003,0.,-0.00002327,0.,0.,0
 .00000396,0.00000010,0.,-0.00065171,0.00000010,0.,0.00006826,0.,0.,0.0
 0000395,0.00000096,-0.00000005,0.00581220,0.00000002,-0.00000003,-0.00
 019031,0.,0.,0.00000432,-0.00000014,-0.00000008,-0.00002223,-0.0000000
 3,0.00000002,-0.00000475,-0.00000023,-0.00000001,-0.00004107,-0.000000
 15,0.00000008,-0.00002167,0.,0.00000001,-0.00001919,0.00000384,-0.0000
 0164,0.00636096,-0.00000008,0.00000002,-0.00059448,0.,0.00000001,0.000
 04266,-0.00000023,-0.00000007,-0.00130397,0.,0.,0.00009584,0.,0.,0.000
 00603,0.,0.,-0.00000306,0.,0.,0.00000346,0.,0.,0.00000063,0.,0.,0.0000
 0105,0.,0.,0.00000063,0.,0.,0.00000342,0.,0.,-0.00000302,0.,0.,0.00000
 604,0.,0.,0.00009678,-0.00000023,0.00000006,-0.00132182,-0.00003078,-0
 .00000008,0.02410178,-0.00252664,-0.00297105,0.00000039,0.00134754,-0.
 00044502,-0.00000010,0.00303429,-0.00583576,-0.00000186,0.00057615,0.0
 0247743,-0.00000002,0.00032996,-0.00007224,0.00000010,-0.00168232,-0.0
 0154241,-0.00000004,-0.00034986,-0.00002354,0.00000019,-0.00002005,0.0
 0459648,0.00000054,0.00769312,0.00199442,-0.00000005,0.00845948,0.0006
 0585,0.00001022,-0.02720442,-0.04721425,-0.00001121,-0.00194317,0.0000
 2690,0.00000026,-0.01005359,0.03980451,-0.00000209,-0.08136862,-0.0001
 0984,0.00000921,0.00764018,-0.00206521,-0.00000005,-0.00096366,-0.0002
 2193,0.00000134,-0.01007459,-0.03967703,-0.00000189,0.00005386,-0.0045
 7149,0.00000059,0.00070570,-0.00251780,-0.00000003,0.00312472,0.005953
 32,-0.00000192,-0.00252859,0.00293324,0.00000034,-0.04670307,-0.003957
 73,0.00000221,-0.02703549,0.04727623,-0.00001152,0.00308101,-0.0000375
 8,-0.00000137,-0.04715338,0.00387410,0.00000216,0.00837697,-0.00068716
 ,0.00001022,-0.00047137,0.00009625,0.00000020,-0.00177990,0.00159481,-
 0.00000003,0.00136746,0.00044218,-0.00000008,0.00010156,0.00010618,0.0
 0000005,0.00013317,0.00016262,-0.00000066,-0.00020127,-0.00012581,0.00
 000020,0.00058812,0.00030870,-0.00000036,-0.00085660,-0.00062088,-0.00
 000067,0.00048368,0.00113680,0.00000030,0.00052421,-0.00000002,0.00000
 075,0.00047686,-0.00113497,0.00000029,-0.00086022,0.00060349,-0.000000
 71,0.00058715,-0.00030951,-0.00000033,-0.00020051,0.00012294,0.0000001
 9,0.00013175,-0.00015914,-0.00000064,0.00010081,-0.00010605,0.00000005
 ,-0.00001591,0.00000022,0.00000006,0.21504191,0.00281014,0.00217081,0.
 00000025,-0.00209197,0.00069240,0.00000037,-0.00667732,0.00816604,0.00
 000293,-0.00594434,-0.00008910,0.00000062,0.00001357,-0.00615475,0.000
 00001,0.00299238,0.00300982,-0.00000013,0.00554425,0.00270086,-0.00000
 066,0.00386734,0.00130445,0.00000222,-0.00084805,-0.00086874,0.0000006
 2,-0.03205161,-0.03259404,-0.00000603,-0.01118655,-0.00889595,0.000001
 49,0.00001562,-0.00123603,0.,0.00770244,-0.06102431,0.00000376,-0.0004
 3136,-0.00613175,-0.00000016,0.00080465,-0.00087722,-0.00000061,-0.000
 00845,-0.03087799,0.00000011,-0.00733277,-0.06081066,-0.00000366,-0.00
 367463,0.00158724,-0.00000227,0.00596656,-0.00016009,-0.00000060,0.006
 72286,0.00835194,-0.00000296,-0.00278814,0.00211285,-0.00000026,0.0632
 1464,0.02039326,-0.00001467,0.01131463,-0.00940948,-0.00000140,0.00003
 866,-0.00477505,0.00000003,-0.06329150,0.02023648,0.00001469,0.0315113
 2,-0.03260108,0.00000616,-0.00557832,0.00271725,0.00000064,-0.00304295
 ,0.00299669,0.00000013,0.00212146,0.00067073,-0.00000039,-0.00002098,0
 .00010207,0.,0.00003297,-0.00013571,0.00000006,-0.00017040,-0.00033629
 ,0.00000015,0.00098271,0.00031940,0.00000007,0.00049780,-0.00138114,-0
 .00000032,0.00004084,-0.00003105,-0.00000002,-0.00000391,-0.00005157,0
 .,-0.00003321,-0.00002317,0.00000003,-0.00049051,-0.00135236,0.0000003
 6,-0.00098826,0.00031454,-0.00000005,0.00017036,-0.00033587,-0.0000001
 5,-0.00002688,-0.00015604,-0.00000003,0.00003171,0.00008964,0.,0.00000
 080,-0.00000811,0.,0.00028440,0.18252804,-0.00000180,-0.00000030,-0.00
 224159,0.00000044,-0.00000010,-0.00018194,0.00000186,-0.00000074,0.002
 55095,0.00000042,-0.00000097,0.00026767,-0.00000019,0.00000009,-0.0000
 1857,0.00000017,-0.00000023,-0.00047732,-0.00000019,-0.00000012,-0.000
 08845,0.00000009,0.00000401,-0.00677888,-0.00000103,-0.00000112,0.0039
 9905,0.00000499,-0.00000969,0.01378880,-0.00000622,-0.00000440,0.00287
 221,-0.00000037,-0.00000011,-0.00033349,0.00000075,0.00000492,-0.03806
 747,0.00000913,-0.00000014,-0.03377072,-0.00000084,0.00000127,0.004015
 82,-0.00000015,0.00000027,-0.00736985,0.00000035,-0.00000478,-0.038099
 44,0.00000014,-0.00000401,-0.00675807,0.00000024,0.00000102,0.00027534
 ,0.00000170,0.00000064,0.00270084,-0.00000178,0.00000026,-0.00221237,0
 .00000002,-0.00000767,0.00766581,-0.00000653,0.00000450,0.00294031,-0.
 00000203,0.00000005,0.00072493,0.00000084,0.00000733,0.00743107,0.0000
 0480,0.00000984,0.01365605,-0.00000002,0.00000002,-0.00008877,0.000000
 30,0.00000013,-0.00047045,0.00000043,0.00000010,-0.00018793,-0.0000000
 4,0.00000001,0.00000120,-0.00000005,-0.00000007,-0.00031552,-0.0000000
 5,-0.00000020,0.00028005,0.00000035,0.00000028,0.00037067,-0.00000031,
 0.00000055,0.00049981,-0.00000021,0.00000001,-0.00046746,0.00000042,0.
 ,-0.00067172,-0.00000020,-0.00000002,-0.00046790,-0.00000031,-0.000000
 55,0.00048023,0.00000035,-0.00000027,0.00037457,-0.00000006,0.00000021
 ,0.00028328,-0.00000005,0.00000006,-0.00029877,-0.00000004,-0.00000001
 ,0.00000178,0.00000007,0.,0.00002852,-0.00000545,-0.00000008,0.0739740
 0||0.00007227,-0.00005447,-0.00000001,-0.00009693,0.00000233,0.0000002
 6,-0.00008361,-0.00001246,0.00000009,-0.00000802,-0.00006068,0.0000000
 3,-0.00006019,-0.00006607,0.00000017,0.00010216,0.00009612,0.00000006,
 0.00001431,0.00009068,-0.00000008,-0.00000328,0.00003764,0.00000096,0.
 00007161,0.00000318,0.00000095,-0.00009783,-0.00003223,0.00000149,-0.0
 0005154,-0.00019243,0.00000174,0.00000173,0.00011197,0.00000025,0.0000
 4111,0.00017340,-0.00000210,0.00003341,0.00006858,-0.00000553,-0.00009
 558,-0.00007951,0.00000081,0.00004293,-0.00003777,0.00000007,0.0001894
 3,0.00007303,-0.00000196,0.00003849,0.00001923,0.00000065,0.00013176,0
 .00000850,0.00000001,0.00007014,-0.00000204,0.00000003,0.00001769,0.00
 001290,0.00000014,0.00007029,-0.00002057,0.00000173,0.00010961,0.00003
 700,0.00000199,-0.00000960,-0.00001560,0.,-0.00012627,0.00002814,0.000
 00162,-0.00012286,0.00002892,0.00000132,-0.00008957,0.00000192,-0.0000
 0009,-0.00003039,-0.00002803,0.00000011,-0.00004405,0.00001090,0.00000
 026,-0.00000698,-0.00000784,0.00000004,0.00000566,0.00001459,-0.000000
 02,0.00000304,0.00000477,-0.00000008,-0.00000145,-0.00001017,-0.000000
 19,0.00001758,-0.00001669,-0.00000035,0.00001251,0.00001613,-0.0000000
 9,-0.00000816,-0.00001917,-0.00000017,-0.00002194,-0.00000730,-0.00000
 006,0.00001722,-0.00000617,-0.00000054,0.00001698,0.00003131,-0.000000
 19,-0.00000891,0.00000396,-0.00000005,-0.00000096,-0.00002227,0.,-0.00
 001273,-0.00000305,0.,0.00000176,0.00000415,-0.00000008,-0.00010083,-0
 .00018484,-0.00000322|||@


 "MATHEMATICS IS THE ART OF GIVING THE SAME NAME
 TO DIFFERENT THINGS."
                    - H. POINCARE
 Job cpu time:       0 days  0 hours  0 minutes  6.0 seconds.
 File lengths (MBytes):  RWF=    380 Int=      0 D2E=      0 Chk=      4 Scr=      1
 Normal termination of Gaussian 09 at Wed Mar 11 11:24:58 2026.
