 Entering Link 1 = C:\Gaussian\G09W\l1.exe PID=     23688.
  
 Copyright (c) 1988,1990,1992,1993,1995,1998,2003,2009,2013,
            Gaussian, Inc.  All Rights Reserved.
  
 This is part of the Gaussian(R) 09 program.  It is based on
 the Gaussian(R) 03 system (copyright 2003, Gaussian, Inc.),
 the Gaussian(R) 98 system (copyright 1998, Gaussian, Inc.),
 the Gaussian(R) 94 system (copyright 1995, Gaussian, Inc.),
 the Gaussian 92(TM) system (copyright 1992, Gaussian, Inc.),
 the Gaussian 90(TM) system (copyright 1990, Gaussian, Inc.),
 the Gaussian 88(TM) system (copyright 1988, Gaussian, Inc.),
 the Gaussian 86(TM) system (copyright 1986, Carnegie Mellon
 University), and the Gaussian 82(TM) system (copyright 1983,
 Carnegie Mellon University). Gaussian is a federally registered
 trademark of Gaussian, Inc.
  
 This software contains proprietary and confidential information,
 including trade secrets, belonging to Gaussian, Inc.
  
 This software is provided under written license and may be
 used, copied, transmitted, or stored only in accord with that
 written license.
  
 The following legend is applicable only to US Government
 contracts under FAR:
  
                    RESTRICTED RIGHTS LEGEND
  
 Use, reproduction and disclosure by the US Government is
 subject to restrictions as set forth in subparagraphs (a)
 and (c) of the Commercial Computer Software - Restricted
 Rights clause in FAR 52.227-19.
  
 Gaussian, Inc.
 340 Quinnipiac St., Bldg. 40, Wallingford CT 06492
  
  
 ---------------------------------------------------------------
 Warning -- This program may not be used in any manner that
 competes with the business of Gaussian, Inc. or will provide
 assistance to any competitor of Gaussian, Inc.  The licensee
 of this program is prohibited from giving any competitor of
 Gaussian, Inc. access to this program.  By using this program,
 the user acknowledges that Gaussian, Inc. is engaged in the
 business of creating and licensing software in the field of
 computational chemistry and represents and warrants to the
 licensee that it is not a competitor of Gaussian, Inc. and that
 it will not use this program in any manner prohibited above.
 ---------------------------------------------------------------
  

 Cite this work as:
 Gaussian 09, Revision D.01,
 M. J. Frisch, G. W. Trucks, H. B. Schlegel, G. E. Scuseria, 
 M. A. Robb, J. R. Cheeseman, G. Scalmani, V. Barone, B. Mennucci, 
 G. A. Petersson, H. Nakatsuji, M. Caricato, X. Li, H. P. Hratchian, 
 A. F. Izmaylov, J. Bloino, G. Zheng, J. L. Sonnenberg, M. Hada, 
 M. Ehara, K. Toyota, R. Fukuda, J. Hasegawa, M. Ishida, T. Nakajima, 
 Y. Honda, O. Kitao, H. Nakai, T. Vreven, J. A. Montgomery, Jr., 
 J. E. Peralta, F. Ogliaro, M. Bearpark, J. J. Heyd, E. Brothers, 
 K. N. Kudin, V. N. Staroverov, T. Keith, R. Kobayashi, J. Normand, 
 K. Raghavachari, A. Rendell, J. C. Burant, S. S. Iyengar, J. Tomasi, 
 M. Cossi, N. Rega, J. M. Millam, M. Klene, J. E. Knox, J. B. Cross, 
 V. Bakken, C. Adamo, J. Jaramillo, R. Gomperts, R. E. Stratmann, 
 O. Yazyev, A. J. Austin, R. Cammi, C. Pomelli, J. W. Ochterski, 
 R. L. Martin, K. Morokuma, V. G. Zakrzewski, G. A. Voth, 
 P. Salvador, J. J. Dannenberg, S. Dapprich, A. D. Daniels, 
 O. Farkas, J. B. Foresman, J. V. Ortiz, J. Cioslowski, 
 and D. J. Fox, Gaussian, Inc., Wallingford CT, 2013.
 
 ******************************************
 Gaussian 09:  IA32W-G09RevD.01 24-Apr-2013
                15-Mar-2026 
 ******************************************
 %nprocshared=4
 Will use up to    4 processors via shared memory.
 %mem=1GB
 %chk=C:\Users\User\Desktop\IMRG\ECE+ML\H2S.chk
 ----------------------------------------------------
 # opt freq pm6 guess=huckel scf=qc geom=connectivity
 ----------------------------------------------------
 1/14=-1,18=20,19=15,26=1,38=1,57=2/1,3;
 2/9=110,12=2,17=6,18=5,40=1/2;
 3/5=2,16=1,25=1,41=3900000,71=1/1,2,3;
 4/11=4,35=1/1;
 5/5=2,8=3,35=1,38=5/8;
 6/7=2,8=2,9=2,10=2,28=1/1;
 7//1,2,3,16;
 1/14=-1,18=20,19=15,26=1/3(2);
 2/9=110/2;
 99//99;
 2/9=110/2;
 3/5=2,16=1,25=1,41=3900000,71=1,135=20/1,2,3;
 4/5=5,11=4,16=3,35=1/1;
 5/5=2,8=3,35=1,38=5/8;
 7//1,2,3,16;
 1/14=-1,18=20,19=15,26=1/3(-5);
 2/9=110/2;
 6/7=2,8=2,9=2,10=2,19=2,28=1/1;
 99/9=1/99;
 ---
 H2S
 ---
 Symbolic Z-matrix:
 Charge =  0 Multiplicity = 1
 S                     4.13637   4.4186    0.53316 
 H                     5.44233   4.81338   0.38626 
 H                     3.70739   5.7146    0.67216 
 

 GradGradGradGradGradGradGradGradGradGradGradGradGradGradGradGradGradGrad
 Berny optimization.
 Initialization pass.
                           ----------------------------
                           !    Initial Parameters    !
                           ! (Angstroms and Degrees)  !
 --------------------------                            --------------------------
 ! Name  Definition              Value          Derivative Info.                !
 --------------------------------------------------------------------------------
 ! R1    R(1,2)                  1.3722         estimate D2E/DX2                !
 ! R2    R(1,3)                  1.3722         estimate D2E/DX2                !
 ! A1    A(2,1,3)               92.1            estimate D2E/DX2                !
 --------------------------------------------------------------------------------
 Trust Radius=3.00D-01 FncErr=1.00D-07 GrdErr=1.00D-07
 Number of steps in this run=     20 maximum allowed number of steps=    100.
 GradGradGradGradGradGradGradGradGradGradGradGradGradGradGradGradGradGrad

                          Input orientation:                          
 ---------------------------------------------------------------------
 Center     Atomic      Atomic             Coordinates (Angstroms)
 Number     Number       Type             X           Y           Z
 ---------------------------------------------------------------------
      1         16           0        4.136373    4.418595    0.533164
      2          1           0        5.442332    4.813385    0.386255
      3          1           0        3.707395    5.714599    0.672159
 ---------------------------------------------------------------------
                    Distance matrix (angstroms):
                    1          2          3
     1  S    0.000000
     2  H    1.372213   0.000000
     3  H    1.372213   1.975838   0.000000
 Stoichiometry    H2S
 Framework group  C2V[C2(S),SGV(H2)]
 Deg. of freedom     2
 Full point group                 C2V     NOp   4
 Largest Abelian subgroup         C2V     NOp   4
 Largest concise Abelian subgroup C2      NOp   2
                         Standard orientation:                         
 ---------------------------------------------------------------------
 Center     Atomic      Atomic             Coordinates (Angstroms)
 Number     Number       Type             X           Y           Z
 ---------------------------------------------------------------------
      1         16           0        0.000000    0.000000    0.105818
      2          1           0        0.000000    0.987919   -0.846540
      3          1           0        0.000000   -0.987919   -0.846540
 ---------------------------------------------------------------------
 Rotational constants (GHZ):    293.8685397    256.8971134    137.0709650
 Standard basis: VSTO-6G (5D, 7F)
 There are     6 symmetry adapted cartesian basis functions of A1  symmetry.
 There are     1 symmetry adapted cartesian basis functions of A2  symmetry.
 There are     2 symmetry adapted cartesian basis functions of B1  symmetry.
 There are     3 symmetry adapted cartesian basis functions of B2  symmetry.
 There are     5 symmetry adapted basis functions of A1  symmetry.
 There are     1 symmetry adapted basis functions of A2  symmetry.
 There are     2 symmetry adapted basis functions of B1  symmetry.
 There are     3 symmetry adapted basis functions of B2  symmetry.
    11 basis functions,    72 primitive gaussians,    12 cartesian basis functions
     4 alpha electrons        4 beta electrons
       nuclear repulsion energy        11.3037515752 Hartrees.
 Integral buffers will be    262144 words long.
 Regular integral format.
 Two-electron integral symmetry is turned off.
 Do NDO integrals.
 One-electron integrals computed using PRISM.
 NBasis=    11 RedAO= T EigKep=  1.00D+00  NBF=     5     1     2     3
 NBsUse=    11 1.00D-06 EigRej= -1.00D+00 NBFU=     5     1     2     3
 Projected New-EHT guess.
 Enter ItEHT:  IZDO=4 IZDPar=0 Conv= 1.00D-06 N=    6
 It=   1                  EEH= -34.1523772071     EQH= 0.000000000000E+00 EH= -34.1523772071    
 Initial guess orbital symmetries:
       Occupied  (A1) (B1) (B2) (A1)
       Virtual   (A1) (B1) (A1) (A1) (A2) (B2) (B2)
 The electronic state of the initial guess is 1-A1.
 Keep J ints in memory in canonical form, NReq=1848104.
 Gradient too large for Newton-Raphson -- use scaled steepest descent instead.
     Accept linear search using points  5 and  6.
 Gradient too large for Newton-Raphson -- use scaled steepest descent instead.
 Gradient too large for Newton-Raphson -- use scaled steepest descent instead.
     Minimum is close to point  2 DX=  2.91D-02 DF= -2.64D-06 DXR=  2.37D-02 DFR=  5.60D-04 which will be used.
 Gradient too large for Newton-Raphson -- use scaled steepest descent instead.
 Gradient too large for Newton-Raphson -- use scaled steepest descent instead.
     Accept linear search using points  1 and  2.
     Minimum is close to point  2 DX= -1.36D-01 DF= -5.59D-06 DXR=  9.29D-02 DFR=  1.56D-02 which will be used.
 Gradient too large for Newton-Raphson -- use scaled steepest descent instead.
     Accept linear search using points  1 and  2.
 LinEq1:  Iter=  0 NonCon=     1 RMS=1.04D-03 Max=3.62D-03 NDo=     1
 AX will form     1 AO Fock derivatives at one time.
 LinEq1:  Iter=  1 NonCon=     1 RMS=3.97D-04 Max=1.08D-03 NDo=     1
 LinEq1:  Iter=  2 NonCon=     1 RMS=6.38D-05 Max=1.96D-04 NDo=     1
 LinEq1:  Iter=  3 NonCon=     1 RMS=1.03D-05 Max=3.80D-05 NDo=     1
 LinEq1:  Iter=  4 NonCon=     1 RMS=1.93D-06 Max=5.40D-06 NDo=     1
 LinEq1:  Iter=  5 NonCon=     1 RMS=1.02D-07 Max=4.64D-07 NDo=     1
 LinEq1:  Iter=  6 NonCon=     1 RMS=5.27D-09 Max=1.75D-08 NDo=     1
 LinEq1:  Iter=  7 NonCon=     0 RMS=1.65D-10 Max=5.02D-10 NDo=     1
 Linear equations converged to 1.000D-09 1.000D-08 after     7 iterations.
     Accept linear search using points  1 and  2.
     Minimum is close to point  2 DX= -1.52D-02 DF= -2.61D-08 DXR=  1.55D-02 DFR=  2.42D-04 which will be used.
 LinEq1:  Iter=  0 NonCon=     1 RMS=4.63D-05 Max=1.75D-04 NDo=     1
 LinEq1:  Iter=  1 NonCon=     1 RMS=5.77D-06 Max=2.92D-05 NDo=     1
 LinEq1:  Iter=  2 NonCon=     1 RMS=1.01D-06 Max=4.10D-06 NDo=     1
 LinEq1:  Iter=  3 NonCon=     1 RMS=2.33D-07 Max=8.73D-07 NDo=     1
 LinEq1:  Iter=  4 NonCon=     1 RMS=2.09D-08 Max=7.23D-08 NDo=     1
 LinEq1:  Iter=  5 NonCon=     1 RMS=4.82D-09 Max=1.31D-08 NDo=     1
 LinEq1:  Iter=  6 NonCon=     0 RMS=2.72D-10 Max=7.79D-10 NDo=     1
 Linear equations converged to 1.000D-09 1.000D-08 after     6 iterations.
     Minimum is close to point  2 DX=  1.56D-03 DF= -2.82D-13 DXR=  1.56D-03 DFR=  2.44D-06 which will be used.
 LinEq1:  Iter=  0 NonCon=     1 RMS=5.29D-08 Max=1.50D-07 NDo=     1
 LinEq1:  Iter=  1 NonCon=     1 RMS=1.16D-08 Max=5.16D-08 NDo=     1
 LinEq1:  Iter=  2 NonCon=     1 RMS=1.88D-09 Max=6.41D-09 NDo=     1
 LinEq1:  Iter=  3 NonCon=     1 RMS=3.00D-10 Max=1.07D-09 NDo=     1
 LinEq1:  Iter=  4 NonCon=     1 RMS=3.81D-11 Max=1.02D-10 NDo=     1
 LinEq1:  Iter=  5 NonCon=     1 RMS=7.18D-12 Max=2.75D-11 NDo=     1
 LinEq1:  Iter=  6 NonCon=     0 RMS=1.20D-13 Max=4.08D-13 NDo=     1
 Linear equations converged to 2.116D-12 2.116D-11 after     6 iterations.
 SCF Done:  E(RPM6) = -0.205400259107E-02 a.u. after   10 cycles
            Convg  =    0.2711D-10                    43 Fock formations.
              S**2 =  0.0000                  -V/T =  0.9994

 **********************************************************************

            Population analysis using the SCF density.

 **********************************************************************

 Orbital symmetries:
       Occupied  (A1) (B2) (A1) (B1)
       Virtual   (B2) (A1) (A1) (A2) (B1) (A1) (B2)
 The electronic state is 1-A1.
 Alpha  occ. eigenvalues --   -1.10313  -0.52708  -0.43410  -0.34718
 Alpha virt. eigenvalues --    0.01568   0.04429   0.07394   0.07810   0.07865
 Alpha virt. eigenvalues --    0.10770   0.13329
          Condensed to atoms (all electrons):
               1          2          3
     1  S    6.378235   0.000000   0.000000
     2  H    0.000000   0.810882   0.000000
     3  H    0.000000   0.000000   0.810882
 Mulliken charges:
               1
     1  S   -0.378235
     2  H    0.189118
     3  H    0.189118
 Sum of Mulliken charges =   0.00000
 Mulliken charges with hydrogens summed into heavy atoms:
               1
     1  S    0.000000
 Charge=              0.0000 electrons
 Dipole moment (field-independent basis, Debye):
    X=              0.0000    Y=              0.0000    Z=             -1.3357  Tot=              1.3357
 N-N= 1.130375157520D+01 E-N=-1.462013824985D+01  KE=-3.168491586417D+00
 Symmetry A1   KE=-2.011119020791D+00
 Symmetry A2   KE=-1.395590741787D-32
 Symmetry B1   KE=-3.431643684722D-01
 Symmetry B2   KE=-8.142081971543D-01
 Calling FoFJK, ICntrl=      2127 FMM=F ISym2X=1 I1Cent= 0 IOpClX= 0 NMat=1 NMatS=1 NMatT=0.
 ***** Axes restored to original set *****
 -------------------------------------------------------------------
 Center     Atomic                   Forces (Hartrees/Bohr)
 Number     Number              X              Y              Z
 -------------------------------------------------------------------
      1       16           0.008533119    0.016451623   -0.000077004
      2        1          -0.009488198   -0.005513427    0.000898988
      3        1           0.000955079   -0.010938196   -0.000821984
 -------------------------------------------------------------------
 Cartesian Forces:  Max     0.016451623 RMS     0.008068732

 GradGradGradGradGradGradGradGradGradGradGradGradGradGradGradGradGradGrad
 Berny optimization.
 FormGI is forming the generalized inverse of G from B-inverse, IUseBI=4.
 Internal  Forces:  Max     0.010712554 RMS     0.009540169
 Search for a local minimum.
 Step number   1 out of a maximum of   20
 All quantities printed in internal units (Hartrees-Bohrs-Radians)
 Mixed Optimization -- RFO/linear search
 Second derivative matrix not updated -- first step.
 The second derivative matrix:
                          R1        R2        A1
           R1           0.24004
           R2           0.00000   0.24004
           A1           0.00000   0.00000   0.16000
 ITU=  0
     Eigenvalues ---    0.16000   0.24004   0.24004
 RFO step:  Lambda=-1.22131138D-03 EMin= 1.60000000D-01
 Linear search not attempted -- first point.
 Iteration  1 RMS(Cart)=  0.03277480 RMS(Int)=  0.00060816
 Iteration  2 RMS(Cart)=  0.00084144 RMS(Int)=  0.00000016
 Iteration  3 RMS(Cart)=  0.00000012 RMS(Int)=  0.00000000
 ClnCor:  largest displacement from symmetrization is 1.78D-15 for atom     2.
 Variable       Old X    -DE/DX   Delta X   Delta X   Delta X     New X
                                 (Linear)    (Quad)   (Total)
    R1        2.59311  -0.01071   0.00000  -0.04440  -0.04440   2.54870
    R2        2.59311  -0.01071   0.00000  -0.04440  -0.04440   2.54870
    A1        1.60745   0.00660   0.00000   0.04092   0.04092   1.64837
         Item               Value     Threshold  Converged?
 Maximum Force            0.010713     0.000450     NO 
 RMS     Force            0.009540     0.000300     NO 
 Maximum Displacement     0.040673     0.001800     NO 
 RMS     Displacement     0.032550     0.001200     NO 
 Predicted change in Energy=-6.140861D-04
 GradGradGradGradGradGradGradGradGradGradGradGradGradGradGradGradGradGrad

                          Input orientation:                          
 ---------------------------------------------------------------------
 Center     Atomic      Atomic             Coordinates (Angstroms)
 Number     Number       Type             X           Y           Z
 ---------------------------------------------------------------------
      1         16           0        4.147537    4.440118    0.533064
      2          1           0        5.438534    4.801696    0.386012
      3          1           0        3.700029    5.704764    0.672504
 ---------------------------------------------------------------------
                    Distance matrix (angstroms):
                    1          2          3
     1  S    0.000000
     2  H    1.348717   0.000000
     3  H    1.348717   1.979901   0.000000
 Stoichiometry    H2S
 Framework group  C2V[C2(S),SGV(H2)]
 Deg. of freedom     2
 Full point group                 C2V     NOp   4
 Largest Abelian subgroup         C2V     NOp   4
 Largest concise Abelian subgroup C2      NOp   2
                         Standard orientation:                         
 ---------------------------------------------------------------------
 Center     Atomic      Atomic             Coordinates (Angstroms)
 Number     Number       Type             X           Y           Z
 ---------------------------------------------------------------------
      1         16           0        0.000000    0.000000    0.101776
      2          1           0        0.000000    0.989951   -0.814212
      3          1           0        0.000000   -0.989951   -0.814212
 ---------------------------------------------------------------------
 Rotational constants (GHZ):    317.6681839    255.8438404    141.7118468
 Standard basis: VSTO-6G (5D, 7F)
 There are     6 symmetry adapted cartesian basis functions of A1  symmetry.
 There are     1 symmetry adapted cartesian basis functions of A2  symmetry.
 There are     2 symmetry adapted cartesian basis functions of B1  symmetry.
 There are     3 symmetry adapted cartesian basis functions of B2  symmetry.
 There are     5 symmetry adapted basis functions of A1  symmetry.
 There are     1 symmetry adapted basis functions of A2  symmetry.
 There are     2 symmetry adapted basis functions of B1  symmetry.
 There are     3 symmetry adapted basis functions of B2  symmetry.
    11 basis functions,    72 primitive gaussians,    12 cartesian basis functions
     4 alpha electrons        4 beta electrons
       nuclear repulsion energy        11.3517654454 Hartrees.
 Integral buffers will be    262144 words long.
 Regular integral format.
 Two-electron integral symmetry is turned off.
 Do NDO integrals.
 One-electron integrals computed using PRISM.
 NBasis=    11 RedAO= T EigKep=  1.00D+00  NBF=     5     1     2     3
 NBsUse=    11 1.00D-06 EigRej= -1.00D+00 NBFU=     5     1     2     3
 Initial guess from the checkpoint file:  "C:\Users\User\Desktop\IMRG\ECE+ML\H2S.chk"
 B after Tr=     0.000000    0.000000    0.000000
         Rot=    1.000000    0.000000    0.000000    0.000000 Ang=   0.00 deg.
 Initial guess orbital symmetries:
       Occupied  (A1) (B2) (A1) (B1)
       Virtual   (B2) (A1) (A1) (A2) (B1) (A1) (B2)
 Keep J ints in memory in canonical form, NReq=1848104.
 LinEq1:  Iter=  0 NonCon=     1 RMS=1.53D-03 Max=5.65D-03 NDo=     1
 AX will form     1 AO Fock derivatives at one time.
 LinEq1:  Iter=  1 NonCon=     1 RMS=4.31D-04 Max=1.40D-03 NDo=     1
 LinEq1:  Iter=  2 NonCon=     1 RMS=8.24D-05 Max=2.54D-04 NDo=     1
 LinEq1:  Iter=  3 NonCon=     1 RMS=8.21D-06 Max=2.73D-05 NDo=     1
 LinEq1:  Iter=  4 NonCon=     1 RMS=2.23D-06 Max=7.36D-06 NDo=     1
 LinEq1:  Iter=  5 NonCon=     1 RMS=2.35D-07 Max=6.53D-07 NDo=     1
 LinEq1:  Iter=  6 NonCon=     1 RMS=1.16D-08 Max=4.15D-08 NDo=     1
 LinEq1:  Iter=  7 NonCon=     1 RMS=1.55D-09 Max=5.14D-09 NDo=     1
 LinEq1:  Iter=  8 NonCon=     0 RMS=9.05D-11 Max=3.04D-10 NDo=     1
 Linear equations converged to 1.000D-09 1.000D-08 after     8 iterations.
     Minimum is close to point  2 DX=  5.06D-07 DF= -3.82D-17 DXR=  5.06D-07 DFR=  2.55D-13 which will be used.
 LinEq1:  Iter=  0 NonCon=     1 RMS=1.45D-05 Max=5.53D-05 NDo=     1
 LinEq1:  Iter=  1 NonCon=     1 RMS=1.73D-06 Max=5.90D-06 NDo=     1
 LinEq1:  Iter=  2 NonCon=     1 RMS=4.84D-07 Max=1.37D-06 NDo=     1
 LinEq1:  Iter=  3 NonCon=     1 RMS=6.64D-08 Max=1.95D-07 NDo=     1
 LinEq1:  Iter=  4 NonCon=     1 RMS=1.60D-08 Max=5.53D-08 NDo=     1
 LinEq1:  Iter=  5 NonCon=     1 RMS=3.42D-09 Max=9.34D-09 NDo=     1
 LinEq1:  Iter=  6 NonCon=     0 RMS=2.34D-11 Max=8.58D-11 NDo=     1
 Linear equations converged to 6.585D-10 6.585D-09 after     6 iterations.
 SCF Done:  E(RPM6) = -0.268091660579E-02 a.u. after    3 cycles
            Convg  =    0.1273D-07                    18 Fock formations.
              S**2 =  0.0000                  -V/T =  0.9992
 Calling FoFJK, ICntrl=      2127 FMM=F ISym2X=1 I1Cent= 0 IOpClX= 0 NMat=1 NMatS=1 NMatT=0.
 ***** Axes restored to original set *****
 -------------------------------------------------------------------
 Center     Atomic                   Forces (Hartrees/Bohr)
 Number     Number              X              Y              Z
 -------------------------------------------------------------------
      1       16           0.000075221    0.000145024   -0.000000679
      2        1           0.000720998   -0.000466572   -0.000124674
      3        1          -0.000796220    0.000321548    0.000125352
 -------------------------------------------------------------------
 Cartesian Forces:  Max     0.000796220 RMS     0.000412692

 GradGradGradGradGradGradGradGradGradGradGradGradGradGradGradGradGradGrad
 Berny optimization.
 Using GEDIIS/GDIIS optimizer.
 FormGI is forming the generalized inverse of G from B-inverse, IUseBI=4.
 Internal  Forces:  Max     0.001648272 RMS     0.001062462
 Search for a local minimum.
 Step number   2 out of a maximum of   20
 All quantities printed in internal units (Hartrees-Bohrs-Radians)
 Mixed Optimization -- RFO/linear search
 Update second derivatives using D2CorX and points    1    2
 DE= -6.27D-04 DEPred=-6.14D-04 R= 1.02D+00
 TightC=F SS=  1.41D+00  RLast= 7.50D-02 DXNew= 5.0454D-01 2.2486D-01
 Trust test= 1.02D+00 RLast= 7.50D-02 DXMaxT set to 3.00D-01
 The second derivative matrix:
                          R1        R2        A1
           R1           0.25228
           R2           0.01224   0.25228
           A1           0.01110   0.01110   0.14502
 ITU=  1  0
 Use linear search instead of GDIIS.
     Eigenvalues ---    0.14300   0.24004   0.26655
 RFO step:  Lambda=-2.00258916D-05 EMin= 1.42997052D-01
 Quartic linear search produced a step of  0.01279.
 Iteration  1 RMS(Cart)=  0.00985664 RMS(Int)=  0.00003200
 Iteration  2 RMS(Cart)=  0.00002273 RMS(Int)=  0.00000000
 Iteration  3 RMS(Cart)=  0.00000000 RMS(Int)=  0.00000000
 ClnCor:  largest displacement from symmetrization is 5.41D-15 for atom     3.
 Variable       Old X    -DE/DX   Delta X   Delta X   Delta X     New X
                                 (Linear)    (Quad)   (Total)
    R1        2.54870   0.00058  -0.00057   0.00231   0.00174   2.55045
    R2        2.54870   0.00058  -0.00057   0.00231   0.00174   2.55045
    A1        1.64837   0.00165   0.00052   0.01054   0.01107   1.65944
         Item               Value     Threshold  Converged?
 Maximum Force            0.001648     0.000450     NO 
 RMS     Force            0.001062     0.000300     NO 
 Maximum Displacement     0.010925     0.001800     NO 
 RMS     Displacement     0.009851     0.001200     NO 
 Predicted change in Energy=-1.014575D-05
 GradGradGradGradGradGradGradGradGradGradGradGradGradGradGradGradGradGrad

                          Input orientation:                          
 ---------------------------------------------------------------------
 Center     Atomic      Atomic             Coordinates (Angstroms)
 Number     Number       Type             X           Y           Z
 ---------------------------------------------------------------------
      1         16           0        4.149031    4.443000    0.533050
      2          1           0        5.442821    4.797641    0.385189
      3          1           0        3.694248    5.705939    0.673340
 ---------------------------------------------------------------------
                    Distance matrix (angstroms):
                    1          2          3
     1  S    0.000000
     2  H    1.349639   0.000000
     3  H    1.349639   1.991367   0.000000
 Stoichiometry    H2S
 Framework group  C2V[C2(S),SGV(H2)]
 Deg. of freedom     2
 Full point group                 C2V     NOp   4
 Largest Abelian subgroup         C2V     NOp   4
 Largest concise Abelian subgroup C2      NOp   2
                         Standard orientation:                         
 ---------------------------------------------------------------------
 Center     Atomic      Atomic             Coordinates (Angstroms)
 Number     Number       Type             X           Y           Z
 ---------------------------------------------------------------------
      1         16           0        0.000000    0.000000    0.101236
      2          1           0        0.000000    0.995683   -0.809884
      3          1           0        0.000000   -0.995683   -0.809884
 ---------------------------------------------------------------------
 Rotational constants (GHZ):    321.0721007    252.9061936    141.4707205
 Standard basis: VSTO-6G (5D, 7F)
 There are     6 symmetry adapted cartesian basis functions of A1  symmetry.
 There are     1 symmetry adapted cartesian basis functions of A2  symmetry.
 There are     2 symmetry adapted cartesian basis functions of B1  symmetry.
 There are     3 symmetry adapted cartesian basis functions of B2  symmetry.
 There are     5 symmetry adapted basis functions of A1  symmetry.
 There are     1 symmetry adapted basis functions of A2  symmetry.
 There are     2 symmetry adapted basis functions of B1  symmetry.
 There are     3 symmetry adapted basis functions of B2  symmetry.
    11 basis functions,    72 primitive gaussians,    12 cartesian basis functions
     4 alpha electrons        4 beta electrons
       nuclear repulsion energy        11.3486827084 Hartrees.
 Integral buffers will be    262144 words long.
 Regular integral format.
 Two-electron integral symmetry is turned off.
 Do NDO integrals.
 One-electron integrals computed using PRISM.
 NBasis=    11 RedAO= T EigKep=  1.00D+00  NBF=     5     1     2     3
 NBsUse=    11 1.00D-06 EigRej= -1.00D+00 NBFU=     5     1     2     3
 Initial guess from the checkpoint file:  "C:\Users\User\Desktop\IMRG\ECE+ML\H2S.chk"
 B after Tr=     0.000000    0.000000    0.000000
         Rot=    1.000000    0.000000    0.000000    0.000000 Ang=   0.00 deg.
 Initial guess orbital symmetries:
       Occupied  (A1) (B2) (A1) (B1)
       Virtual   (B2) (A1) (A1) (A2) (B1) (A1) (B2)
 Keep J ints in memory in canonical form, NReq=1848104.
 LinEq1:  Iter=  0 NonCon=     1 RMS=2.77D-04 Max=9.59D-04 NDo=     1
 AX will form     1 AO Fock derivatives at one time.
 LinEq1:  Iter=  1 NonCon=     1 RMS=3.93D-05 Max=1.55D-04 NDo=     1
 LinEq1:  Iter=  2 NonCon=     1 RMS=4.22D-06 Max=1.42D-05 NDo=     1
 LinEq1:  Iter=  3 NonCon=     1 RMS=4.76D-07 Max=1.47D-06 NDo=     1
 LinEq1:  Iter=  4 NonCon=     1 RMS=1.19D-07 Max=4.47D-07 NDo=     1
 LinEq1:  Iter=  5 NonCon=     1 RMS=1.82D-08 Max=4.92D-08 NDo=     1
 LinEq1:  Iter=  6 NonCon=     1 RMS=1.30D-09 Max=3.92D-09 NDo=     1
 LinEq1:  Iter=  7 NonCon=     0 RMS=9.46D-11 Max=3.38D-10 NDo=     1
 Linear equations converged to 1.000D-09 1.000D-08 after     7 iterations.
     Minimum is close to point  2 DX=  2.07D-03 DF= -2.07D-11 DXR=  2.06D-03 DFR=  4.25D-06 which will be used.
 LinEq1:  Iter=  0 NonCon=     1 RMS=7.11D-07 Max=2.74D-06 NDo=     1
 LinEq1:  Iter=  1 NonCon=     1 RMS=1.06D-07 Max=4.01D-07 NDo=     1
 LinEq1:  Iter=  2 NonCon=     1 RMS=7.05D-09 Max=2.52D-08 NDo=     1
 LinEq1:  Iter=  3 NonCon=     1 RMS=9.91D-10 Max=3.71D-09 NDo=     1
 LinEq1:  Iter=  4 NonCon=     1 RMS=2.10D-10 Max=7.52D-10 NDo=     1
 LinEq1:  Iter=  5 NonCon=     1 RMS=5.55D-11 Max=1.82D-10 NDo=     1
 LinEq1:  Iter=  6 NonCon=     0 RMS=2.97D-12 Max=9.86D-12 NDo=     1
 Linear equations converged to 2.929D-11 2.929D-10 after     6 iterations.
 SCF Done:  E(RPM6) = -0.269193632626E-02 a.u. after    3 cycles
            Convg  =    0.5660D-09                    17 Fock formations.
              S**2 =  0.0000                  -V/T =  0.9992
 Calling FoFJK, ICntrl=      2127 FMM=F ISym2X=1 I1Cent= 0 IOpClX= 0 NMat=1 NMatS=1 NMatT=0.
 ***** Axes restored to original set *****
 -------------------------------------------------------------------
 Center     Atomic                   Forces (Hartrees/Bohr)
 Number     Number              X              Y              Z
 -------------------------------------------------------------------
      1       16           0.000009160    0.000017661   -0.000000083
      2        1           0.000060921   -0.000042855   -0.000010753
      3        1          -0.000070082    0.000025194    0.000010835
 -------------------------------------------------------------------
 Cartesian Forces:  Max     0.000070082 RMS     0.000036091

 GradGradGradGradGradGradGradGradGradGradGradGradGradGradGradGradGradGrad
 Berny optimization.
 Using GEDIIS/GDIIS optimizer.
 FormGI is forming the generalized inverse of G from B-inverse, IUseBI=4.
 Internal  Forces:  Max     0.000147155 RMS     0.000093673
 Search for a local minimum.
 Step number   3 out of a maximum of   20
 All quantities printed in internal units (Hartrees-Bohrs-Radians)
 Mixed Optimization -- En-DIIS/RFO-DIIS
 Update second derivatives using D2CorX and points    1    2    3
 DE= -1.10D-05 DEPred=-1.01D-05 R= 1.09D+00
 TightC=F SS=  1.41D+00  RLast= 1.13D-02 DXNew= 5.0454D-01 3.4008D-02
 Trust test= 1.09D+00 RLast= 1.13D-02 DXMaxT set to 3.00D-01
 The second derivative matrix:
                          R1        R2        A1
           R1           0.25095
           R2           0.01091   0.25095
           A1           0.00669   0.00669   0.13355
 ITU=  1  1  0
 Use linear search instead of GDIIS.
     Eigenvalues ---    0.13286   0.24004   0.26255
 RFO step:  Lambda= 0.00000000D+00 EMin= 1.32860085D-01
 Quartic linear search produced a step of  0.09755.
 Iteration  1 RMS(Cart)=  0.00096248 RMS(Int)=  0.00000031
 Iteration  2 RMS(Cart)=  0.00000022 RMS(Int)=  0.00000000
 ClnCor:  largest displacement from symmetrization is 1.78D-15 for atom     2.
 Variable       Old X    -DE/DX   Delta X   Delta X   Delta X     New X
                                 (Linear)    (Quad)   (Total)
    R1        2.55045   0.00005   0.00017  -0.00001   0.00016   2.55060
    R2        2.55045   0.00005   0.00017  -0.00001   0.00016   2.55060
    A1        1.65944   0.00015   0.00108   0.00001   0.00109   1.66052
         Item               Value     Threshold  Converged?
 Maximum Force            0.000147     0.000450     YES
 RMS     Force            0.000094     0.000300     YES
 Maximum Displacement     0.001065     0.001800     YES
 RMS     Displacement     0.000962     0.001200     YES
 Predicted change in Energy=-8.748782D-08
 Optimization completed.
    -- Stationary point found.
                           ----------------------------
                           !   Optimized Parameters   !
                           ! (Angstroms and Degrees)  !
 --------------------------                            --------------------------
 ! Name  Definition              Value          Derivative Info.                !
 --------------------------------------------------------------------------------
 ! R1    R(1,2)                  1.3496         -DE/DX =    0.0                 !
 ! R2    R(1,3)                  1.3496         -DE/DX =    0.0                 !
 ! A1    A(2,1,3)               95.0786         -DE/DX =    0.0001              !
 --------------------------------------------------------------------------------
 GradGradGradGradGradGradGradGradGradGradGradGradGradGradGradGradGradGrad

                          Input orientation:                          
 ---------------------------------------------------------------------
 Center     Atomic      Atomic             Coordinates (Angstroms)
 Number     Number       Type             X           Y           Z
 ---------------------------------------------------------------------
      1         16           0        4.149031    4.443000    0.533050
      2          1           0        5.442821    4.797641    0.385189
      3          1           0        3.694248    5.705939    0.673340
 ---------------------------------------------------------------------
                    Distance matrix (angstroms):
                    1          2          3
     1  S    0.000000
     2  H    1.349639   0.000000
     3  H    1.349639   1.991367   0.000000
 Stoichiometry    H2S
 Framework group  C2V[C2(S),SGV(H2)]
 Deg. of freedom     2
 Full point group                 C2V     NOp   4
 Largest Abelian subgroup         C2V     NOp   4
 Largest concise Abelian subgroup C2      NOp   2
                         Standard orientation:                         
 ---------------------------------------------------------------------
 Center     Atomic      Atomic             Coordinates (Angstroms)
 Number     Number       Type             X           Y           Z
 ---------------------------------------------------------------------
      1         16           0        0.000000    0.000000    0.101236
      2          1           0        0.000000    0.995683   -0.809884
      3          1           0        0.000000   -0.995683   -0.809884
 ---------------------------------------------------------------------
 Rotational constants (GHZ):    321.0721007    252.9061936    141.4707205

 **********************************************************************

            Population analysis using the SCF density.

 **********************************************************************

 Orbital symmetries:
       Occupied  (A1) (B2) (A1) (B1)
       Virtual   (B2) (A1) (A1) (A2) (B1) (A1) (B2)
 The electronic state is 1-A1.
 Alpha  occ. eigenvalues --   -1.10968  -0.53714  -0.43024  -0.34697
 Alpha virt. eigenvalues --    0.01673   0.04254   0.07426   0.07829   0.07903
 Alpha virt. eigenvalues --    0.10982   0.13960
          Condensed to atoms (all electrons):
               1          2          3
     1  S    6.370030   0.000000   0.000000
     2  H    0.000000   0.814985   0.000000
     3  H    0.000000   0.000000   0.814985
 Mulliken charges:
               1
     1  S   -0.370030
     2  H    0.185015
     3  H    0.185015
 Sum of Mulliken charges =   0.00000
 Mulliken charges with hydrogens summed into heavy atoms:
               1
     1  S    0.000000
 Charge=              0.0000 electrons
 Dipole moment (field-independent basis, Debye):
    X=              0.0000    Y=              0.0000    Z=             -1.3115  Tot=              1.3115
 N-N= 1.134868270837D+01 E-N=-1.466735538661D+01  KE=-3.187337696507D+00
 Symmetry A1   KE=-2.012087204089D+00
 Symmetry A2   KE=-5.578044695527D-32
 Symmetry B1   KE=-3.432870039065D-01
 Symmetry B2   KE=-8.319634885111D-01
 1|1|UNPC-AHELI-09|FOpt|RPM6|ZDO|H2S1|USER|15-Mar-2026|0||# opt freq pm
 6 guess=huckel scf=qc geom=connectivity||H2S||0,1|S,4.1490313068,4.442
 9995175,0.5330500517|H,5.4428206424,4.7976410871,0.3851887092|H,3.6942
 479095,5.7059386415,0.6733400903||Version=IA32W-G09RevD.01|State=1-A1|
 HF=-0.0026919|RMSD=0.000e+000|RMSF=3.609e-005|Dipole=0.2375773,0.45804
 26,-0.0021439|PG=C02V [C2(S1),SGV(H2)]||@


 CHARLIE BROWN -- WHICH DO YOU THINK LASTS LONGER IN LIFE, THE GOOD THINGS 
                  OR THE BAD THINGS?
 LINUS --         GOOD THINGS LAST EIGHT SECONDS ..
                  BAD THINGS LAST THREE WEEKS
 CHARLIE BROWN -- WHAT ABOUT IN BETWEEN?
 SNOOPY --        IN BETWEEN YOU SHOULD TAKE A NAP ...
 Job cpu time:       0 days  0 hours  0 minutes  2.0 seconds.
 File lengths (MBytes):  RWF=      5 Int=      0 D2E=      0 Chk=      1 Scr=      1
 Normal termination of Gaussian 09 at Sun Mar 15 23:40:35 2026.
 Link1:  Proceeding to internal job step number  2.
 -------------------------------------------------------------
 #N Geom=AllCheck Guess=TCheck SCRF=Check GenChk RPM6/ZDO Freq
 -------------------------------------------------------------
 1/10=4,29=7,30=1,38=1,40=1/1,3;
 2/12=2,40=1/2;
 3/5=2,14=-4,16=1,25=1,41=3900000,70=2,71=2,116=1,135=40,140=1/1,2,3;
 4/5=101,35=1/1;
 5/5=2,8=3,35=1,98=1/8;
 8/6=4,10=90,11=11/1;
 11/6=1,8=1,9=11,15=111,16=1/1,2,10;
 10/6=1/2;
 6/7=2,8=2,9=2,10=2,18=1,28=1/1;
 7/8=1,10=1,25=1/1,2,3,16;
 1/10=4,30=1/3;
 99//99;
 Structure from the checkpoint file:  "C:\Users\User\Desktop\IMRG\ECE+ML\H2S.chk"
 ---
 H2S
 ---
 Charge =  0 Multiplicity = 1
 Redundant internal coordinates found in file.
 S,0,4.1490313068,4.4429995175,0.5330500517
 H,0,5.4428206424,4.7976410871,0.3851887092
 H,0,3.6942479095,5.7059386415,0.6733400903
 Recover connectivity data from disk.

 GradGradGradGradGradGradGradGradGradGradGradGradGradGradGradGradGradGrad
 Berny optimization.
 Initialization pass.
                           ----------------------------
                           !    Initial Parameters    !
                           ! (Angstroms and Degrees)  !
 --------------------------                            --------------------------
 ! Name  Definition              Value          Derivative Info.                !
 --------------------------------------------------------------------------------
 ! R1    R(1,2)                  1.3496         calculate D2E/DX2 analytically  !
 ! R2    R(1,3)                  1.3496         calculate D2E/DX2 analytically  !
 ! A1    A(2,1,3)               95.0786         calculate D2E/DX2 analytically  !
 --------------------------------------------------------------------------------
 Trust Radius=3.00D-01 FncErr=1.00D-07 GrdErr=1.00D-07
 Number of steps in this run=      2 maximum allowed number of steps=      2.
 GradGradGradGradGradGradGradGradGradGradGradGradGradGradGradGradGradGrad

                          Input orientation:                          
 ---------------------------------------------------------------------
 Center     Atomic      Atomic             Coordinates (Angstroms)
 Number     Number       Type             X           Y           Z
 ---------------------------------------------------------------------
      1         16           0        4.149031    4.443000    0.533050
      2          1           0        5.442821    4.797641    0.385189
      3          1           0        3.694248    5.705939    0.673340
 ---------------------------------------------------------------------
                    Distance matrix (angstroms):
                    1          2          3
     1  S    0.000000
     2  H    1.349639   0.000000
     3  H    1.349639   1.991367   0.000000
 Stoichiometry    H2S
 Framework group  C2V[C2(S),SGV(H2)]
 Deg. of freedom     2
 Full point group                 C2V     NOp   4
 Largest Abelian subgroup         C2V     NOp   4
 Largest concise Abelian subgroup C2      NOp   2
                         Standard orientation:                         
 ---------------------------------------------------------------------
 Center     Atomic      Atomic             Coordinates (Angstroms)
 Number     Number       Type             X           Y           Z
 ---------------------------------------------------------------------
      1         16           0        0.000000    0.000000    0.101236
      2          1           0        0.000000    0.995683   -0.809884
      3          1           0        0.000000   -0.995683   -0.809884
 ---------------------------------------------------------------------
 Rotational constants (GHZ):    321.0721007    252.9061936    141.4707205
 Standard basis: VSTO-6G (5D, 7F)
 There are     6 symmetry adapted cartesian basis functions of A1  symmetry.
 There are     1 symmetry adapted cartesian basis functions of A2  symmetry.
 There are     2 symmetry adapted cartesian basis functions of B1  symmetry.
 There are     3 symmetry adapted cartesian basis functions of B2  symmetry.
 There are     5 symmetry adapted basis functions of A1  symmetry.
 There are     1 symmetry adapted basis functions of A2  symmetry.
 There are     2 symmetry adapted basis functions of B1  symmetry.
 There are     3 symmetry adapted basis functions of B2  symmetry.
    11 basis functions,    72 primitive gaussians,    12 cartesian basis functions
     4 alpha electrons        4 beta electrons
       nuclear repulsion energy        11.3486827084 Hartrees.
 Integral buffers will be    262144 words long.
 Regular integral format.
 Two-electron integral symmetry is turned off.
 Do NDO integrals.
 One-electron integrals computed using PRISM.
 NBasis=    11 RedAO= T EigKep=  1.00D+00  NBF=     5     1     2     3
 NBsUse=    11 1.00D-06 EigRej= -1.00D+00 NBFU=     5     1     2     3
 Initial guess from the checkpoint file:  "C:\Users\User\Desktop\IMRG\ECE+ML\H2S.chk"
 B after Tr=     0.000000    0.000000    0.000000
         Rot=    1.000000    0.000000    0.000000    0.000000 Ang=   0.00 deg.
 Initial guess orbital symmetries:
       Occupied  (A1) (B2) (A1) (B1)
       Virtual   (B2) (A1) (A1) (A2) (B1) (A1) (B2)
 Keep J ints in memory in canonical form, NReq=1848104.
 SCF Done:  E(RPM6) = -0.269193632628E-02 a.u. after    1 cycles
            Convg  =    0.5660D-09                     1 Fock formations.
              S**2 =  0.0000                  -V/T =  0.9992
 Range of M.O.s used for correlation:     1    11
 NBasis=    11 NAE=     4 NBE=     4 NFC=     0 NFV=     0
 NROrb=     11 NOA=     4 NOB=     4 NVA=     7 NVB=     7
 Symmetrizing basis deriv contribution to polar:
 IMax=3 JMax=2 DiffMx= 0.00D+00
 G2DrvN: will do     4 centers at a time, making    1 passes.
 Calling FoFCou, ICntrl=  3107 FMM=F I1Cent=   0 AccDes= 0.00D+00.
 End of G2Drv F.D. properties file   721 does not exist.
 End of G2Drv F.D. properties file   722 does not exist.
 End of G2Drv F.D. properties file   788 does not exist.
          IDoAtm=111
          Differentiating once with respect to electric field.
                with respect to dipole field.
          Differentiating once with respect to nuclear coordinates.
          Electric field/nuclear overlap derivatives assumed to be zero.
 Keep J ints in memory in canonical form, NReq=1848254.
          There are     9 degrees of freedom in the 1st order CPHF.  IDoFFX=4 NUNeed=     9.
 LinEq1:  Iter=  0 NonCon=     9 RMS=5.50D-01 Max=1.81D+00 NDo=     9
 AX will form     9 AO Fock derivatives at one time.
 LinEq1:  Iter=  1 NonCon=     9 RMS=1.26D-01 Max=3.52D-01 NDo=     9
 LinEq1:  Iter=  2 NonCon=     9 RMS=2.77D-02 Max=9.67D-02 NDo=     9
 LinEq1:  Iter=  3 NonCon=     9 RMS=6.00D-03 Max=2.01D-02 NDo=     9
 LinEq1:  Iter=  4 NonCon=     9 RMS=4.14D-04 Max=1.42D-03 NDo=     9
 LinEq1:  Iter=  5 NonCon=     9 RMS=6.91D-05 Max=2.47D-04 NDo=     9
 LinEq1:  Iter=  6 NonCon=     7 RMS=1.42D-05 Max=5.19D-05 NDo=     9
 LinEq1:  Iter=  7 NonCon=     5 RMS=3.08D-07 Max=1.08D-06 NDo=     9
 LinEq1:  Iter=  8 NonCon=     2 RMS=1.84D-08 Max=5.35D-08 NDo=     9
 LinEq1:  Iter=  9 NonCon=     0 RMS=2.55D-09 Max=7.61D-09 NDo=     9
 Linear equations converged to 1.000D-08 1.000D-07 after     9 iterations.
 Isotropic polarizability for W=    0.000000       30.67 Bohr**3.
 End of Minotr F.D. properties file   721 does not exist.
 End of Minotr F.D. properties file   722 does not exist.
 End of Minotr F.D. properties file   788 does not exist.

 **********************************************************************

            Population analysis using the SCF density.

 **********************************************************************

 Orbital symmetries:
       Occupied  (A1) (B2) (A1) (B1)
       Virtual   (B2) (A1) (A1) (A2) (B1) (A1) (B2)
 The electronic state is 1-A1.
 Alpha  occ. eigenvalues --   -1.10968  -0.53714  -0.43024  -0.34697
 Alpha virt. eigenvalues --    0.01673   0.04254   0.07426   0.07829   0.07903
 Alpha virt. eigenvalues --    0.10982   0.13960
          Condensed to atoms (all electrons):
               1          2          3
     1  S    6.370030   0.000000   0.000000
     2  H    0.000000   0.814985   0.000000
     3  H    0.000000   0.000000   0.814985
 Mulliken charges:
               1
     1  S   -0.370030
     2  H    0.185015
     3  H    0.185015
 Sum of Mulliken charges =   0.00000
 Mulliken charges with hydrogens summed into heavy atoms:
               1
     1  S    0.000000
 APT charges:
               1
     1  S   -0.496022
     2  H    0.248012
     3  H    0.248012
 Sum of APT charges =   0.00000
 APT charges with hydrogens summed into heavy atoms:
               1
     1  S    0.000002
 Charge=              0.0000 electrons
 Dipole moment (field-independent basis, Debye):
    X=              0.0000    Y=              0.0000    Z=             -1.3115  Tot=              1.3115
 N-N= 1.134868270837D+01 E-N=-1.466735538661D+01  KE=-3.187337696507D+00
 Symmetry A1   KE=-2.012087204089D+00
 Symmetry A2   KE= 0.000000000000D+00
 Symmetry B1   KE=-3.432870039065D-01
 Symmetry B2   KE=-8.319634885111D-01
  Exact polarizability:  35.732   0.000  34.547   0.000   0.000  21.741
 Approx polarizability:   8.985   0.000  17.302   0.000   0.000  12.534
 Calling FoFJK, ICntrl=    100127 FMM=F ISym2X=1 I1Cent= 0 IOpClX= 0 NMat=1 NMatS=1 NMatT=0.
 Full mass-weighted force constant matrix:
 Low frequencies ---  -28.1322  -22.5957   -9.7175   -0.0003    0.0494    3.1706
 Low frequencies --- 1055.1339 2689.6745 2698.7983
 Diagonal vibrational polarizability:
        0.0000000       0.4528640       0.5854664
 Harmonic frequencies (cm**-1), IR intensities (KM/Mole), Raman scattering
 activities (A**4/AMU), depolarization ratios for plane and unpolarized
 incident light, reduced masses (AMU), force constants (mDyne/A),
 and normal coordinates:
                      1                      2                      3
                     A1                     B2                     A1
 Frequencies --   1055.1339              2689.6745              2698.7983
 Red. masses --      1.0402                 1.0413                 1.0351
 Frc consts  --      0.6823                 4.4383                 4.4419
 IR Inten    --     11.1702               121.7402                85.3782
  Atom  AN      X      Y      Z        X      Y      Z        X      Y      Z
     1  16     0.00   0.00   0.03     0.00   0.03   0.00     0.00   0.00   0.03
     2   1     0.00  -0.49  -0.51     0.00  -0.52   0.48     0.00   0.53  -0.47
     3   1     0.00   0.49  -0.51     0.00  -0.52  -0.48     0.00  -0.53  -0.47

 -------------------
 - Thermochemistry -
 -------------------
 Temperature   298.150 Kelvin.  Pressure   1.00000 Atm.
 Atom     1 has atomic number 16 and mass  31.97207
 Atom     2 has atomic number  1 and mass   1.00783
 Atom     3 has atomic number  1 and mass   1.00783
 Molecular mass:    33.98772 amu.
 Principal axes and moments of inertia in atomic units:
                           1         2         3
     Eigenvalues --     5.62098   7.13601  12.75699
           X            0.00000   0.00000   1.00000
           Y            1.00000   0.00000   0.00000
           Z            0.00000   1.00000   0.00000
 This molecule is an asymmetric top.
 Rotational symmetry number  2.
 Rotational temperatures (Kelvin)     15.40901    12.13757     6.78952
 Rotational constants (GHZ):         321.07210   252.90619   141.47072
 Zero-point vibrational energy      38541.3 (Joules/Mol)
                                    9.21160 (Kcal/Mol)
 Vibrational temperatures:   1518.10  3869.84  3882.96
          (Kelvin)
 
 Zero-point correction=                           0.014680 (Hartree/Particle)
 Thermal correction to Energy=                    0.017542
 Thermal correction to Enthalpy=                  0.018486
 Thermal correction to Gibbs Free Energy=        -0.004890
 Sum of electronic and zero-point Energies=              0.011988
 Sum of electronic and thermal Energies=                 0.014850
 Sum of electronic and thermal Enthalpies=               0.015794
 Sum of electronic and thermal Free Energies=           -0.007582
 
                     E (Thermal)             CV                S
                      KCal/Mol        Cal/Mol-Kelvin    Cal/Mol-Kelvin
 Total                   11.008              6.284             49.200
 Electronic               0.000              0.000              0.000
 Translational            0.889              2.981             36.501
 Rotational               0.889              2.981             12.623
 Vibrational              9.230              0.322              0.075
                       Q            Log10(Q)             Ln(Q)
 Total Bot       0.177543D+03          2.249303          5.179211
 Total V=0       0.100333D+10          9.001443         20.726588
 Vib (Bot)       0.178049D-06         -6.749460        -15.541207
 Vib (V=0)       0.100619D+01          0.002680          0.006171
 Electronic      0.100000D+01          0.000000          0.000000
 Translational   0.778822D+07          6.891438         15.868123
 Rotational      0.128034D+03          2.107325          4.852294
 ***** Axes restored to original set *****
 -------------------------------------------------------------------
 Center     Atomic                   Forces (Hartrees/Bohr)
 Number     Number              X              Y              Z
 -------------------------------------------------------------------
      1       16           0.000009160    0.000017661   -0.000000083
      2        1           0.000060921   -0.000042855   -0.000010753
      3        1          -0.000070082    0.000025194    0.000010835
 -------------------------------------------------------------------
 Cartesian Forces:  Max     0.000070082 RMS     0.000036091
 FormGI is forming the generalized inverse of G from B-inverse, IUseBI=4.

 GradGradGradGradGradGradGradGradGradGradGradGradGradGradGradGradGradGrad
 Berny optimization.
 Internal  Forces:  Max     0.000147155 RMS     0.000093673
 Search for a local minimum.
 Step number   1 out of a maximum of    2
 All quantities printed in internal units (Hartrees-Bohrs-Radians)
 Second derivative matrix not updated -- analytic derivatives used.
 The second derivative matrix:
                          R1        R2        A1
           R1           0.26848
           R2           0.00172   0.26848
           A1           0.00515   0.00515   0.13382
 ITU=  0
     Eigenvalues ---    0.13343   0.26676   0.27059
 Angle between quadratic step and forces=  13.29 degrees.
 Linear search not attempted -- first point.
 Iteration  1 RMS(Cart)=  0.00096205 RMS(Int)=  0.00000031
 Iteration  2 RMS(Cart)=  0.00000022 RMS(Int)=  0.00000000
 ClnCor:  largest displacement from symmetrization is 1.78D-15 for atom     3.
 Variable       Old X    -DE/DX   Delta X   Delta X   Delta X     New X
                                 (Linear)    (Quad)   (Total)
    R1        2.55045   0.00005   0.00000   0.00016   0.00016   2.55061
    R2        2.55045   0.00005   0.00000   0.00016   0.00016   2.55061
    A1        1.65944   0.00015   0.00000   0.00109   0.00109   1.66052
         Item               Value     Threshold  Converged?
 Maximum Force            0.000147     0.000450     YES
 RMS     Force            0.000094     0.000300     YES
 Maximum Displacement     0.001065     0.001800     YES
 RMS     Displacement     0.000962     0.001200     YES
 Predicted change in Energy=-8.765524D-08
 Optimization completed.
    -- Stationary point found.
                           ----------------------------
                           !   Optimized Parameters   !
                           ! (Angstroms and Degrees)  !
 --------------------------                            --------------------------
 ! Name  Definition              Value          Derivative Info.                !
 --------------------------------------------------------------------------------
 ! R1    R(1,2)                  1.3496         -DE/DX =    0.0                 !
 ! R2    R(1,3)                  1.3496         -DE/DX =    0.0                 !
 ! A1    A(2,1,3)               95.0786         -DE/DX =    0.0001              !
 --------------------------------------------------------------------------------
 GradGradGradGradGradGradGradGradGradGradGradGradGradGradGradGradGradGrad

 1|1|UNPC-AHELI-09|Freq|RPM6|ZDO|H2S1|USER|15-Mar-2026|0||#N Geom=AllCh
 eck Guess=TCheck SCRF=Check GenChk RPM6/ZDO Freq||H2S||0,1|S,4.1490313
 068,4.4429995175,0.5330500517|H,5.4428206424,4.7976410871,0.3851887092
 |H,3.6942479095,5.7059386415,0.6733400903||Version=IA32W-G09RevD.01|St
 ate=1-A1|HF=-0.0026919|RMSD=0.000e+000|RMSF=3.609e-005|ZeroPoint=0.014
 6796|Thermal=0.017542|Dipole=0.2375773,0.4580426,-0.0021439|DipoleDeri
 v=-0.801867,0.3293996,0.0826058,0.3293996,-0.3385963,-0.0436887,0.0826
 058,-0.0436887,-0.3476014,0.4053292,0.0368707,-0.029053,-0.3600861,0.1
 648995,0.047303,-0.0543176,-0.0049887,0.1738063,0.3965436,-0.3662735,-
 0.053554,0.0306833,0.1736982,-0.0036136,-0.0282894,0.0486781,0.1737932
 |Polar=31.8526885,-5.2436705,24.4610943,0.1772633,-0.0265763,35.706755
 4|HyperPolar=-230.7152216,-101.2333867,46.9604605,-252.9109973,-5.4904
 664,-4.9432537,5.1402085,-111.2003931,-214.5211537,3.0119734|PG=C02V [
 C2(S1),SGV(H2)]|NImag=0||0.28389257,-0.00065622,0.28339044,-0.03743783
 ,0.01812232,0.00609671,-0.24164225,-0.06041868,0.02798635,0.24903031,-
 0.07934924,-0.04185086,0.00778923,0.06087300,0.03655747,0.02678150,0.0
 0529548,-0.00319203,-0.02893305,-0.00569109,0.00343230,-0.04225015,0.0
 6107485,0.00945269,-0.00738803,0.01847643,0.00215094,0.04963799,0.0800
 0541,-0.24153948,-0.02591213,-0.00045433,0.00529322,0.00039589,-0.0795
 5124,0.23624632,0.01065754,-0.02341838,-0.00289551,0.00094607,-0.00209
 788,-0.00024485,-0.01160421,0.02551656,0.00313578||-0.00000916,-0.0000
 1766,0.00000008,-0.00006092,0.00004286,0.00001075,0.00007008,-0.000025
 19,-0.00001084|||@


 CHARLIE BROWN -- WHICH DO YOU THINK LASTS LONGER IN LIFE, THE GOOD THINGS 
                  OR THE BAD THINGS?
 LINUS --         GOOD THINGS LAST EIGHT SECONDS ..
                  BAD THINGS LAST THREE WEEKS
 CHARLIE BROWN -- WHAT ABOUT IN BETWEEN?
 SNOOPY --        IN BETWEEN YOU SHOULD TAKE A NAP ...
 Job cpu time:       0 days  0 hours  0 minutes  1.0 seconds.
 File lengths (MBytes):  RWF=      5 Int=      0 D2E=      0 Chk=      1 Scr=      1
 Normal termination of Gaussian 09 at Sun Mar 15 23:40:36 2026.
