 Entering Link 1 = C:\Gaussian\G09W\l1.exe PID=     23804.
  
 Copyright (c) 1988,1990,1992,1993,1995,1998,2003,2009,2013,
            Gaussian, Inc.  All Rights Reserved.
  
 This is part of the Gaussian(R) 09 program.  It is based on
 the Gaussian(R) 03 system (copyright 2003, Gaussian, Inc.),
 the Gaussian(R) 98 system (copyright 1998, Gaussian, Inc.),
 the Gaussian(R) 94 system (copyright 1995, Gaussian, Inc.),
 the Gaussian 92(TM) system (copyright 1992, Gaussian, Inc.),
 the Gaussian 90(TM) system (copyright 1990, Gaussian, Inc.),
 the Gaussian 88(TM) system (copyright 1988, Gaussian, Inc.),
 the Gaussian 86(TM) system (copyright 1986, Carnegie Mellon
 University), and the Gaussian 82(TM) system (copyright 1983,
 Carnegie Mellon University). Gaussian is a federally registered
 trademark of Gaussian, Inc.
  
 This software contains proprietary and confidential information,
 including trade secrets, belonging to Gaussian, Inc.
  
 This software is provided under written license and may be
 used, copied, transmitted, or stored only in accord with that
 written license.
  
 The following legend is applicable only to US Government
 contracts under FAR:
  
                    RESTRICTED RIGHTS LEGEND
  
 Use, reproduction and disclosure by the US Government is
 subject to restrictions as set forth in subparagraphs (a)
 and (c) of the Commercial Computer Software - Restricted
 Rights clause in FAR 52.227-19.
  
 Gaussian, Inc.
 340 Quinnipiac St., Bldg. 40, Wallingford CT 06492
  
  
 ---------------------------------------------------------------
 Warning -- This program may not be used in any manner that
 competes with the business of Gaussian, Inc. or will provide
 assistance to any competitor of Gaussian, Inc.  The licensee
 of this program is prohibited from giving any competitor of
 Gaussian, Inc. access to this program.  By using this program,
 the user acknowledges that Gaussian, Inc. is engaged in the
 business of creating and licensing software in the field of
 computational chemistry and represents and warrants to the
 licensee that it is not a competitor of Gaussian, Inc. and that
 it will not use this program in any manner prohibited above.
 ---------------------------------------------------------------
  

 Cite this work as:
 Gaussian 09, Revision D.01,
 M. J. Frisch, G. W. Trucks, H. B. Schlegel, G. E. Scuseria, 
 M. A. Robb, J. R. Cheeseman, G. Scalmani, V. Barone, B. Mennucci, 
 G. A. Petersson, H. Nakatsuji, M. Caricato, X. Li, H. P. Hratchian, 
 A. F. Izmaylov, J. Bloino, G. Zheng, J. L. Sonnenberg, M. Hada, 
 M. Ehara, K. Toyota, R. Fukuda, J. Hasegawa, M. Ishida, T. Nakajima, 
 Y. Honda, O. Kitao, H. Nakai, T. Vreven, J. A. Montgomery, Jr., 
 J. E. Peralta, F. Ogliaro, M. Bearpark, J. J. Heyd, E. Brothers, 
 K. N. Kudin, V. N. Staroverov, T. Keith, R. Kobayashi, J. Normand, 
 K. Raghavachari, A. Rendell, J. C. Burant, S. S. Iyengar, J. Tomasi, 
 M. Cossi, N. Rega, J. M. Millam, M. Klene, J. E. Knox, J. B. Cross, 
 V. Bakken, C. Adamo, J. Jaramillo, R. Gomperts, R. E. Stratmann, 
 O. Yazyev, A. J. Austin, R. Cammi, C. Pomelli, J. W. Ochterski, 
 R. L. Martin, K. Morokuma, V. G. Zakrzewski, G. A. Voth, 
 P. Salvador, J. J. Dannenberg, S. Dapprich, A. D. Daniels, 
 O. Farkas, J. B. Foresman, J. V. Ortiz, J. Cioslowski, 
 and D. J. Fox, Gaussian, Inc., Wallingford CT, 2013.
 
 ******************************************
 Gaussian 09:  IA32W-G09RevD.01 24-Apr-2013
                15-Mar-2026 
 ******************************************
 %chk=C:\Users\User\Desktop\IMRG\ECE+ML\Hf_Gr_NS.chk
 ---------------------------------------
 # opt freq pm6 scf=qc geom=connectivity
 ---------------------------------------
 1/14=-1,18=20,19=15,26=1,38=1,57=2/1,3;
 2/9=110,12=2,17=6,18=5,40=1/2;
 3/5=2,16=1,25=1,41=3900000,71=1/1,2,3;
 4/35=1/1;
 5/5=2,8=3,35=1,38=5/8;
 6/7=2,8=2,9=2,10=2,28=1/1;
 7//1,2,3,16;
 1/14=-1,18=20,19=15,26=1/3(2);
 2/9=110/2;
 99//99;
 2/9=110/2;
 3/5=2,16=1,25=1,41=3900000,71=1,135=20/1,2,3;
 4/5=5,16=3,35=1/1;
 5/5=2,8=3,35=1,38=5/8;
 7//1,2,3,16;
 1/14=-1,18=20,19=15,26=1/3(-5);
 2/9=110/2;
 6/7=2,8=2,9=2,10=2,19=2,28=1/1;
 99/9=1/99;
 --------
 Hf_Gr_NS
 --------
 Symbolic Z-matrix:
 Charge =  0 Multiplicity = 1
 C                     0.17695   1.02371   2.99497 
 C                     1.43495   0.29741   2.57781 
 C                     2.69295   1.02371   2.99497 
 C                     5.20895   1.02371   2.99497 
 C                     7.72495   1.02371   2.99497 
 C                     3.95095   0.29741   2.57781 
 C                     6.46695   0.29741   2.57781 
 C                    -1.08105   3.20263   2.99497 
 C                    -2.33905   5.38155   2.99497 
 C                     0.17695   2.47633   2.57781 
 C                    -1.08105   4.65525   2.57781 
 C                    -2.33905   6.83417   2.57781 
 C                     1.43495   3.20263   2.99497 
 C                     0.17695   5.38155   2.99497 
 C                    -1.08105   7.56047   2.99497 
 C                     3.95095   3.20263   2.99497 
 C                     2.69295   5.38155   2.99497 
 C                     1.43495   7.56047   2.99497 
 C                     6.46695   3.20263   2.99497 
 C                     5.20895   5.38155   2.99497 
 C                     3.95095   7.56047   2.99497 
 C                     2.69295   2.47633   2.57781 
 C                     0.17695   6.83417   2.57781 
 C                     5.20895   2.47633   2.57781 
 C                     3.95095   4.65525   2.57781 
 C                     2.69295   6.83417   2.57781 
 C                     7.72495   2.47633   2.57781 
 C                     6.46695   4.65525   2.57781 
 C                     5.20895   6.83417   2.57781 
 H                     8.6156    2.99054   2.87315 
 H                     7.3576    5.16946   2.87315 
 H                     6.0996    7.34838   2.87315 
 H                     3.95095   8.58891   2.69962 
 H                     1.43495   8.58891   2.69962 
 H                    -1.08105   8.58891   2.69962 
 H                    -3.2297    7.34838   2.87315 
 H                    -3.2297    4.86734   2.69962 
 H                    -1.9717    2.68842   2.69962 
 H                    -0.7137    0.5095    2.69962 
 H                     1.43495  -0.73103   2.87315 
 H                     3.95095  -0.73103   2.87315 
 H                     6.49522  -0.60455   3.15277 
 H                     8.37341   0.35071   3.51599 
 Hf                    1.43495   4.65525   2.57781 
 

 GradGradGradGradGradGradGradGradGradGradGradGradGradGradGradGradGradGrad
 Berny optimization.
 Initialization pass.
                           ----------------------------
                           !    Initial Parameters    !
                           ! (Angstroms and Degrees)  !
 --------------------------                            --------------------------
 ! Name  Definition              Value          Derivative Info.                !
 --------------------------------------------------------------------------------
 ! R1    R(1,2)                  1.5113         estimate D2E/DX2                !
 ! R2    R(1,10)                 1.5113         estimate D2E/DX2                !
 ! R3    R(1,39)                 1.07           estimate D2E/DX2                !
 ! R4    R(2,3)                  1.5113         estimate D2E/DX2                !
 ! R5    R(2,40)                 1.07           estimate D2E/DX2                !
 ! R6    R(3,6)                  1.5113         estimate D2E/DX2                !
 ! R7    R(3,22)                 1.5113         estimate D2E/DX2                !
 ! R8    R(4,6)                  1.5113         estimate D2E/DX2                !
 ! R9    R(4,7)                  1.5113         estimate D2E/DX2                !
 ! R10   R(4,24)                 1.5113         estimate D2E/DX2                !
 ! R11   R(5,7)                  1.5113         estimate D2E/DX2                !
 ! R12   R(5,27)                 1.5113         estimate D2E/DX2                !
 ! R13   R(5,43)                 1.07           estimate D2E/DX2                !
 ! R14   R(6,41)                 1.07           estimate D2E/DX2                !
 ! R15   R(7,42)                 1.07           estimate D2E/DX2                !
 ! R16   R(8,10)                 1.5113         estimate D2E/DX2                !
 ! R17   R(8,11)                 1.5113         estimate D2E/DX2                !
 ! R18   R(8,38)                 1.07           estimate D2E/DX2                !
 ! R19   R(9,11)                 1.5113         estimate D2E/DX2                !
 ! R20   R(9,12)                 1.5113         estimate D2E/DX2                !
 ! R21   R(9,37)                 1.07           estimate D2E/DX2                !
 ! R22   R(10,13)                1.5113         estimate D2E/DX2                !
 ! R23   R(11,14)                1.5113         estimate D2E/DX2                !
 ! R24   R(12,15)                1.5113         estimate D2E/DX2                !
 ! R25   R(12,36)                1.07           estimate D2E/DX2                !
 ! R26   R(13,22)                1.5113         estimate D2E/DX2                !
 ! R27   R(13,44)                1.5113         estimate D2E/DX2                !
 ! R28   R(14,23)                1.5113         estimate D2E/DX2                !
 ! R29   R(14,44)                1.5113         estimate D2E/DX2                !
 ! R30   R(15,23)                1.5113         estimate D2E/DX2                !
 ! R31   R(15,35)                1.07           estimate D2E/DX2                !
 ! R32   R(16,22)                1.5113         estimate D2E/DX2                !
 ! R33   R(16,24)                1.5113         estimate D2E/DX2                !
 ! R34   R(16,25)                1.5113         estimate D2E/DX2                !
 ! R35   R(17,25)                1.5113         estimate D2E/DX2                !
 ! R36   R(17,26)                1.5113         estimate D2E/DX2                !
 ! R37   R(17,44)                1.5113         estimate D2E/DX2                !
 ! R38   R(18,23)                1.5113         estimate D2E/DX2                !
 ! R39   R(18,26)                1.5113         estimate D2E/DX2                !
 ! R40   R(18,34)                1.07           estimate D2E/DX2                !
 ! R41   R(19,24)                1.5113         estimate D2E/DX2                !
 ! R42   R(19,27)                1.5113         estimate D2E/DX2                !
 ! R43   R(19,28)                1.5113         estimate D2E/DX2                !
 ! R44   R(20,25)                1.5113         estimate D2E/DX2                !
 ! R45   R(20,28)                1.5113         estimate D2E/DX2                !
 ! R46   R(20,29)                1.5113         estimate D2E/DX2                !
 ! R47   R(21,26)                1.5113         estimate D2E/DX2                !
 ! R48   R(21,29)                1.5113         estimate D2E/DX2                !
 ! R49   R(21,33)                1.07           estimate D2E/DX2                !
 ! R50   R(27,30)                1.07           estimate D2E/DX2                !
 ! R51   R(28,31)                1.07           estimate D2E/DX2                !
 ! R52   R(29,32)                1.07           estimate D2E/DX2                !
 ! A1    A(2,1,10)             112.6884         estimate D2E/DX2                !
 ! A2    A(2,1,39)             112.6884         estimate D2E/DX2                !
 ! A3    A(10,1,39)            112.6884         estimate D2E/DX2                !
 ! A4    A(1,2,3)              112.6884         estimate D2E/DX2                !
 ! A5    A(1,2,40)             112.6884         estimate D2E/DX2                !
 ! A6    A(3,2,40)             112.6884         estimate D2E/DX2                !
 ! A7    A(2,3,6)              112.6884         estimate D2E/DX2                !
 ! A8    A(2,3,22)             112.6884         estimate D2E/DX2                !
 ! A9    A(6,3,22)             112.6884         estimate D2E/DX2                !
 ! A10   A(6,4,7)              112.6884         estimate D2E/DX2                !
 ! A11   A(6,4,24)             112.6884         estimate D2E/DX2                !
 ! A12   A(7,4,24)             112.6884         estimate D2E/DX2                !
 ! A13   A(7,5,27)             112.6884         estimate D2E/DX2                !
 ! A14   A(7,5,43)             109.6693         estimate D2E/DX2                !
 ! A15   A(27,5,43)            137.6415         estimate D2E/DX2                !
 ! A16   A(3,6,4)              112.6884         estimate D2E/DX2                !
 ! A17   A(3,6,41)             112.6884         estimate D2E/DX2                !
 ! A18   A(4,6,41)             112.6884         estimate D2E/DX2                !
 ! A19   A(4,7,5)              112.6884         estimate D2E/DX2                !
 ! A20   A(4,7,42)             106.187          estimate D2E/DX2                !
 ! A21   A(5,7,42)             103.5792         estimate D2E/DX2                !
 ! A22   A(10,8,11)            112.6884         estimate D2E/DX2                !
 ! A23   A(10,8,38)            112.6884         estimate D2E/DX2                !
 ! A24   A(11,8,38)            112.6884         estimate D2E/DX2                !
 ! A25   A(11,9,12)            112.6884         estimate D2E/DX2                !
 ! A26   A(11,9,37)            112.6884         estimate D2E/DX2                !
 ! A27   A(12,9,37)            112.6884         estimate D2E/DX2                !
 ! A28   A(1,10,8)             112.6884         estimate D2E/DX2                !
 ! A29   A(1,10,13)            112.6884         estimate D2E/DX2                !
 ! A30   A(8,10,13)            112.6884         estimate D2E/DX2                !
 ! A31   A(8,11,9)             112.6884         estimate D2E/DX2                !
 ! A32   A(8,11,14)            112.6884         estimate D2E/DX2                !
 ! A33   A(9,11,14)            112.6884         estimate D2E/DX2                !
 ! A34   A(9,12,15)            112.6884         estimate D2E/DX2                !
 ! A35   A(9,12,36)            112.6884         estimate D2E/DX2                !
 ! A36   A(15,12,36)           112.6884         estimate D2E/DX2                !
 ! A37   A(10,13,22)           112.6884         estimate D2E/DX2                !
 ! A38   A(10,13,44)           112.6884         estimate D2E/DX2                !
 ! A39   A(22,13,44)           112.6884         estimate D2E/DX2                !
 ! A40   A(11,14,23)           112.6884         estimate D2E/DX2                !
 ! A41   A(11,14,44)           112.6884         estimate D2E/DX2                !
 ! A42   A(23,14,44)           112.6884         estimate D2E/DX2                !
 ! A43   A(12,15,23)           112.6884         estimate D2E/DX2                !
 ! A44   A(12,15,35)           112.6884         estimate D2E/DX2                !
 ! A45   A(23,15,35)           112.6884         estimate D2E/DX2                !
 ! A46   A(22,16,24)           112.6884         estimate D2E/DX2                !
 ! A47   A(22,16,25)           112.6884         estimate D2E/DX2                !
 ! A48   A(24,16,25)           112.6884         estimate D2E/DX2                !
 ! A49   A(25,17,26)           112.6884         estimate D2E/DX2                !
 ! A50   A(25,17,44)           112.6884         estimate D2E/DX2                !
 ! A51   A(26,17,44)           112.6884         estimate D2E/DX2                !
 ! A52   A(23,18,26)           112.6884         estimate D2E/DX2                !
 ! A53   A(23,18,34)           112.6884         estimate D2E/DX2                !
 ! A54   A(26,18,34)           112.6884         estimate D2E/DX2                !
 ! A55   A(24,19,27)           112.6884         estimate D2E/DX2                !
 ! A56   A(24,19,28)           112.6884         estimate D2E/DX2                !
 ! A57   A(27,19,28)           112.6884         estimate D2E/DX2                !
 ! A58   A(25,20,28)           112.6884         estimate D2E/DX2                !
 ! A59   A(25,20,29)           112.6884         estimate D2E/DX2                !
 ! A60   A(28,20,29)           112.6884         estimate D2E/DX2                !
 ! A61   A(26,21,29)           112.6884         estimate D2E/DX2                !
 ! A62   A(26,21,33)           112.6884         estimate D2E/DX2                !
 ! A63   A(29,21,33)           112.6884         estimate D2E/DX2                !
 ! A64   A(3,22,13)            112.6884         estimate D2E/DX2                !
 ! A65   A(3,22,16)            112.6884         estimate D2E/DX2                !
 ! A66   A(13,22,16)           112.6884         estimate D2E/DX2                !
 ! A67   A(14,23,15)           112.6884         estimate D2E/DX2                !
 ! A68   A(14,23,18)           112.6884         estimate D2E/DX2                !
 ! A69   A(15,23,18)           112.6884         estimate D2E/DX2                !
 ! A70   A(4,24,16)            112.6884         estimate D2E/DX2                !
 ! A71   A(4,24,19)            112.6884         estimate D2E/DX2                !
 ! A72   A(16,24,19)           112.6884         estimate D2E/DX2                !
 ! A73   A(16,25,17)           112.6884         estimate D2E/DX2                !
 ! A74   A(16,25,20)           112.6884         estimate D2E/DX2                !
 ! A75   A(17,25,20)           112.6884         estimate D2E/DX2                !
 ! A76   A(17,26,18)           112.6884         estimate D2E/DX2                !
 ! A77   A(17,26,21)           112.6884         estimate D2E/DX2                !
 ! A78   A(18,26,21)           112.6884         estimate D2E/DX2                !
 ! A79   A(5,27,19)            112.6884         estimate D2E/DX2                !
 ! A80   A(5,27,30)            112.6884         estimate D2E/DX2                !
 ! A81   A(19,27,30)           112.6884         estimate D2E/DX2                !
 ! A82   A(19,28,20)           112.6884         estimate D2E/DX2                !
 ! A83   A(19,28,31)           112.6884         estimate D2E/DX2                !
 ! A84   A(20,28,31)           112.6884         estimate D2E/DX2                !
 ! A85   A(20,29,21)           112.6884         estimate D2E/DX2                !
 ! A86   A(20,29,32)           112.6884         estimate D2E/DX2                !
 ! A87   A(21,29,32)           112.6884         estimate D2E/DX2                !
 ! A88   A(13,44,14)           112.6884         estimate D2E/DX2                !
 ! A89   A(13,44,17)           112.6884         estimate D2E/DX2                !
 ! A90   A(14,44,17)           112.6884         estimate D2E/DX2                !
 ! D1    D(10,1,2,3)            51.1032         estimate D2E/DX2                !
 ! D2    D(10,1,2,40)          180.0            estimate D2E/DX2                !
 ! D3    D(39,1,2,3)           180.0            estimate D2E/DX2                !
 ! D4    D(39,1,2,40)          -51.1032         estimate D2E/DX2                !
 ! D5    D(2,1,10,8)           180.0            estimate D2E/DX2                !
 ! D6    D(2,1,10,13)          -51.1032         estimate D2E/DX2                !
 ! D7    D(39,1,10,8)           51.1032         estimate D2E/DX2                !
 ! D8    D(39,1,10,13)         180.0            estimate D2E/DX2                !
 ! D9    D(1,2,3,6)            180.0            estimate D2E/DX2                !
 ! D10   D(1,2,3,22)           -51.1032         estimate D2E/DX2                !
 ! D11   D(40,2,3,6)            51.1032         estimate D2E/DX2                !
 ! D12   D(40,2,3,22)         -180.0            estimate D2E/DX2                !
 ! D13   D(2,3,6,4)            180.0            estimate D2E/DX2                !
 ! D14   D(2,3,6,41)           -51.1032         estimate D2E/DX2                !
 ! D15   D(22,3,6,4)            51.1032         estimate D2E/DX2                !
 ! D16   D(22,3,6,41)          180.0            estimate D2E/DX2                !
 ! D17   D(2,3,22,13)           51.1032         estimate D2E/DX2                !
 ! D18   D(2,3,22,16)          180.0            estimate D2E/DX2                !
 ! D19   D(6,3,22,13)          180.0            estimate D2E/DX2                !
 ! D20   D(6,3,22,16)          -51.1032         estimate D2E/DX2                !
 ! D21   D(7,4,6,3)            180.0            estimate D2E/DX2                !
 ! D22   D(7,4,6,41)            51.1032         estimate D2E/DX2                !
 ! D23   D(24,4,6,3)           -51.1032         estimate D2E/DX2                !
 ! D24   D(24,4,6,41)          180.0            estimate D2E/DX2                !
 ! D25   D(6,4,7,5)            180.0            estimate D2E/DX2                !
 ! D26   D(6,4,7,42)           -67.2727         estimate D2E/DX2                !
 ! D27   D(24,4,7,5)            51.1032         estimate D2E/DX2                !
 ! D28   D(24,4,7,42)          163.8304         estimate D2E/DX2                !
 ! D29   D(6,4,24,16)           51.1032         estimate D2E/DX2                !
 ! D30   D(6,4,24,19)          180.0            estimate D2E/DX2                !
 ! D31   D(7,4,24,16)          180.0            estimate D2E/DX2                !
 ! D32   D(7,4,24,19)          -51.1032         estimate D2E/DX2                !
 ! D33   D(27,5,7,4)           -51.1032         estimate D2E/DX2                !
 ! D34   D(27,5,7,42)         -165.4227         estimate D2E/DX2                !
 ! D35   D(43,5,7,4)           128.6399         estimate D2E/DX2                !
 ! D36   D(43,5,7,42)           14.3203         estimate D2E/DX2                !
 ! D37   D(7,5,27,19)           51.1032         estimate D2E/DX2                !
 ! D38   D(7,5,27,30)          180.0            estimate D2E/DX2                !
 ! D39   D(43,5,27,19)        -128.5377         estimate D2E/DX2                !
 ! D40   D(43,5,27,30)           0.3591         estimate D2E/DX2                !
 ! D41   D(11,8,10,1)          180.0            estimate D2E/DX2                !
 ! D42   D(11,8,10,13)          51.1032         estimate D2E/DX2                !
 ! D43   D(38,8,10,1)          -51.1032         estimate D2E/DX2                !
 ! D44   D(38,8,10,13)        -180.0            estimate D2E/DX2                !
 ! D45   D(10,8,11,9)          180.0            estimate D2E/DX2                !
 ! D46   D(10,8,11,14)         -51.1032         estimate D2E/DX2                !
 ! D47   D(38,8,11,9)           51.1032         estimate D2E/DX2                !
 ! D48   D(38,8,11,14)         180.0            estimate D2E/DX2                !
 ! D49   D(12,9,11,8)         -180.0            estimate D2E/DX2                !
 ! D50   D(12,9,11,14)          51.1032         estimate D2E/DX2                !
 ! D51   D(37,9,11,8)          -51.1032         estimate D2E/DX2                !
 ! D52   D(37,9,11,14)         180.0            estimate D2E/DX2                !
 ! D53   D(11,9,12,15)         -51.1032         estimate D2E/DX2                !
 ! D54   D(11,9,12,36)        -180.0            estimate D2E/DX2                !
 ! D55   D(37,9,12,15)         180.0            estimate D2E/DX2                !
 ! D56   D(37,9,12,36)          51.1032         estimate D2E/DX2                !
 ! D57   D(1,10,13,22)          51.1032         estimate D2E/DX2                !
 ! D58   D(1,10,13,44)         180.0            estimate D2E/DX2                !
 ! D59   D(8,10,13,22)         180.0            estimate D2E/DX2                !
 ! D60   D(8,10,13,44)         -51.1032         estimate D2E/DX2                !
 ! D61   D(8,11,14,23)         180.0            estimate D2E/DX2                !
 ! D62   D(8,11,14,44)          51.1032         estimate D2E/DX2                !
 ! D63   D(9,11,14,23)         -51.1032         estimate D2E/DX2                !
 ! D64   D(9,11,14,44)         180.0            estimate D2E/DX2                !
 ! D65   D(9,12,15,23)          51.1032         estimate D2E/DX2                !
 ! D66   D(9,12,15,35)         180.0            estimate D2E/DX2                !
 ! D67   D(36,12,15,23)        180.0            estimate D2E/DX2                !
 ! D68   D(36,12,15,35)        -51.1032         estimate D2E/DX2                !
 ! D69   D(10,13,22,3)         -51.1032         estimate D2E/DX2                !
 ! D70   D(10,13,22,16)        180.0            estimate D2E/DX2                !
 ! D71   D(44,13,22,3)         180.0            estimate D2E/DX2                !
 ! D72   D(44,13,22,16)         51.1032         estimate D2E/DX2                !
 ! D73   D(10,13,44,14)         51.1032         estimate D2E/DX2                !
 ! D74   D(10,13,44,17)        180.0            estimate D2E/DX2                !
 ! D75   D(22,13,44,14)       -180.0            estimate D2E/DX2                !
 ! D76   D(22,13,44,17)        -51.1032         estimate D2E/DX2                !
 ! D77   D(11,14,23,15)         51.1032         estimate D2E/DX2                !
 ! D78   D(11,14,23,18)        180.0            estimate D2E/DX2                !
 ! D79   D(44,14,23,15)        180.0            estimate D2E/DX2                !
 ! D80   D(44,14,23,18)        -51.1032         estimate D2E/DX2                !
 ! D81   D(11,14,44,13)        -51.1032         estimate D2E/DX2                !
 ! D82   D(11,14,44,17)        180.0            estimate D2E/DX2                !
 ! D83   D(23,14,44,13)       -180.0            estimate D2E/DX2                !
 ! D84   D(23,14,44,17)         51.1032         estimate D2E/DX2                !
 ! D85   D(12,15,23,14)        -51.1032         estimate D2E/DX2                !
 ! D86   D(12,15,23,18)        180.0            estimate D2E/DX2                !
 ! D87   D(35,15,23,14)        180.0            estimate D2E/DX2                !
 ! D88   D(35,15,23,18)         51.1032         estimate D2E/DX2                !
 ! D89   D(24,16,22,3)          51.1032         estimate D2E/DX2                !
 ! D90   D(24,16,22,13)        180.0            estimate D2E/DX2                !
 ! D91   D(25,16,22,3)         180.0            estimate D2E/DX2                !
 ! D92   D(25,16,22,13)        -51.1032         estimate D2E/DX2                !
 ! D93   D(22,16,24,4)         -51.1032         estimate D2E/DX2                !
 ! D94   D(22,16,24,19)        180.0            estimate D2E/DX2                !
 ! D95   D(25,16,24,4)         180.0            estimate D2E/DX2                !
 ! D96   D(25,16,24,19)         51.1032         estimate D2E/DX2                !
 ! D97   D(22,16,25,17)         51.1032         estimate D2E/DX2                !
 ! D98   D(22,16,25,20)        180.0            estimate D2E/DX2                !
 ! D99   D(24,16,25,17)        180.0            estimate D2E/DX2                !
 ! D100  D(24,16,25,20)        -51.1032         estimate D2E/DX2                !
 ! D101  D(26,17,25,16)       -180.0            estimate D2E/DX2                !
 ! D102  D(26,17,25,20)         51.1032         estimate D2E/DX2                !
 ! D103  D(44,17,25,16)        -51.1032         estimate D2E/DX2                !
 ! D104  D(44,17,25,20)        180.0            estimate D2E/DX2                !
 ! D105  D(25,17,26,18)        180.0            estimate D2E/DX2                !
 ! D106  D(25,17,26,21)        -51.1032         estimate D2E/DX2                !
 ! D107  D(44,17,26,18)         51.1032         estimate D2E/DX2                !
 ! D108  D(44,17,26,21)        180.0            estimate D2E/DX2                !
 ! D109  D(25,17,44,13)         51.1032         estimate D2E/DX2                !
 ! D110  D(25,17,44,14)        180.0            estimate D2E/DX2                !
 ! D111  D(26,17,44,13)        180.0            estimate D2E/DX2                !
 ! D112  D(26,17,44,14)        -51.1032         estimate D2E/DX2                !
 ! D113  D(26,18,23,14)         51.1032         estimate D2E/DX2                !
 ! D114  D(26,18,23,15)        180.0            estimate D2E/DX2                !
 ! D115  D(34,18,23,14)        180.0            estimate D2E/DX2                !
 ! D116  D(34,18,23,15)        -51.1032         estimate D2E/DX2                !
 ! D117  D(23,18,26,17)        -51.1032         estimate D2E/DX2                !
 ! D118  D(23,18,26,21)        180.0            estimate D2E/DX2                !
 ! D119  D(34,18,26,17)        180.0            estimate D2E/DX2                !
 ! D120  D(34,18,26,21)         51.1032         estimate D2E/DX2                !
 ! D121  D(27,19,24,4)          51.1032         estimate D2E/DX2                !
 ! D122  D(27,19,24,16)        180.0            estimate D2E/DX2                !
 ! D123  D(28,19,24,4)         180.0            estimate D2E/DX2                !
 ! D124  D(28,19,24,16)        -51.1032         estimate D2E/DX2                !
 ! D125  D(24,19,27,5)         -51.1032         estimate D2E/DX2                !
 ! D126  D(24,19,27,30)        180.0            estimate D2E/DX2                !
 ! D127  D(28,19,27,5)         180.0            estimate D2E/DX2                !
 ! D128  D(28,19,27,30)         51.1032         estimate D2E/DX2                !
 ! D129  D(24,19,28,20)         51.1032         estimate D2E/DX2                !
 ! D130  D(24,19,28,31)        180.0            estimate D2E/DX2                !
 ! D131  D(27,19,28,20)        180.0            estimate D2E/DX2                !
 ! D132  D(27,19,28,31)        -51.1032         estimate D2E/DX2                !
 ! D133  D(28,20,25,16)         51.1032         estimate D2E/DX2                !
 ! D134  D(28,20,25,17)        180.0            estimate D2E/DX2                !
 ! D135  D(29,20,25,16)        180.0            estimate D2E/DX2                !
 ! D136  D(29,20,25,17)        -51.1032         estimate D2E/DX2                !
 ! D137  D(25,20,28,19)        -51.1032         estimate D2E/DX2                !
 ! D138  D(25,20,28,31)        180.0            estimate D2E/DX2                !
 ! D139  D(29,20,28,19)       -180.0            estimate D2E/DX2                !
 ! D140  D(29,20,28,31)         51.1032         estimate D2E/DX2                !
 ! D141  D(25,20,29,21)         51.1032         estimate D2E/DX2                !
 ! D142  D(25,20,29,32)        180.0            estimate D2E/DX2                !
 ! D143  D(28,20,29,21)        180.0            estimate D2E/DX2                !
 ! D144  D(28,20,29,32)        -51.1032         estimate D2E/DX2                !
 ! D145  D(29,21,26,17)         51.1032         estimate D2E/DX2                !
 ! D146  D(29,21,26,18)       -180.0            estimate D2E/DX2                !
 ! D147  D(33,21,26,17)        180.0            estimate D2E/DX2                !
 ! D148  D(33,21,26,18)        -51.1032         estimate D2E/DX2                !
 ! D149  D(26,21,29,20)        -51.1032         estimate D2E/DX2                !
 ! D150  D(26,21,29,32)        180.0            estimate D2E/DX2                !
 ! D151  D(33,21,29,20)        180.0            estimate D2E/DX2                !
 ! D152  D(33,21,29,32)         51.1032         estimate D2E/DX2                !
 --------------------------------------------------------------------------------
 Trust Radius=3.00D-01 FncErr=1.00D-07 GrdErr=1.00D-07
 Number of steps in this run=    264 maximum allowed number of steps=    264.
 GradGradGradGradGradGradGradGradGradGradGradGradGradGradGradGradGradGrad

                          Input orientation:                          
 ---------------------------------------------------------------------
 Center     Atomic      Atomic             Coordinates (Angstroms)
 Number     Number       Type             X           Y           Z
 ---------------------------------------------------------------------
      1          6           0        0.176948    1.023714    2.994967
      2          6           0        1.434948    0.297407    2.577810
      3          6           0        2.692948    1.023714    2.994967
      4          6           0        5.208948    1.023714    2.994967
      5          6           0        7.724948    1.023714    2.994967
      6          6           0        3.950948    0.297407    2.577810
      7          6           0        6.466948    0.297407    2.577810
      8          6           0       -1.081052    3.202634    2.994967
      9          6           0       -2.339052    5.381554    2.994967
     10          6           0        0.176948    2.476327    2.577810
     11          6           0       -1.081052    4.655247    2.577810
     12          6           0       -2.339052    6.834167    2.577810
     13          6           0        1.434948    3.202634    2.994967
     14          6           0        0.176948    5.381554    2.994967
     15          6           0       -1.081052    7.560474    2.994967
     16          6           0        3.950948    3.202634    2.994967
     17          6           0        2.692948    5.381554    2.994967
     18          6           0        1.434948    7.560474    2.994967
     19          6           0        6.466948    3.202634    2.994967
     20          6           0        5.208948    5.381554    2.994967
     21          6           0        3.950948    7.560474    2.994967
     22          6           0        2.692948    2.476327    2.577810
     23          6           0        0.176948    6.834167    2.577810
     24          6           0        5.208948    2.476327    2.577810
     25          6           0        3.950948    4.655247    2.577810
     26          6           0        2.692948    6.834167    2.577810
     27          6           0        7.724948    2.476327    2.577810
     28          6           0        6.466948    4.655247    2.577810
     29          6           0        5.208948    6.834167    2.577810
     30          1           0        8.615597    2.990544    2.873152
     31          1           0        7.357597    5.169464    2.873152
     32          1           0        6.099597    7.348383    2.873152
     33          1           0        3.950948    8.588906    2.699625
     34          1           0        1.434948    8.588906    2.699625
     35          1           0       -1.081052    8.588906    2.699625
     36          1           0       -3.229701    7.348383    2.873152
     37          1           0       -3.229701    4.867338    2.699625
     38          1           0       -1.971701    2.688418    2.699625
     39          1           0       -0.713701    0.509498    2.699625
     40          1           0        1.434948   -0.731025    2.873152
     41          1           0        3.950948   -0.731025    2.873152
     42          1           0        6.495217   -0.604546    3.152772
     43          1           0        8.373408    0.350713    3.515994
     44         72           0        1.434948    4.655247    2.577810
 ---------------------------------------------------------------------
                    Distance matrix (angstroms):
                    1          2          3          4          5
     1  C    0.000000
     2  C    1.511326   0.000000
     3  C    2.516000   1.511326   0.000000
     4  C    5.032000   3.865827   2.516000   0.000000
     5  C    7.548000   6.345521   5.032000   2.516000   0.000000
     6  C    3.865827   2.516000   1.511326   1.511326   3.865827
     7  C    6.345521   5.032000   3.865827   1.511326   1.511326
     8  C    2.516000   3.865827   4.357840   6.656710   9.071567
     9  C    5.032000   6.345521   6.656710   8.715680  10.966990
    10  C    1.511326   2.516000   2.935023   5.254058   7.697818
    11  C    3.865827   5.032000   5.254058   7.275036   9.534552
    12  C    6.345521   7.548000   7.697818   9.534552  11.628391
    13  C    2.516000   2.935023   2.516000   4.357840   6.656710
    14  C    4.357840   5.254058   5.032000   6.656710   8.715680
    15  C    6.656710   7.697818   7.548000   9.071567  10.966990
    16  C    4.357840   3.865827   2.516000   2.516000   4.357840
    17  C    5.032000   5.254058   4.357840   5.032000   6.656710
    18  C    6.656710   7.275036   6.656710   7.548000   9.071567
    19  C    6.656710   5.825409   4.357840   2.516000   2.516000
    20  C    6.656710   6.345521   5.032000   4.357840   5.032000
    21  C    7.548000   7.697818   6.656710   6.656710   7.548000
    22  C    2.935023   2.516000   1.511326   2.935023   5.254058
    23  C    5.825409   6.656710   6.345521   7.697818   9.534552
    24  C    5.254058   4.357840   2.935023   1.511326   2.935023
    25  C    5.254058   5.032000   3.865827   3.865827   5.254058
    26  C    6.345521   6.656710   5.825409   6.345521   7.697818
    27  C    7.697818   6.656710   5.254058   2.935023   1.511326
    28  C    7.275036   6.656710   5.254058   3.865827   3.865827
    29  C    7.697818   7.548000   6.345521   5.825409   6.345521
    30  H    8.665682   7.674759   6.241877   3.935545   2.162524
    31  H    8.292394   7.674759   6.241877   4.671056   4.163775
    32  H    8.665682   8.459458   7.184813   6.388234   6.531313
    33  H    8.459458   8.665682   7.674759   7.674759   8.459458
    34  H    7.674759   8.292394   7.674759   8.459458   9.842940
    35  H    7.674759   8.665682   8.459458   9.842940  11.613139
    36  H    7.184813   8.459458   8.665682  10.546425  12.649925
    37  H    5.144504   6.531313   7.066713   9.277471  11.613139
    38  H    2.734073   4.163775   4.961594   7.377003   9.842940
    39  H    1.070000   2.162524   3.457875   5.952261   8.459458
    40  H    2.162524   1.070000   2.162524   4.163775   6.531313
    41  H    4.163775   2.734073   2.162524   2.162524   4.163775
    42  H    6.526612   5.172082   4.139249   2.081015   2.046551
    43  H    8.240531   7.001804   5.743868   3.276920   1.070000
    44  Hf   3.865827   4.357840   3.865827   5.254058   7.275036
                    6          7          8          9         10
     6  C    0.000000
     7  C    2.516000   0.000000
     8  C    5.825409   8.098559   0.000000
     9  C    8.098559  10.176846   2.516000   0.000000
    10  C    4.357840   6.656710   1.511326   3.865827   0.000000
    11  C    6.656710   8.715680   1.511326   1.511326   2.516000
    12  C    9.071567  10.966990   3.865827   1.511326   5.032000
    13  C    3.865827   5.825409   2.516000   4.357840   1.511326
    14  C    6.345521   8.098559   2.516000   2.516000   2.935023
    15  C    8.845743  10.483246   4.357840   2.516000   5.254058
    16  C    2.935023   3.865827   5.032000   6.656710   3.865827
    17  C    5.254058   6.345521   4.357840   5.032000   3.865827
    18  C    7.697818   8.845743   5.032000   4.357840   5.254058
    19  C    3.865827   2.935023   7.548000   9.071567   6.345521
    20  C    5.254058   5.254058   6.656710   7.548000   5.825409
    21  C    7.275036   7.697818   6.656710   6.656710   6.345521
    22  C    2.516000   4.357840   3.865827   5.825409   2.516000
    23  C    7.548000   9.071567   3.865827   2.935023   4.357840
    24  C    2.516000   2.516000   6.345521   8.098559   5.032000
    25  C    4.357840   5.032000   5.254058   6.345521   4.357840
    26  C    6.656710   7.548000   5.254058   5.254058   5.032000
    27  C    4.357840   2.516000   8.845743  10.483246   7.548000
    28  C    5.032000   4.357840   7.697818   8.845743   6.656710
    29  C    6.656710   6.656710   7.275036   7.697818   6.656710
    30  H    5.394363   3.457875   9.699733  11.213211   8.459458
    31  H    5.952261   4.961594   8.665682   9.699733   7.674759
    32  H    7.377003   7.066713   8.292394   8.665682   7.674759
    33  H    8.292394   8.665682   7.377003   7.066713   7.184813
    34  H    8.665682   9.699733   5.952261   4.961594   6.241877
    35  H    9.699733  11.213211   5.394363   3.457875   6.241877
    36  H   10.068029  11.992851   4.671056   2.162524   5.952261
    37  H    8.512392  10.720266   2.734073   1.070000   4.163775
    38  H    6.388234   8.771691   1.070000   2.734073   2.162524
    39  H    4.671056   7.184813   2.734073   5.144504   2.162524
    40  H    2.734073   5.144504   4.671056   7.184813   3.457875
    41  H    1.070000   2.734073   6.388234   8.771691   4.961594
    42  H    2.759965   1.070000   8.480529  10.672516   7.052864
    43  H    4.521192   2.125469   9.888970  11.846418   8.519412
    44  Hf   5.032000   6.656710   2.935023   3.865827   2.516000
                   11         12         13         14         15
    11  C    0.000000
    12  C    2.516000   0.000000
    13  C    2.935023   5.254058   0.000000
    14  C    1.511326   2.935023   2.516000   0.000000
    15  C    2.935023   1.511326   5.032000   2.516000   0.000000
    16  C    5.254058   7.275036   2.516000   4.357840   6.656710
    17  C    3.865827   5.254058   2.516000   2.516000   4.357840
    18  C    3.865827   3.865827   4.357840   2.516000   2.516000
    19  C    7.697818   9.534552   5.032000   6.656710   8.715680
    20  C    6.345521   7.697818   4.357840   5.032000   6.656710
    21  C    5.825409   6.345521   5.032000   4.357840   5.032000
    22  C    4.357840   6.656710   1.511326   3.865827   6.345521
    23  C    2.516000   2.516000   3.865827   1.511326   1.511326
    24  C    6.656710   8.715680   3.865827   5.825409   8.098559
    25  C    5.032000   6.656710   2.935023   3.865827   5.825409
    26  C    4.357840   5.032000   3.865827   2.935023   3.865827
    27  C    9.071567  10.966990   6.345521   8.098559  10.176846
    28  C    7.548000   9.071567   5.254058   6.345521   8.098559
    29  C    6.656710   7.548000   5.254058   5.254058   6.345521
    30  H    9.842940  11.613139   7.184813   8.771691  10.720266
    31  H    8.459458   9.842940   6.241877   7.184813   8.771691
    32  H    7.674759   8.459458   6.241877   6.241877   7.184813
    33  H    6.388234   6.531313   5.952261   4.961594   5.144504
    34  H    4.671056   4.163775   5.394363   3.457875   2.734073
    35  H    3.935545   2.162524   5.952261   3.457875   1.070000
    36  H    3.457875   1.070000   6.241877   3.935545   2.162524
    37  H    2.162524   2.162524   4.961594   3.457875   3.457875
    38  H    2.162524   4.163775   3.457875   3.457875   4.961594
    39  H    4.163775   6.531313   3.457875   4.961594   7.066713
    40  H    5.952261   8.459458   3.935545   6.241877   8.665682
    41  H    7.377003   9.842940   4.671056   7.184813   9.699733
    42  H    9.240988  11.563276   6.334497   8.705103  11.139673
    43  H   10.430533  12.556757   7.519784   9.631344  11.901215
    44  Hf   2.516000   4.357840   1.511326   1.511326   3.865827
                   16         17         18         19         20
    16  C    0.000000
    17  C    2.516000   0.000000
    18  C    5.032000   2.516000   0.000000
    19  C    2.516000   4.357840   6.656710   0.000000
    20  C    2.516000   2.516000   4.357840   2.516000   0.000000
    21  C    4.357840   2.516000   2.516000   5.032000   2.516000
    22  C    1.511326   2.935023   5.254058   3.865827   3.865827
    23  C    5.254058   2.935023   1.511326   7.275036   5.254058
    24  C    1.511326   3.865827   6.345521   1.511326   2.935023
    25  C    1.511326   1.511326   3.865827   2.935023   1.511326
    26  C    3.865827   1.511326   1.511326   5.254058   2.935023
    27  C    3.865827   5.825409   8.098559   1.511326   3.865827
    28  C    2.935023   3.865827   5.825409   1.511326   1.511326
    29  C    3.865827   2.935023   3.865827   3.865827   1.511326
    30  H    4.671056   6.388234   8.512392   2.162524   4.163775
    31  H    3.935545   4.671056   6.388234   2.162524   2.162524
    32  H    4.671056   3.935545   4.671056   4.163775   2.162524
    33  H    5.394363   3.457875   2.734073   5.952261   3.457875
    34  H    5.952261   3.457875   1.070000   7.377003   4.961594
    35  H    7.377003   4.961594   2.734073   9.277471   7.066713
    36  H    8.292394   6.241877   4.671056  10.546425   8.665682
    37  H    7.377003   5.952261   5.394363   9.842940   8.459458
    38  H    5.952261   5.394363   5.952261   8.459458   7.674759
    39  H    5.394363   5.952261   7.377003   7.674759   7.674759
    40  H    4.671056   6.241877   8.292394   6.388234   7.184813
    41  H    3.935545   6.241877   8.665682   4.671056   6.241877
    42  H    4.581793   7.093345   9.607225   3.810554   6.124768
    43  H    5.288012   7.605817  10.019698   3.469800   5.966124
    44  Hf   2.935023   1.511326   2.935023   5.254058   3.865827
                   21         22         23         24         25
    21  C    0.000000
    22  C    5.254058   0.000000
    23  C    3.865827   5.032000   0.000000
    24  C    5.254058   2.516000   6.656710   0.000000
    25  C    2.935023   2.516000   4.357840   2.516000   0.000000
    26  C    1.511326   4.357840   2.516000   5.032000   2.516000
    27  C    6.345521   5.032000   8.715680   2.516000   4.357840
    28  C    3.865827   4.357840   6.656710   2.516000   2.516000
    29  C    1.511326   5.032000   5.032000   4.357840   2.516000
    30  H    6.531313   5.952261   9.277471   3.457875   4.961594
    31  H    4.163775   5.394363   7.377003   3.457875   3.457875
    32  H    2.162524   5.952261   5.952261   4.961594   3.457875
    33  H    1.070000   6.241877   4.163775   6.241877   3.935545
    34  H    2.734073   6.241877   2.162524   7.184813   4.671056
    35  H    5.144504   7.184813   2.162524   8.771691   6.388234
    36  H    7.184813   7.674759   3.457875   9.748587   7.674759
    37  H    7.674759   6.388234   3.935545   8.771691   7.184813
    38  H    7.674759   4.671056   4.671056   7.184813   6.241877
    39  H    8.459458   3.935545   6.388234   6.241877   6.241877
    40  H    8.665682   3.457875   7.674759   4.961594   5.952261
    41  H    8.292394   3.457875   8.459458   3.457875   5.394363
    42  H    8.553698   4.927435   9.776787   3.387750   5.871057
    43  H    8.474094   6.137267  10.492727   3.925841   6.242384
    44  Hf   3.865827   2.516000   2.516000   4.357840   2.516000
                   26         27         28         29         30
    26  C    0.000000
    27  C    6.656710   0.000000
    28  C    4.357840   2.516000   0.000000
    29  C    2.516000   5.032000   2.516000   0.000000
    30  H    7.066713   1.070000   2.734073   5.144504   0.000000
    31  H    4.961594   2.734073   1.070000   2.734073   2.516000
    32  H    3.457875   5.144504   2.734073   1.070000   5.032000
    33  H    2.162524   7.184813   4.671056   2.162524   7.289082
    34  H    2.162524   8.771691   6.388234   4.163775   9.106783
    35  H    4.163775  10.720266   8.512392   6.531313  11.198070
    36  H    5.952261  11.992851  10.068029   8.459458  12.621483
    37  H    6.241877  11.213211   9.699733   8.665682  11.994313
    38  H    6.241877   9.699733   8.665682   8.292394  10.593029
    39  H    7.184813   8.665682   8.292394   8.665682   9.655127
    40  H    7.674759   7.066713   7.377003   8.459458   8.087755
    41  H    7.674759   4.961594   5.952261   7.674759   5.967329
    42  H    8.373905   3.366689   5.291201   7.570966   4.183164
    43  H    8.670812   2.412245   4.800395   7.275244   2.727747
    44  Hf   2.516000   6.656710   5.032000   4.357840   7.377003
                   31         32         33         34         35
    31  H    0.000000
    32  H    2.516000   0.000000
    33  H    4.829902   2.487107   0.000000
    34  H    6.841087   4.829902   2.516000   0.000000
    35  H    9.106783   7.289082   5.032000   2.516000   0.000000
    36  H   10.809188   9.329297   7.289082   4.829902   2.487107
    37  H   10.593029   9.655127   8.087755   5.967329   4.297297
    38  H    9.655127   9.321547   8.360235   6.813297   5.967329
    39  H    9.321547   9.655127   9.329297   8.360235   8.087755
    40  H    8.360235   9.329297   9.655127   9.321547   9.655127
    41  H    6.813297   8.360235   9.321547   9.655127  10.593029
    42  H    5.844747   7.967671   9.549775  10.503867  11.921609
    43  H    4.966435   7.385855   9.385757  10.801690  12.566666
    44  Hf   5.952261   5.394363   4.671056   3.935545   4.671056
                   36         37         38         39         40
    36  H    0.000000
    37  H    2.487107   0.000000
    38  H    4.829902   2.516000   0.000000
    39  H    7.289082   5.032000   2.516000   0.000000
    40  H    9.329297   7.289082   4.829902   2.487107   0.000000
    41  H   10.809188   9.106783   6.841087   4.829902   2.516000
    42  H   12.565878  11.167850   9.096024   7.308552   5.069567
    43  H   13.565130  12.477920  10.637321   9.125087   7.051640
    44  Hf   5.394363   4.671056   3.935545   4.671056   5.394363
                   41         42         43         44
    41  H    0.000000
    42  H    2.562712   0.000000
    43  H    4.597995   2.138235   0.000000
    44  Hf   5.952261   7.321361   8.218967   0.000000
 Stoichiometry    C29H14Hf
 Framework group  C1[X(C29H14Hf)]
 Deg. of freedom   126
 Full point group                 C1      NOp   1
 Largest Abelian subgroup         C1      NOp   1
 Largest concise Abelian subgroup C1      NOp   1
                         Standard orientation:                         
 ---------------------------------------------------------------------
 Center     Atomic      Atomic             Coordinates (Angstroms)
 Number     Number       Type             X           Y           Z
 ---------------------------------------------------------------------
      1          6           0       -0.352044   -3.773992    0.256523
      2          6           0        1.097805   -3.772418   -0.170139
      3          6           0        1.825769   -2.514146    0.243290
      4          6           0        4.003581   -1.254300    0.230056
      5          6           0        6.181394    0.005546    0.216822
      6          6           0        3.275617   -2.512572   -0.183373
      7          6           0        5.453430   -1.252726   -0.196607
      8          6           0       -2.531976   -2.517840    0.271837
      9          6           0       -4.711908   -1.261688    0.287150
     10          6           0       -1.082127   -2.516266   -0.154826
     11          6           0       -3.262059   -1.260114   -0.139513
     12          6           0       -5.441991   -0.003962   -0.124200
     13          6           0       -0.354163   -1.257994    0.258603
     14          6           0       -2.534095   -0.001842    0.273916
     15          6           0       -4.714027    1.254310    0.289229
     16          6           0        1.823650    0.001852    0.245369
     17          6           0       -0.356282    1.258004    0.260682
     18          6           0       -2.536214    2.514156    0.275995
     19          6           0        4.001462    1.261698    0.232135
     20          6           0        1.821530    2.517850    0.247448
     21          6           0       -0.358402    3.774003    0.262761
     22          6           0        1.095685   -1.256420   -0.168060
     23          6           0       -3.264179    1.255884   -0.137434
     24          6           0        3.273498    0.003426   -0.181294
     25          6           0        1.093566    1.259578   -0.165981
     26          6           0       -1.086366    2.515730   -0.150668
     27          6           0        5.451311    1.263272   -0.194527
     28          6           0        3.271379    2.519424   -0.179214
     29          6           0        1.091447    3.775576   -0.163901
     30          1           0        5.966701    2.154114    0.098175
     31          1           0        3.786769    3.410266    0.113488
     32          1           0        1.606837    4.666418    0.128801
     33          1           0       -0.875292    4.664457   -0.028469
     34          1           0       -3.053104    3.404611   -0.015235
     35          1           0       -5.230917    2.144765   -0.002002
     36          1           0       -6.468466   -0.005076    0.177872
     37          1           0       -5.227298   -2.152529   -0.005553
     38          1           0       -3.047366   -3.408681   -0.020866
     39          1           0       -0.867434   -4.664834   -0.036179
     40          1           0        1.614695   -4.662873    0.121091
     41          1           0        3.792507   -3.403027    0.107858
     42          1           0        5.933291   -2.019774    0.374594
     43          1           0        7.083089   -0.252726    0.731742
     44         72           0       -1.084247   -0.000268   -0.152747
 ---------------------------------------------------------------------
 Rotational constants (GHZ):      0.2984417      0.1253394      0.0889355
 Standard basis: VSTO-6G (5D, 7F)
 There are   140 symmetry adapted cartesian basis functions of A   symmetry.
 There are   139 symmetry adapted basis functions of A   symmetry.
   139 basis functions,   840 primitive gaussians,   140 cartesian basis functions
    67 alpha electrons       67 beta electrons
       nuclear repulsion energy      1226.3094060819 Hartrees.
 Integral buffers will be    262144 words long.
 Regular integral format.
 Two-electron integral symmetry is turned off.
 Do NDO integrals.
 One-electron integrals computed using PRISM.
 NBasis=   139 RedAO= F EigKep=  0.00D+00  NBF=   139
 NBsUse=   139 1.00D-04 EigRej=  0.00D+00 NBFU=   139
 Nonelectrostatic core Hamiltonian diagonalized for initial guess.
 Keep J ints in memory in canonical form, NReq=2092071.
 Gradient too large for Newton-Raphson -- use scaled steepest descent instead.
 Gradient too large for Newton-Raphson -- use scaled steepest descent instead.
 Gradient too large for Newton-Raphson -- use scaled steepest descent instead.
     Minimum is close to point  2 DX=  1.93D-02 DF= -6.11D-06 DXR=  1.72D-02 DFR=  2.97D-04 which will be used.
 Gradient too large for Newton-Raphson -- use scaled steepest descent instead.
     Accept linear search using points  1 and  2.
     Minimum is close to point  2 DX= -3.60D-02 DF= -9.52D-06 DXR=  3.74D-02 DFR=  1.40D-03 which will be used.
 Gradient too large for Newton-Raphson -- use scaled steepest descent instead.
     Minimum is close to point  2 DX=  3.30D-02 DF= -2.70D-06 DXR=  3.19D-02 DFR=  1.02D-03 which will be used.
 Gradient too large for Newton-Raphson -- use scaled steepest descent instead.
 Gradient too large for Newton-Raphson -- use scaled steepest descent instead.
     Accept linear search using points  1 and  2.
     Minimum is close to point  2 DX= -7.27D-02 DF= -3.19D-06 DXR=  7.07D-02 DFR=  5.87D-03 which will be used.
 Gradient too large for Newton-Raphson -- use scaled steepest descent instead.
     Accept linear search using points  1 and  2.
     Minimum is close to point  2 DX= -5.19D-02 DF= -8.49D-07 DXR=  4.95D-02 DFR=  2.89D-03 which will be used.
 LinEq1:  Iter=  0 NonCon=     1 RMS=2.45D-04 Max=6.94D-03 NDo=     1
 AX will form     1 AO Fock derivatives at one time.
 LinEq1:  Iter=  1 NonCon=     1 RMS=1.91D-04 Max=8.01D-03 NDo=     1
 LinEq1:  Iter=  2 NonCon=     1 RMS=2.71D-05 Max=6.92D-04 NDo=     1
 LinEq1:  Iter=  3 NonCon=     1 RMS=1.03D-05 Max=2.46D-04 NDo=     1
 LinEq1:  Iter=  4 NonCon=     1 RMS=5.18D-06 Max=1.34D-04 NDo=     1
 LinEq1:  Iter=  5 NonCon=     1 RMS=1.42D-06 Max=2.20D-05 NDo=     1
 LinEq1:  Iter=  6 NonCon=     1 RMS=5.58D-07 Max=1.18D-05 NDo=     1
 LinEq1:  Iter=  7 NonCon=     1 RMS=1.49D-07 Max=2.94D-06 NDo=     1
 LinEq1:  Iter=  8 NonCon=     1 RMS=4.02D-08 Max=6.82D-07 NDo=     1
 LinEq1:  Iter=  9 NonCon=     1 RMS=1.23D-08 Max=3.34D-07 NDo=     1
 LinEq1:  Iter= 10 NonCon=     1 RMS=4.10D-09 Max=1.24D-07 NDo=     1
 LinEq1:  Iter= 11 NonCon=     1 RMS=2.50D-09 Max=1.06D-07 NDo=     1
 LinEq1:  Iter= 12 NonCon=     0 RMS=1.02D-09 Max=1.69D-08 NDo=     1
 Linear equations converged to 9.822D-09 9.822D-08 after    12 iterations.
     Accept linear search using points  1 and  2.
     Minimum is close to point  2 DX= -4.85D-02 DF= -1.37D-06 DXR=  5.10D-02 DFR=  2.69D-03 which will be used.
 LinEq1:  Iter=  0 NonCon=     1 RMS=1.54D-05 Max=6.42D-04 NDo=     1
 LinEq1:  Iter=  1 NonCon=     1 RMS=4.01D-06 Max=1.23D-04 NDo=     1
 LinEq1:  Iter=  2 NonCon=     1 RMS=2.19D-06 Max=5.16D-05 NDo=     1
 LinEq1:  Iter=  3 NonCon=     1 RMS=5.86D-07 Max=1.13D-05 NDo=     1
 LinEq1:  Iter=  4 NonCon=     1 RMS=1.92D-07 Max=3.59D-06 NDo=     1
 LinEq1:  Iter=  5 NonCon=     1 RMS=6.63D-08 Max=1.21D-06 NDo=     1
 LinEq1:  Iter=  6 NonCon=     1 RMS=3.53D-08 Max=9.87D-07 NDo=     1
 LinEq1:  Iter=  7 NonCon=     1 RMS=9.72D-09 Max=1.70D-07 NDo=     1
 LinEq1:  Iter=  8 NonCon=     1 RMS=2.75D-09 Max=4.89D-08 NDo=     1
 LinEq1:  Iter=  9 NonCon=     0 RMS=9.76D-10 Max=1.45D-08 NDo=     1
 Linear equations converged to 3.766D-09 3.766D-08 after     9 iterations.
     Minimum is close to point  2 DX=  6.64D-03 DF= -8.71D-11 DXR=  6.59D-03 DFR=  4.35D-05 which will be used.
 LinEq1:  Iter=  0 NonCon=     1 RMS=9.77D-08 Max=3.47D-06 NDo=     1
 LinEq1:  Iter=  1 NonCon=     1 RMS=5.08D-08 Max=1.54D-06 NDo=     1
 LinEq1:  Iter=  2 NonCon=     1 RMS=1.70D-08 Max=3.98D-07 NDo=     1
 LinEq1:  Iter=  3 NonCon=     1 RMS=8.01D-09 Max=1.61D-07 NDo=     1
 LinEq1:  Iter=  4 NonCon=     1 RMS=3.29D-09 Max=7.65D-08 NDo=     1
 LinEq1:  Iter=  5 NonCon=     1 RMS=1.08D-09 Max=2.08D-08 NDo=     1
 LinEq1:  Iter=  6 NonCon=     1 RMS=3.51D-10 Max=8.38D-09 NDo=     1
 LinEq1:  Iter=  7 NonCon=     1 RMS=2.07D-10 Max=4.90D-09 NDo=     1
 LinEq1:  Iter=  8 NonCon=     1 RMS=7.53D-11 Max=9.72D-10 NDo=     1
 LinEq1:  Iter=  9 NonCon=     1 RMS=2.12D-11 Max=5.60D-10 NDo=     1
 LinEq1:  Iter= 10 NonCon=     0 RMS=7.13D-12 Max=1.08D-10 NDo=     1
 Linear equations converged to 3.214D-11 3.214D-10 after    10 iterations.
 SCF Done:  E(RPM6) =   1.26902620988     a.u. after   12 cycles
            Convg  =    0.5211D-07                    55 Fock formations.
              S**2 =  0.0000                  -V/T =  1.0135

 **********************************************************************

            Population analysis using the SCF density.

 **********************************************************************

 Orbital symmetries:
       Occupied  (A) (A) (A) (A) (A) (A) (A) (A) (A) (A) (A) (A)
                 (A) (A) (A) (A) (A) (A) (A) (A) (A) (A) (A) (A)
                 (A) (A) (A) (A) (A) (A) (A) (A) (A) (A) (A) (A)
                 (A) (A) (A) (A) (A) (A) (A) (A) (A) (A) (A) (A)
                 (A) (A) (A) (A) (A) (A) (A) (A) (A) (A) (A) (A)
                 (A) (A) (A) (A) (A) (A) (A)
       Virtual   (A) (A) (A) (A) (A) (A) (A) (A) (A) (A) (A) (A)
                 (A) (A) (A) (A) (A) (A) (A) (A) (A) (A) (A) (A)
                 (A) (A) (A) (A) (A) (A) (A) (A) (A) (A) (A) (A)
                 (A) (A) (A) (A) (A) (A) (A) (A) (A) (A) (A) (A)
                 (A) (A) (A) (A) (A) (A) (A) (A) (A) (A) (A) (A)
                 (A) (A) (A) (A) (A) (A) (A) (A) (A) (A) (A) (A)
 The electronic state is 1-A.
 Alpha  occ. eigenvalues --   -1.30916  -1.30697  -1.09639  -1.05744  -1.04168
 Alpha  occ. eigenvalues --   -1.02837  -0.99059  -0.98872  -0.96668  -0.94430
 Alpha  occ. eigenvalues --   -0.92939  -0.91754  -0.89278  -0.86918  -0.85555
 Alpha  occ. eigenvalues --   -0.80798  -0.79510  -0.77874  -0.77357  -0.74416
 Alpha  occ. eigenvalues --   -0.73638  -0.71917  -0.69394  -0.67409  -0.66430
 Alpha  occ. eigenvalues --   -0.61719  -0.61339  -0.60555  -0.58808  -0.58215
 Alpha  occ. eigenvalues --   -0.57311  -0.56601  -0.56212  -0.54384  -0.53785
 Alpha  occ. eigenvalues --   -0.53374  -0.52429  -0.51685  -0.51545  -0.50971
 Alpha  occ. eigenvalues --   -0.49724  -0.49543  -0.48674  -0.47768  -0.47263
 Alpha  occ. eigenvalues --   -0.46584  -0.46306  -0.45289  -0.45107  -0.44858
 Alpha  occ. eigenvalues --   -0.44445  -0.43937  -0.43249  -0.42481  -0.41609
 Alpha  occ. eigenvalues --   -0.40955  -0.40431  -0.39664  -0.39324  -0.39056
 Alpha  occ. eigenvalues --   -0.35203  -0.34872  -0.33771  -0.32352  -0.30774
 Alpha  occ. eigenvalues --   -0.28559  -0.27500
 Alpha virt. eigenvalues --   -0.10988  -0.07443  -0.05944  -0.05819  -0.04879
 Alpha virt. eigenvalues --   -0.04412  -0.03635  -0.01570  -0.01338   0.00472
 Alpha virt. eigenvalues --    0.00942   0.01153   0.02135   0.03524   0.04217
 Alpha virt. eigenvalues --    0.04644   0.06020   0.06425   0.06509   0.07802
 Alpha virt. eigenvalues --    0.10811   0.10959   0.11466   0.11777   0.12066
 Alpha virt. eigenvalues --    0.12768   0.12805   0.13051   0.13210   0.13629
 Alpha virt. eigenvalues --    0.13633   0.13752   0.14020   0.14248   0.14260
 Alpha virt. eigenvalues --    0.14324   0.14419   0.14641   0.14789   0.15122
 Alpha virt. eigenvalues --    0.15200   0.15244   0.15466   0.15731   0.15861
 Alpha virt. eigenvalues --    0.15899   0.16163   0.16183   0.16700   0.16777
 Alpha virt. eigenvalues --    0.16930   0.17497   0.17613   0.17793   0.18062
 Alpha virt. eigenvalues --    0.20223   0.20739   0.20745   0.20951   0.21119
 Alpha virt. eigenvalues --    0.21191   0.21266   0.21306   0.21361   0.21387
 Alpha virt. eigenvalues --    0.21481   0.21620   0.21796   0.22196   0.64377
 Alpha virt. eigenvalues --    0.69891   0.70198
          Condensed to atoms (all electrons):
               1          2          3          4          5          6
     1  C    4.108182   0.000000   0.000000   0.000000   0.000000   0.000000
     2  C    0.000000   4.144277   0.000000   0.000000   0.000000   0.000000
     3  C    0.000000   0.000000   3.979011   0.000000   0.000000   0.000000
     4  C    0.000000   0.000000   0.000000   4.005131   0.000000   0.000000
     5  C    0.000000   0.000000   0.000000   0.000000   4.153092   0.000000
     6  C    0.000000   0.000000   0.000000   0.000000   0.000000   4.117105
     7  C    0.000000   0.000000   0.000000   0.000000   0.000000   0.000000
     8  C    0.000000   0.000000   0.000000   0.000000   0.000000   0.000000
     9  C    0.000000   0.000000   0.000000   0.000000   0.000000   0.000000
    10  C    0.000000   0.000000   0.000000   0.000000   0.000000   0.000000
    11  C    0.000000   0.000000   0.000000   0.000000   0.000000   0.000000
    12  C    0.000000   0.000000   0.000000   0.000000   0.000000   0.000000
    13  C    0.000000   0.000000   0.000000   0.000000   0.000000   0.000000
    14  C    0.000000   0.000000   0.000000   0.000000   0.000000   0.000000
    15  C    0.000000   0.000000   0.000000   0.000000   0.000000   0.000000
    16  C    0.000000   0.000000   0.000000   0.000000   0.000000   0.000000
    17  C    0.000000   0.000000   0.000000   0.000000   0.000000   0.000000
    18  C    0.000000   0.000000   0.000000   0.000000   0.000000   0.000000
    19  C    0.000000   0.000000   0.000000   0.000000   0.000000   0.000000
    20  C    0.000000   0.000000   0.000000   0.000000   0.000000   0.000000
    21  C    0.000000   0.000000   0.000000   0.000000   0.000000   0.000000
    22  C    0.000000   0.000000   0.000000   0.000000   0.000000   0.000000
    23  C    0.000000   0.000000   0.000000   0.000000   0.000000   0.000000
    24  C    0.000000   0.000000   0.000000   0.000000   0.000000   0.000000
    25  C    0.000000   0.000000   0.000000   0.000000   0.000000   0.000000
    26  C    0.000000   0.000000   0.000000   0.000000   0.000000   0.000000
    27  C    0.000000   0.000000   0.000000   0.000000   0.000000   0.000000
    28  C    0.000000   0.000000   0.000000   0.000000   0.000000   0.000000
    29  C    0.000000   0.000000   0.000000   0.000000   0.000000   0.000000
    30  H    0.000000   0.000000   0.000000   0.000000   0.000000   0.000000
    31  H    0.000000   0.000000   0.000000   0.000000   0.000000   0.000000
    32  H    0.000000   0.000000   0.000000   0.000000   0.000000   0.000000
    33  H    0.000000   0.000000   0.000000   0.000000   0.000000   0.000000
    34  H    0.000000   0.000000   0.000000   0.000000   0.000000   0.000000
    35  H    0.000000   0.000000   0.000000   0.000000   0.000000   0.000000
    36  H    0.000000   0.000000   0.000000   0.000000   0.000000   0.000000
    37  H    0.000000   0.000000   0.000000   0.000000   0.000000   0.000000
    38  H    0.000000   0.000000   0.000000   0.000000   0.000000   0.000000
    39  H    0.000000   0.000000   0.000000   0.000000   0.000000   0.000000
    40  H    0.000000   0.000000   0.000000   0.000000   0.000000   0.000000
    41  H    0.000000   0.000000   0.000000   0.000000   0.000000   0.000000
    42  H    0.000000   0.000000   0.000000   0.000000   0.000000   0.000000
    43  H    0.000000   0.000000   0.000000   0.000000   0.000000   0.000000
    44  Hf   0.000000   0.000000   0.000000   0.000000   0.000000   0.000000
               7          8          9         10         11         12
     1  C    0.000000   0.000000   0.000000   0.000000   0.000000   0.000000
     2  C    0.000000   0.000000   0.000000   0.000000   0.000000   0.000000
     3  C    0.000000   0.000000   0.000000   0.000000   0.000000   0.000000
     4  C    0.000000   0.000000   0.000000   0.000000   0.000000   0.000000
     5  C    0.000000   0.000000   0.000000   0.000000   0.000000   0.000000
     6  C    0.000000   0.000000   0.000000   0.000000   0.000000   0.000000
     7  C    4.144365   0.000000   0.000000   0.000000   0.000000   0.000000
     8  C    0.000000   4.148119   0.000000   0.000000   0.000000   0.000000
     9  C    0.000000   0.000000   4.065658   0.000000   0.000000   0.000000
    10  C    0.000000   0.000000   0.000000   3.930372   0.000000   0.000000
    11  C    0.000000   0.000000   0.000000   0.000000   3.957811   0.000000
    12  C    0.000000   0.000000   0.000000   0.000000   0.000000   4.166681
    13  C    0.000000   0.000000   0.000000   0.000000   0.000000   0.000000
    14  C    0.000000   0.000000   0.000000   0.000000   0.000000   0.000000
    15  C    0.000000   0.000000   0.000000   0.000000   0.000000   0.000000
    16  C    0.000000   0.000000   0.000000   0.000000   0.000000   0.000000
    17  C    0.000000   0.000000   0.000000   0.000000   0.000000   0.000000
    18  C    0.000000   0.000000   0.000000   0.000000   0.000000   0.000000
    19  C    0.000000   0.000000   0.000000   0.000000   0.000000   0.000000
    20  C    0.000000   0.000000   0.000000   0.000000   0.000000   0.000000
    21  C    0.000000   0.000000   0.000000   0.000000   0.000000   0.000000
    22  C    0.000000   0.000000   0.000000   0.000000   0.000000   0.000000
    23  C    0.000000   0.000000   0.000000   0.000000   0.000000   0.000000
    24  C    0.000000   0.000000   0.000000   0.000000   0.000000   0.000000
    25  C    0.000000   0.000000   0.000000   0.000000   0.000000   0.000000
    26  C    0.000000   0.000000   0.000000   0.000000   0.000000   0.000000
    27  C    0.000000   0.000000   0.000000   0.000000   0.000000   0.000000
    28  C    0.000000   0.000000   0.000000   0.000000   0.000000   0.000000
    29  C    0.000000   0.000000   0.000000   0.000000   0.000000   0.000000
    30  H    0.000000   0.000000   0.000000   0.000000   0.000000   0.000000
    31  H    0.000000   0.000000   0.000000   0.000000   0.000000   0.000000
    32  H    0.000000   0.000000   0.000000   0.000000   0.000000   0.000000
    33  H    0.000000   0.000000   0.000000   0.000000   0.000000   0.000000
    34  H    0.000000   0.000000   0.000000   0.000000   0.000000   0.000000
    35  H    0.000000   0.000000   0.000000   0.000000   0.000000   0.000000
    36  H    0.000000   0.000000   0.000000   0.000000   0.000000   0.000000
    37  H    0.000000   0.000000   0.000000   0.000000   0.000000   0.000000
    38  H    0.000000   0.000000   0.000000   0.000000   0.000000   0.000000
    39  H    0.000000   0.000000   0.000000   0.000000   0.000000   0.000000
    40  H    0.000000   0.000000   0.000000   0.000000   0.000000   0.000000
    41  H    0.000000   0.000000   0.000000   0.000000   0.000000   0.000000
    42  H    0.000000   0.000000   0.000000   0.000000   0.000000   0.000000
    43  H    0.000000   0.000000   0.000000   0.000000   0.000000   0.000000
    44  Hf   0.000000   0.000000   0.000000   0.000000   0.000000   0.000000
              13         14         15         16         17         18
     1  C    0.000000   0.000000   0.000000   0.000000   0.000000   0.000000
     2  C    0.000000   0.000000   0.000000   0.000000   0.000000   0.000000
     3  C    0.000000   0.000000   0.000000   0.000000   0.000000   0.000000
     4  C    0.000000   0.000000   0.000000   0.000000   0.000000   0.000000
     5  C    0.000000   0.000000   0.000000   0.000000   0.000000   0.000000
     6  C    0.000000   0.000000   0.000000   0.000000   0.000000   0.000000
     7  C    0.000000   0.000000   0.000000   0.000000   0.000000   0.000000
     8  C    0.000000   0.000000   0.000000   0.000000   0.000000   0.000000
     9  C    0.000000   0.000000   0.000000   0.000000   0.000000   0.000000
    10  C    0.000000   0.000000   0.000000   0.000000   0.000000   0.000000
    11  C    0.000000   0.000000   0.000000   0.000000   0.000000   0.000000
    12  C    0.000000   0.000000   0.000000   0.000000   0.000000   0.000000
    13  C    3.897941   0.000000   0.000000   0.000000   0.000000   0.000000
    14  C    0.000000   3.863779   0.000000   0.000000   0.000000   0.000000
    15  C    0.000000   0.000000   4.066287   0.000000   0.000000   0.000000
    16  C    0.000000   0.000000   0.000000   3.997338   0.000000   0.000000
    17  C    0.000000   0.000000   0.000000   0.000000   3.895725   0.000000
    18  C    0.000000   0.000000   0.000000   0.000000   0.000000   4.141428
    19  C    0.000000   0.000000   0.000000   0.000000   0.000000   0.000000
    20  C    0.000000   0.000000   0.000000   0.000000   0.000000   0.000000
    21  C    0.000000   0.000000   0.000000   0.000000   0.000000   0.000000
    22  C    0.000000   0.000000   0.000000   0.000000   0.000000   0.000000
    23  C    0.000000   0.000000   0.000000   0.000000   0.000000   0.000000
    24  C    0.000000   0.000000   0.000000   0.000000   0.000000   0.000000
    25  C    0.000000   0.000000   0.000000   0.000000   0.000000   0.000000
    26  C    0.000000   0.000000   0.000000   0.000000   0.000000   0.000000
    27  C    0.000000   0.000000   0.000000   0.000000   0.000000   0.000000
    28  C    0.000000   0.000000   0.000000   0.000000   0.000000   0.000000
    29  C    0.000000   0.000000   0.000000   0.000000   0.000000   0.000000
    30  H    0.000000   0.000000   0.000000   0.000000   0.000000   0.000000
    31  H    0.000000   0.000000   0.000000   0.000000   0.000000   0.000000
    32  H    0.000000   0.000000   0.000000   0.000000   0.000000   0.000000
    33  H    0.000000   0.000000   0.000000   0.000000   0.000000   0.000000
    34  H    0.000000   0.000000   0.000000   0.000000   0.000000   0.000000
    35  H    0.000000   0.000000   0.000000   0.000000   0.000000   0.000000
    36  H    0.000000   0.000000   0.000000   0.000000   0.000000   0.000000
    37  H    0.000000   0.000000   0.000000   0.000000   0.000000   0.000000
    38  H    0.000000   0.000000   0.000000   0.000000   0.000000   0.000000
    39  H    0.000000   0.000000   0.000000   0.000000   0.000000   0.000000
    40  H    0.000000   0.000000   0.000000   0.000000   0.000000   0.000000
    41  H    0.000000   0.000000   0.000000   0.000000   0.000000   0.000000
    42  H    0.000000   0.000000   0.000000   0.000000   0.000000   0.000000
    43  H    0.000000   0.000000   0.000000   0.000000   0.000000   0.000000
    44  Hf   0.000000   0.000000   0.000000   0.000000   0.000000   0.000000
              19         20         21         22         23         24
     1  C    0.000000   0.000000   0.000000   0.000000   0.000000   0.000000
     2  C    0.000000   0.000000   0.000000   0.000000   0.000000   0.000000
     3  C    0.000000   0.000000   0.000000   0.000000   0.000000   0.000000
     4  C    0.000000   0.000000   0.000000   0.000000   0.000000   0.000000
     5  C    0.000000   0.000000   0.000000   0.000000   0.000000   0.000000
     6  C    0.000000   0.000000   0.000000   0.000000   0.000000   0.000000
     7  C    0.000000   0.000000   0.000000   0.000000   0.000000   0.000000
     8  C    0.000000   0.000000   0.000000   0.000000   0.000000   0.000000
     9  C    0.000000   0.000000   0.000000   0.000000   0.000000   0.000000
    10  C    0.000000   0.000000   0.000000   0.000000   0.000000   0.000000
    11  C    0.000000   0.000000   0.000000   0.000000   0.000000   0.000000
    12  C    0.000000   0.000000   0.000000   0.000000   0.000000   0.000000
    13  C    0.000000   0.000000   0.000000   0.000000   0.000000   0.000000
    14  C    0.000000   0.000000   0.000000   0.000000   0.000000   0.000000
    15  C    0.000000   0.000000   0.000000   0.000000   0.000000   0.000000
    16  C    0.000000   0.000000   0.000000   0.000000   0.000000   0.000000
    17  C    0.000000   0.000000   0.000000   0.000000   0.000000   0.000000
    18  C    0.000000   0.000000   0.000000   0.000000   0.000000   0.000000
    19  C    4.007146   0.000000   0.000000   0.000000   0.000000   0.000000
    20  C    0.000000   3.973197   0.000000   0.000000   0.000000   0.000000
    21  C    0.000000   0.000000   4.106548   0.000000   0.000000   0.000000
    22  C    0.000000   0.000000   0.000000   3.952114   0.000000   0.000000
    23  C    0.000000   0.000000   0.000000   0.000000   3.959821   0.000000
    24  C    0.000000   0.000000   0.000000   0.000000   0.000000   3.963384
    25  C    0.000000   0.000000   0.000000   0.000000   0.000000   0.000000
    26  C    0.000000   0.000000   0.000000   0.000000   0.000000   0.000000
    27  C    0.000000   0.000000   0.000000   0.000000   0.000000   0.000000
    28  C    0.000000   0.000000   0.000000   0.000000   0.000000   0.000000
    29  C    0.000000   0.000000   0.000000   0.000000   0.000000   0.000000
    30  H    0.000000   0.000000   0.000000   0.000000   0.000000   0.000000
    31  H    0.000000   0.000000   0.000000   0.000000   0.000000   0.000000
    32  H    0.000000   0.000000   0.000000   0.000000   0.000000   0.000000
    33  H    0.000000   0.000000   0.000000   0.000000   0.000000   0.000000
    34  H    0.000000   0.000000   0.000000   0.000000   0.000000   0.000000
    35  H    0.000000   0.000000   0.000000   0.000000   0.000000   0.000000
    36  H    0.000000   0.000000   0.000000   0.000000   0.000000   0.000000
    37  H    0.000000   0.000000   0.000000   0.000000   0.000000   0.000000
    38  H    0.000000   0.000000   0.000000   0.000000   0.000000   0.000000
    39  H    0.000000   0.000000   0.000000   0.000000   0.000000   0.000000
    40  H    0.000000   0.000000   0.000000   0.000000   0.000000   0.000000
    41  H    0.000000   0.000000   0.000000   0.000000   0.000000   0.000000
    42  H    0.000000   0.000000   0.000000   0.000000   0.000000   0.000000
    43  H    0.000000   0.000000   0.000000   0.000000   0.000000   0.000000
    44  Hf   0.000000   0.000000   0.000000   0.000000   0.000000   0.000000
              25         26         27         28         29         30
     1  C    0.000000   0.000000   0.000000   0.000000   0.000000   0.000000
     2  C    0.000000   0.000000   0.000000   0.000000   0.000000   0.000000
     3  C    0.000000   0.000000   0.000000   0.000000   0.000000   0.000000
     4  C    0.000000   0.000000   0.000000   0.000000   0.000000   0.000000
     5  C    0.000000   0.000000   0.000000   0.000000   0.000000   0.000000
     6  C    0.000000   0.000000   0.000000   0.000000   0.000000   0.000000
     7  C    0.000000   0.000000   0.000000   0.000000   0.000000   0.000000
     8  C    0.000000   0.000000   0.000000   0.000000   0.000000   0.000000
     9  C    0.000000   0.000000   0.000000   0.000000   0.000000   0.000000
    10  C    0.000000   0.000000   0.000000   0.000000   0.000000   0.000000
    11  C    0.000000   0.000000   0.000000   0.000000   0.000000   0.000000
    12  C    0.000000   0.000000   0.000000   0.000000   0.000000   0.000000
    13  C    0.000000   0.000000   0.000000   0.000000   0.000000   0.000000
    14  C    0.000000   0.000000   0.000000   0.000000   0.000000   0.000000
    15  C    0.000000   0.000000   0.000000   0.000000   0.000000   0.000000
    16  C    0.000000   0.000000   0.000000   0.000000   0.000000   0.000000
    17  C    0.000000   0.000000   0.000000   0.000000   0.000000   0.000000
    18  C    0.000000   0.000000   0.000000   0.000000   0.000000   0.000000
    19  C    0.000000   0.000000   0.000000   0.000000   0.000000   0.000000
    20  C    0.000000   0.000000   0.000000   0.000000   0.000000   0.000000
    21  C    0.000000   0.000000   0.000000   0.000000   0.000000   0.000000
    22  C    0.000000   0.000000   0.000000   0.000000   0.000000   0.000000
    23  C    0.000000   0.000000   0.000000   0.000000   0.000000   0.000000
    24  C    0.000000   0.000000   0.000000   0.000000   0.000000   0.000000
    25  C    3.954711   0.000000   0.000000   0.000000   0.000000   0.000000
    26  C    0.000000   3.934532   0.000000   0.000000   0.000000   0.000000
    27  C    0.000000   0.000000   4.103238   0.000000   0.000000   0.000000
    28  C    0.000000   0.000000   0.000000   4.124099   0.000000   0.000000
    29  C    0.000000   0.000000   0.000000   0.000000   4.146273   0.000000
    30  H    0.000000   0.000000   0.000000   0.000000   0.000000   0.872085
    31  H    0.000000   0.000000   0.000000   0.000000   0.000000   0.000000
    32  H    0.000000   0.000000   0.000000   0.000000   0.000000   0.000000
    33  H    0.000000   0.000000   0.000000   0.000000   0.000000   0.000000
    34  H    0.000000   0.000000   0.000000   0.000000   0.000000   0.000000
    35  H    0.000000   0.000000   0.000000   0.000000   0.000000   0.000000
    36  H    0.000000   0.000000   0.000000   0.000000   0.000000   0.000000
    37  H    0.000000   0.000000   0.000000   0.000000   0.000000   0.000000
    38  H    0.000000   0.000000   0.000000   0.000000   0.000000   0.000000
    39  H    0.000000   0.000000   0.000000   0.000000   0.000000   0.000000
    40  H    0.000000   0.000000   0.000000   0.000000   0.000000   0.000000
    41  H    0.000000   0.000000   0.000000   0.000000   0.000000   0.000000
    42  H    0.000000   0.000000   0.000000   0.000000   0.000000   0.000000
    43  H    0.000000   0.000000   0.000000   0.000000   0.000000   0.000000
    44  Hf   0.000000   0.000000   0.000000   0.000000   0.000000   0.000000
              31         32         33         34         35         36
     1  C    0.000000   0.000000   0.000000   0.000000   0.000000   0.000000
     2  C    0.000000   0.000000   0.000000   0.000000   0.000000   0.000000
     3  C    0.000000   0.000000   0.000000   0.000000   0.000000   0.000000
     4  C    0.000000   0.000000   0.000000   0.000000   0.000000   0.000000
     5  C    0.000000   0.000000   0.000000   0.000000   0.000000   0.000000
     6  C    0.000000   0.000000   0.000000   0.000000   0.000000   0.000000
     7  C    0.000000   0.000000   0.000000   0.000000   0.000000   0.000000
     8  C    0.000000   0.000000   0.000000   0.000000   0.000000   0.000000
     9  C    0.000000   0.000000   0.000000   0.000000   0.000000   0.000000
    10  C    0.000000   0.000000   0.000000   0.000000   0.000000   0.000000
    11  C    0.000000   0.000000   0.000000   0.000000   0.000000   0.000000
    12  C    0.000000   0.000000   0.000000   0.000000   0.000000   0.000000
    13  C    0.000000   0.000000   0.000000   0.000000   0.000000   0.000000
    14  C    0.000000   0.000000   0.000000   0.000000   0.000000   0.000000
    15  C    0.000000   0.000000   0.000000   0.000000   0.000000   0.000000
    16  C    0.000000   0.000000   0.000000   0.000000   0.000000   0.000000
    17  C    0.000000   0.000000   0.000000   0.000000   0.000000   0.000000
[...]
 84,-0.00000562,-0.03360559,0.00788779,-0.00019916,-0.00148086,-0.00123
 959,0.00005288,-0.00001631,-0.00009233,0.00000635,0.00000862,-0.000053
 32,0.00000579,0.00013229,0.00018294,-0.00003264,-0.00000782,0.00008119
 ,0.00000158,0.00002083,0.00003803,0.00000071,-0.00018785,0.00046358,-0
 .00011951,-0.00003458,0.00002796,0.00002951,-0.00005115,-0.00000760,0.
 00000862,0.00001383,-0.00002819,0.00001687,0.00002707,0.00002376,-0.00
 002942,-0.00003826,-0.00000016,-0.00000382,0.00003901,-0.00042822,-0.0
 0000320,-0.00004228,0.00002707,-0.00000453,-0.00000647,-0.00000345,0.0
 0000094,-0.00211346,0.00093886,-0.00025075,0.00003632,0.00000249,-0.00
 001066,-0.00242231,-0.00082037,-0.00007330,0.00002389,0.00001563,0.000
 03783,0.00001069,-0.00003965,-0.00001571,0.00002808,-0.00004211,0.0000
 0144,-0.00010022,-0.00011410,-0.00001535,0.00000906,-0.00001271,0.0000
 0126,0.00000675,0.00000887,0.00000173,0.00001067,-0.00002116,0.0000004
 8,-0.00000017,0.00000035,-0.00000051,0.00000031,-0.00000066,-0.0000011
 3,-0.00000025,-0.00000566,-0.00000013,-0.00000011,0.00000208,-0.000002
 20,0.00000130,-0.00000104,-0.00000139,0.00000191,0.00000646,-0.0000036
 7,-0.00001023,0.00001059,-0.00000163,-0.00002868,-0.00002758,0.0000005
 0,-0.00083940,-0.00008189,-0.00000628,0.05666844,-0.00044517,0.0001058
 5,0.00001762,0.00108415,0.00016205,-0.00018369,0.01618007,-0.02558297,
 0.00268016,-0.01400534,-0.02532202,0.00187807,0.00030204,-0.00010207,-
 0.00000567,0.00828348,-0.21671457,0.01254171,-0.00091661,-0.00010289,-
 0.00002964,-0.00028173,0.00040885,-0.00004678,-0.00019544,0.00028241,0
 .00001964,0.00020508,-0.00034019,-0.00002876,0.00004554,-0.00059510,0.
 00004404,-0.00008375,-0.00022394,-0.00000321,-0.00000742,-0.00033932,-
 0.00038780,0.00008015,-0.00002286,-0.00012269,0.00017697,0.00010078,-0
 .00000189,0.00047934,0.00068160,-0.00006000,0.00002001,0.00026494,-0.0
 0041667,0.00004938,0.00007636,-0.00001129,0.00002557,-0.00012102,-0.00
 001957,0.00003951,0.00002891,0.00000168,0.00005704,0.00001775,0.000004
 23,0.00083576,-0.00146466,0.00086915,-0.00008610,0.00016160,0.00008764
 ,-0.00130705,-0.00015745,0.00012636,-0.00000838,-0.00050917,0.00011474
 ,-0.00013761,-0.00020287,0.00000267,0.00003657,-0.00013597,0.00000346,
 0.00001416,-0.00005121,0.00000949,0.00005082,0.00003899,0.00000809,-0.
 00001363,-0.00000632,0.00000329,-0.00002748,-0.00001725,-0.00000580,-0
 .00002973,-0.00001716,-0.00000416,0.00000068,-0.00001241,0.00000004,-0
 .00000959,-0.00004889,-0.00000406,0.00000976,-0.00007744,-0.00002236,0
 .00003692,-0.00001895,-0.00000483,0.00007410,0.00001933,-0.00002735,0.
 00011600,0.00006529,0.00000693,0.00010134,0.00017196,-0.00001407,0.000
 03780,0.00043490,-0.00000557,-0.01033422,0.26848305,0.00007911,-0.0000
 6978,-0.00013468,-0.00013533,-0.00022166,-0.00234277,-0.00146331,0.002
 91733,0.00646342,0.00028286,0.00152676,0.00674824,-0.00001060,-0.00002
 038,-0.00012984,0.00002494,0.01259719,-0.04309300,0.00007751,-0.000081
 21,-0.00062018,0.00011636,-0.00018232,-0.00000075,0.00008839,-0.000176
 90,-0.00002951,-0.00020140,0.00014706,0.00014468,-0.00012484,0.0002045
 6,0.00005702,0.00009228,0.00015602,-0.00000518,0.00057841,-0.00004529,
 -0.00032118,-0.00003167,-0.00009475,0.00001591,-0.00018109,-0.00002931
 ,0.00000090,0.00013027,-0.00008292,0.00004496,0.00007632,-0.00002132,-
 0.00002721,-0.00012511,-0.00000635,-0.00003517,0.00001135,0.00006653,-
 0.00030467,-0.00008975,0.00001210,0.00006350,-0.00002484,-0.00000294,-
 0.00001381,-0.00050846,0.00076194,0.00732486,0.00021581,-0.00004288,-0
 .00004337,-0.00013334,0.00024622,0.00231894,0.00009506,-0.00000131,-0.
 00044733,0.00005207,-0.00010492,0.00010908,0.00000465,0.00000343,-0.00
 003431,0.00003476,-0.00006117,0.00008695,0.00000970,-0.00002892,-0.000
 02255,0.00000032,0.00000081,0.00005246,0.00000530,0.00000250,-0.000020
 12,0.00000188,0.00000201,0.00000839,-0.00000256,-0.00000318,0.00000612
 ,0.,-0.00000103,-0.00000960,0.00000536,0.00000356,0.00001647,-0.000004
 90,0.00000233,0.00000415,-0.00000413,0.00000004,0.00000220,-0.00001651
 ,-0.00000720,-0.00000886,-0.00001092,0.00000750,0.00027822,-0.00001838
 ,-0.00000921,0.00036394,0.00136371,-0.01751965,0.02365095,0.00003557,-
 0.00004601,-0.00000213,-0.00004510,-0.00005493,0.00000322,0.00012096,-
 0.00006917,-0.00001544,-0.00758871,0.02913847,-0.00138758,-0.00664492,
 -0.02882517,0.00044900,-0.00134489,0.00106841,-0.00001431,-0.03382460,
 0.00267693,0.00028267,0.00002233,-0.00006290,0.00001105,0.00002217,-0.
 00003972,-0.00000089,0.00000302,0.00007952,0.00000142,-0.00000142,0.00
 008257,-0.00000768,0.00001027,0.00002991,0.00000067,-0.00004737,0.0000
 2097,0.00003623,-0.00001847,-0.00000006,0.00002622,-0.00002584,-0.0000
 1532,0.00000070,-0.00007367,0.00042263,-0.00002463,0.00002403,-0.00001
 981,0.00006377,-0.00000808,-0.00000752,0.00000170,0.00011226,-0.000020
 89,0.00000493,0.00003622,-0.00001067,-0.00000199,-0.00000508,-0.000000
 43,0.00000070,0.00013729,0.00013119,-0.00001244,0.00001221,-0.00002161
 ,-0.00001143,-0.00239556,0.00077493,-0.00029554,-0.00014387,0.00008776
 ,-0.00002384,0.00000686,0.00002972,-0.00000244,-0.00254234,-0.00112155
 ,-0.00024769,-0.00001491,0.00006351,0.00002608,-0.00000709,0.00000054,
 -0.00000409,0.00005803,-0.00043117,0.00000852,-0.00000104,0.00000440,-
 0.00000046,0.00000472,0.00000343,0.00000051,-0.00000021,0.00000087,0.0
 0000013,0.00000112,0.00000689,0.00000004,-0.00000116,0.00001113,0.0000
 0284,-0.00000419,0.00000227,0.00000030,-0.00000864,-0.00000055,0.00000
 271,-0.00001453,-0.00000448,-0.00000187,-0.00001831,-0.00001652,0.0000
 0465,-0.00002461,0.00001609,-0.00000101,-0.00088375,-0.00013299,0.0000
 0189,0.05535582,-0.00009851,0.00002962,0.00000603,0.00020890,-0.000002
 37,0.00000334,-0.00060120,0.00014783,0.00001803,0.01470458,-0.02541622
 ,0.00153312,-0.01435641,-0.02698822,0.00051045,0.00134471,0.00009720,-
 0.00006502,0.00232476,-0.21846640,0.00560651,-0.00011900,0.00007823,-0
 .00001822,-0.00006443,-0.00002305,0.00000789,0.00014393,0.00003079,-0.
 00002059,-0.00007904,-0.00017536,0.00005664,0.00005320,0.00002986,-0.0
 0000209,-0.00017007,-0.00013689,-0.00032652,0.00004318,-0.00003302,-0.
 00009024,-0.00012923,0.00004332,0.00001087,0.00010167,-0.00033661,-0.0
 0003461,0.00000844,0.00017853,-0.00032125,-0.00024143,0.00003547,-0.00
 002789,-0.00023542,0.00093993,-0.00000470,-0.00055412,0.00028433,0.000
 01287,-0.00014257,0.00004988,0.00000848,0.00012945,-0.00036828,0.00018
 935,0.00024225,0.00017282,0.00004637,0.00121893,-0.00036878,0.00021412
 ,0.00049256,0.00015459,0.00019038,0.00013530,-0.00008980,-0.00002884,-
 0.00125689,-0.00085348,0.00014257,0.00021320,-0.00072042,-0.00004909,0
 .00008048,-0.00024199,-0.00000025,-0.00001576,-0.00019843,-0.00001774,
 -0.00001810,0.00000145,-0.00000049,-0.00003645,-0.00002137,-0.00000538
 ,-0.00001791,-0.00007180,-0.00001269,0.00000053,-0.00007438,0.00000339
 ,0.00001400,-0.00005873,-0.00002054,0.00003148,-0.00001809,-0.00000456
 ,0.00006260,0.00002416,-0.00002110,0.00005839,0.00004130,0.00000064,0.
 00004057,0.00004788,-0.00000892,-0.00003054,0.00011522,-0.00000824,0.0
 0007642,0.00041040,-0.00000826,-0.00279142,0.27110065,0.00000431,0.000
 00200,-0.00000972,-0.00000451,0.00000982,0.00009498,-0.00002686,0.0000
 5281,-0.00003762,-0.00137912,0.00228053,0.00589754,-0.00033701,-0.0003
 3910,0.00602617,0.00005108,-0.00002684,-0.00145918,0.00090107,0.005612
 35,-0.04205037,-0.00000265,0.00000650,-0.00000476,0.00000532,0.0000064
 0,-0.00000719,-0.00000818,0.00000061,0.00002191,-0.00000352,-0.0000216
 9,0.00000380,-0.00000534,-0.00000599,0.00000105,-0.00006052,0.00005197
 ,0.00000909,0.00001703,-0.00000215,-0.00001063,0.00001441,-0.00000502,
 -0.00000684,-0.00002059,-0.00006519,-0.00025339,0.00006048,-0.00001023
 ,0.00004666,0.00001153,-0.00000774,-0.00000410,0.00032930,-0.00011295,
 0.00016878,0.00007550,-0.00000544,0.00000279,0.00000359,-0.00000320,-0
 .00000443,0.00007402,-0.00002416,0.00000446,-0.00000833,0.00001077,0.0
 0000515,-0.00042689,-0.00004711,0.00499202,-0.00008803,0.00005921,-0.0
 0005135,-0.00000337,0.00001760,-0.00002713,-0.00035778,0.00044058,0.00
 537875,0.00000700,0.00009547,-0.00088321,-0.00001350,0.00000362,0.0001
 0602,0.00001880,0.00000153,-0.00042413,-0.00000184,-0.00000299,0.00005
 247,0.00000227,0.00000102,0.00000188,0.00000091,0.00000321,-0.00001060
 ,-0.00000028,0.00000467,0.00001096,0.00000005,0.00000376,0.00000242,-0
 .00000241,0.00000143,0.00000192,-0.00000326,-0.00000254,0.00000322,-0.
 00000266,-0.00000154,0.00000470,-0.00000298,-0.00000255,-0.00000396,0.
 00000125,-0.00000405,0.00002319,-0.00000812,0.00000432,0.00034087,0.00
 114262,-0.00783305,0.02333362,0.00005102,-0.00001000,-0.00000774,-0.00
 006086,0.00001901,-0.00000379,0.00005264,-0.00020964,0.00006675,-0.001
 74195,-0.00179718,-0.00015373,-0.17201945,0.08004791,-0.00616537,-0.00
 050366,0.00020712,-0.00001644,-0.04131758,0.00443018,-0.00167064,0.000
 11193,-0.00008634,-0.00001721,0.00005343,-0.00002467,-0.00000584,-0.00
 007319,-0.00000684,0.00001435,0.00001909,0.00011961,-0.00001320,-0.000
 00056,0.00000302,-0.00000101,0.00013346,-0.00011538,-0.00001982,-0.000
 03160,0.00001969,-0.00000253,0.00004328,-0.00003464,-0.00000547,0.0001
 0440,-0.00003717,-0.00001104,0.00014791,-0.00004461,-0.00002717,0.0001
 2922,-0.00005387,-0.00001646,0.00022181,-0.00009696,-0.00015615,0.0001
 4622,-0.00003759,0.00005789,0.00003563,-0.00005209,-0.00000856,-0.0002
 5184,0.00011757,-0.00005511,-0.00009007,-0.00007790,-0.00001392,0.0000
 4801,0.00000274,-0.00002254,-0.00021270,0.00013706,-0.00005301,-0.0000
 3611,0.00005857,0.00001482,-0.00270403,0.01242188,-0.00052604,0.000018
 86,-0.00000335,0.00001218,-0.00002321,0.00003516,-0.00000228,0.0009233
 9,-0.00020576,0.00007817,0.00007494,0.00003571,-0.00000510,0.00002853,
 0.00001503,0.00000354,0.00001035,0.00003634,0.00000497,0.00000040,0.00
 003716,0.00000202,-0.00000500,0.00003321,0.00000806,-0.00002375,0.0000
 1383,0.00000401,-0.00003086,-0.00001178,0.00000814,-0.00003115,-0.0000
 1844,0.00000230,-0.00002479,-0.00002268,0.00000461,0.00000116,-0.00002
 380,0.00000317,0.00000661,-0.00002495,-0.00000827,-0.00032762,-0.00054
 167,0.00004072,0.21712435,-0.00004328,0.00000009,0.00000555,0.00001363
 ,0.00000789,0.00000039,-0.00009148,0.00000423,-0.00002903,-0.00122359,
 -0.00086324,0.00010295,0.08004189,-0.08020427,0.00355498,-0.00030294,0
 .00013568,-0.00002389,-0.00971261,0.00696695,-0.00037938,-0.00006399,0
 .00004911,0.00000900,-0.00002887,0.00000942,0.00000298,0.00003746,-0.0
 0000655,-0.00000900,-0.00001517,-0.00006632,0.00000892,0.00000295,0.00
 000278,0.00000057,-0.00005301,0.00005621,0.00001990,0.00001972,-0.0000
 0902,0.00000143,-0.00003032,0.00001943,0.00000356,-0.00003718,0.000061
 67,0.00000483,-0.00010701,0.00004164,0.00000745,-0.00007610,0.00003150
 ,0.00001048,-0.00067122,-0.00282721,0.00010903,-0.00015596,-0.00008943
 ,-0.00004353,-0.00001878,0.00001542,0.00000393,0.00011483,-0.00006650,
 0.00002946,0.00005683,0.00004309,0.00000683,0.00000279,0.00005121,0.00
 001352,0.00014009,-0.00010550,0.00003326,0.00001424,-0.00004343,-0.000
 00782,0.02657132,-0.03161894,0.00170564,0.00050685,-0.00038651,0.00002
 588,0.00004059,-0.00002974,0.00000313,0.00017621,-0.00075596,-0.000002
 10,0.00001426,0.00001282,0.00000686,-0.00000810,-0.00000389,-0.0000015
 2,-0.00000253,-0.00001697,-0.00000232,-0.00000035,-0.00002042,-0.00000
 137,0.00000304,-0.00001860,-0.00000466,0.00001383,-0.00000790,-0.00000
 232,0.00001836,0.00000726,-0.00000472,0.00001906,0.00001113,-0.0000011
 2,0.00001618,0.00001817,-0.00000323,-0.00000069,0.00002350,-0.00000237
 ,-0.00000349,0.00008117,0.00000102,-0.00092379,0.00049440,-0.00007064,
 -0.09424594,0.10898138,0.00000425,0.00000284,-0.00000102,0.00000009,0.
 00000447,0.00000470,0.00000626,-0.00002632,-0.00019481,-0.00021779,0.0
 0015179,0.00531357,-0.00611300,0.00352463,-0.04183014,-0.00002288,0.00
 000065,-0.00018390,-0.00132771,0.00010726,0.00538814,0.00000568,0.0000
 0024,-0.00000807,0.00000622,-0.00000136,-0.00000505,-0.00000926,0.0000
 0048,0.00001003,-0.00000804,-0.00000926,0.00000751,-0.00000002,-0.0000
 0001,0.00000050,0.00000124,-0.00000946,0.00003477,0.00000840,-0.000004
 90,-0.00001562,0.00000431,-0.00000473,-0.00000505,0.00004220,-0.000026
 05,-0.00070135,0.00000899,0.00000367,0.00003478,0.00000262,-0.00000507
 ,-0.00000806,-0.00022829,0.00013917,0.00531234,0.00002588,0.00000740,-
 0.00019477,-0.00000035,-0.00000505,-0.00000101,-0.00001973,-0.00000591
 ,0.00000259,0.00000401,0.00001161,0.00000747,-0.00003420,0.00002012,0.
 00027268,-0.00000479,0.00002017,0.00000252,-0.00000500,0.00000787,0.00
 001000,-0.00082250,0.00119215,0.00537648,-0.00001395,0.00002023,-0.000
 18395,-0.00000391,-0.00000225,0.00000470,0.00008611,-0.00002153,-0.001
 26439,0.00000071,-0.00000232,0.00008174,0.00000142,0.00000009,0.000007
 95,-0.00000034,0.00000142,0.00000237,-0.00000008,0.00000224,0.00000306
 ,0.00000044,0.00000222,0.00000176,-0.00000190,0.00000110,0.00000153,-0
 .00000170,-0.00000148,0.00000177,-0.00000198,-0.00000104,0.00000307,-0
 .00000141,-0.00000042,0.00000237,0.00000064,-0.00000128,0.00000796,0.0
 0000252,0.00000059,0.00008177,0.00006272,-0.00006854,-0.00126456,0.008
 54522,-0.00501443,0.02387580,-0.00188508,-0.00399083,-0.00048059,0.001
 26344,-0.00013014,-0.00005626,-0.00534391,0.00996073,0.00026857,-0.005
 73938,0.00038062,-0.00007588,-0.00204839,-0.00426192,0.00001011,0.0064
 9642,0.00059006,0.00012814,0.00500210,0.00004635,0.00009401,-0.0144274
 7,0.00818025,-0.00066197,-0.01494407,0.01107139,0.00129656,0.01371013,
 -0.01368100,0.00257099,-0.02574888,-0.02570603,0.00386691,-0.00635105,
 -0.00727218,0.00108875,-0.01008832,-0.00718678,-0.00168406,-0.06038357
 ,0.02647759,0.05398551,0.00463282,0.00429419,-0.00079259,-0.01041062,-
 0.00694924,-0.00053141,-0.03860103,-0.04180951,-0.06762714,-0.00311852
 ,0.00164177,0.00141038,0.00348774,-0.00186584,0.00011575,-0.00897629,-
 0.00056494,-0.00044880,-0.00385324,-0.00330234,-0.00185285,0.01393463,
 0.01165859,0.00235064,0.00823242,0.03824538,0.00392965,-0.00765821,0.0
 0212296,0.00005613,-0.04624684,0.02053957,-0.00648997,0.00850820,-0.02
 732180,-0.00219676,-0.00243697,0.00398739,-0.00033240,-0.00086788,0.00
 126696,-0.00002951,-0.00218701,-0.00258584,-0.00111642,0.00024236,0.00
 007441,0.00006848,0.00028061,0.00013335,-0.00027013,-0.00000209,0.0000
 5270,0.00012101,0.00034097,0.00003559,0.00002104,-0.00025534,-0.000567
 43,0.00026383,0.00047378,-0.00014274,0.00026817,-0.00027936,0.00014605
 ,0.00021859,0.00019614,-0.00019593,0.00008428,-0.00161299,-0.00059746,
 -0.00039738,-0.00006296,-0.00027040,0.00017759,-0.00009199,-0.00014867
 ,0.00014613,-0.00004434,-0.00029314,-0.00025243,0.00005236,-0.00022992
 ,0.00000660,0.00002380,-0.00000798,0.00001871,0.20678949,-0.00216709,-
 0.00802762,0.00188518,-0.00060720,-0.00374078,0.00126874,0.00152563,-0
 .00357976,0.00070439,-0.00715279,0.00263455,-0.00017714,-0.00426060,-0
 .00693168,0.00001383,0.00548230,0.00019538,0.00010514,0.00824929,-0.00
 012337,0.00042759,-0.00482268,0.00251466,-0.00200785,-0.00691851,0.013
 43481,0.00163692,-0.02431386,-0.01499789,0.00407473,0.01876330,0.01544
 808,-0.00247174,-0.00726562,-0.01468092,-0.00059253,-0.02526033,-0.066
 31661,0.07709758,0.02643672,-0.03028496,-0.03132071,0.02227910,-0.0061
 4121,-0.00195142,-0.00696640,-0.01835665,0.00034969,-0.02366616,-0.038
 27010,-0.03695502,0.01463457,-0.00881030,0.00156733,0.00567067,-0.0065
 8605,0.00016477,0.00785989,0.00004123,-0.00058456,-0.00512446,-0.00607
 310,-0.00048854,0.05503195,-0.02772065,0.00883857,-0.00618938,-0.01858
 732,-0.00207837,0.00212541,-0.00522160,-0.00002392,-0.02289890,0.03240
 391,-0.00651955,-0.01664528,-0.00988337,-0.00421974,-0.00421663,0.0073
 1095,-0.00030953,-0.00363233,0.00755871,-0.00017996,-0.00211094,-0.000
 29682,-0.00057809,-0.00012208,-0.00003730,0.00003234,-0.00010713,-0.00
 013593,0.00013615,-0.00009764,-0.00014757,-0.00009871,-0.00003901,-0.0
 0019855,-0.00019194,0.00018256,-0.00227695,0.00061652,-0.00003686,0.00
 000256,0.00005760,0.00014701,-0.00011333,-0.00012784,-0.00030334,0.000
 27859,-0.00026109,-0.00134743,-0.00092465,-0.00052968,-0.00019586,0.00
 020605,0.00007626,0.00000086,-0.00005715,-0.00005647,-0.00005227,0.000
 19130,0.00016399,-0.00003491,0.00015397,-0.00007593,-0.00000776,0.0000
 1444,-0.00001084,0.00819153,0.21614595,0.00090550,0.00299104,0.0014487
 6,-0.00068110,0.00094171,-0.00016601,0.00054601,0.00400358,0.00403486,
 0.00066412,0.00114967,0.00009858,-0.00095282,0.00057208,-0.00008052,-0
 .00210022,-0.00084966,0.00027642,0.00006317,-0.00081616,0.00002892,0.0
 0622641,0.00959391,-0.00145258,0.00389715,0.00085615,0.00312461,0.0180
 8182,0.00729263,-0.00629940,0.01289028,0.00570982,-0.00491590,-0.00040
 759,0.00027722,0.00008695,0.00716007,0.06356476,-0.06992098,0.03968372
 ,-0.02305231,-0.04392361,0.00112019,-0.00378557,0.00313985,-0.01301113
 ,0.00757720,-0.00236710,-0.05154308,-0.03787338,-0.06943110,-0.0052672
 7,-0.01015409,-0.00141965,-0.00069073,-0.00112242,0.00010279,-0.003203
 13,-0.00245118,0.00405208,-0.00211847,-0.00224411,0.00146314,-0.013407
 43,0.01087681,-0.00651253,0.00146355,-0.01404697,-0.00487660,0.0023922
 4,-0.00137641,0.00032080,-0.01595969,0.00605943,-0.00646924,0.00270270
 ,-0.01924692,-0.00622816,0.00075762,0.00032032,0.00002813,-0.00029417,
 0.00221769,0.00027035,-0.00114428,0.00012609,-0.00016034,-0.00041954,-
 0.00014888,-0.00002173,-0.00038998,-0.00033071,-0.00053990,-0.00011230
 ,-0.00003282,-0.00023389,0.00008653,-0.00011115,-0.00023666,0.00004290
 ,0.00011518,0.00017910,-0.00013373,0.00025595,-0.00000023,0.00052226,-
 0.00030378,-0.00069882,-0.00028781,-0.00001178,0.00000075,-0.00007087,
 -0.00008984,0.00018164,0.00013980,-0.00002074,-0.00023757,-0.00002760,
 0.00011353,-0.00023440,0.00009200,0.00050106,-0.00054161,-0.00007964,0
 .00043778,-0.00002272,0.00011776,-0.00006823,0.00000898,0.01272533,-0.
 00740283,0.20814678||-0.00000954,0.00001718,0.00001789,-0.00000774,-0.
 00000528,-0.00002115,-0.00002770,0.00000861,-0.00000426,-0.00005665,0.
 00003454,0.00001173,0.00003341,-0.00000087,0.00004183,0.00003626,-0.00
 003464,0.00000331,0.00001348,0.00000196,-0.00001056,-0.00001833,0.0000
 2513,0.00001381,0.00000474,-0.00000282,0.00002959,0.00003996,-0.000035
 52,0.00002761,-0.00000846,-0.00004158,0.00001580,0.00000207,-0.0000064
 3,-0.00006687,-0.00003097,-0.00011571,0.00005956,0.00011468,-0.0000650
 4,-0.00011629,0.00001364,-0.00000097,0.00002262,-0.00003761,0.00002714
 ,0.00004854,0.00008849,0.00006857,0.00004866,-0.00002216,0.00000592,0.
 00001449,-0.00004290,0.00000210,0.00001490,-0.00000426,0.00001493,-0.0
 0000412,-0.00001945,-0.00000041,0.00002056,0.00002459,-0.00000053,-0.0
 0001608,0.00002062,0.00002640,0.00002207,0.00002629,-0.00000622,-0.000
 03607,-0.00000976,-0.00001140,-0.00001674,0.00004749,-0.00000639,0.000
 02895,-0.00003083,0.00003496,-0.00001359,0.00002023,-0.00000721,-0.000
 00039,-0.00000398,0.00001497,-0.00001843,0.00001963,-0.00000389,-0.000
 00271,-0.00000323,0.00000657,-0.00000257,-0.00001371,-0.00000653,0.000
 01087,-0.00000175,-0.00002341,-0.00001521,-0.00000053,-0.00003683,-0.0
 0001471,-0.00000179,0.00000241,-0.00000174,-0.00001877,0.00001079,0.00
 002346,-0.00000271,0.00000099,-0.00000345,0.00003190,0.00001743,-0.000
 01383,0.00001871,0.00001191,-0.00001389,-0.00000163,0.00001379,0.00001
 220,-0.00001485,0.00000527,-0.00000287,-0.00000441,-0.00001603,-0.0000
 0391,0.00000315,-0.00002575,-0.00001397,-0.00016564,0.00010188,-0.0000
 7501|||@


 WE MIGHT AS WELL ATTEMPT TO INTRODUCE A NEW PLANET 
 INTO THE SOLAR SYSTEM, OR TO ANNIHILATE ONE ALREADYIN EXISTENCE, 
 AS TO CREATE OR DESTROY A PARTICLE OF HYDROGEN.
 ALL THE CHANGES WE CAN PRODUCE CONSIST IN SEPARATING PARTICLES
 THAT ARE IN A STATE OF ... COMBINATION, AND JOINING 
 THOSE THAT WERE PREVIOUSLY AT A DISTANCE.

                                    -- JOHN DALTON, 1810
 Job cpu time:       0 days  0 hours  0 minutes  6.0 seconds.
 File lengths (MBytes):  RWF=    380 Int=      0 D2E=      0 Chk=      4 Scr=      1
 Normal termination of Gaussian 09 at Sun Mar 15 21:08:18 2026.
