 Entering Link 1 = C:\Gaussian\G09W\l1.exe PID=     20912.
  
 Copyright (c) 1988,1990,1992,1993,1995,1998,2003,2009,2013,
            Gaussian, Inc.  All Rights Reserved.
  
 This is part of the Gaussian(R) 09 program.  It is based on
 the Gaussian(R) 03 system (copyright 2003, Gaussian, Inc.),
 the Gaussian(R) 98 system (copyright 1998, Gaussian, Inc.),
 the Gaussian(R) 94 system (copyright 1995, Gaussian, Inc.),
 the Gaussian 92(TM) system (copyright 1992, Gaussian, Inc.),
 the Gaussian 90(TM) system (copyright 1990, Gaussian, Inc.),
 the Gaussian 88(TM) system (copyright 1988, Gaussian, Inc.),
 the Gaussian 86(TM) system (copyright 1986, Carnegie Mellon
 University), and the Gaussian 82(TM) system (copyright 1983,
 Carnegie Mellon University). Gaussian is a federally registered
 trademark of Gaussian, Inc.
  
 This software contains proprietary and confidential information,
 including trade secrets, belonging to Gaussian, Inc.
  
 This software is provided under written license and may be
 used, copied, transmitted, or stored only in accord with that
 written license.
  
 The following legend is applicable only to US Government
 contracts under FAR:
  
                    RESTRICTED RIGHTS LEGEND
  
 Use, reproduction and disclosure by the US Government is
 subject to restrictions as set forth in subparagraphs (a)
 and (c) of the Commercial Computer Software - Restricted
 Rights clause in FAR 52.227-19.
  
 Gaussian, Inc.
 340 Quinnipiac St., Bldg. 40, Wallingford CT 06492
  
  
 ---------------------------------------------------------------
 Warning -- This program may not be used in any manner that
 competes with the business of Gaussian, Inc. or will provide
 assistance to any competitor of Gaussian, Inc.  The licensee
 of this program is prohibited from giving any competitor of
 Gaussian, Inc. access to this program.  By using this program,
 the user acknowledges that Gaussian, Inc. is engaged in the
 business of creating and licensing software in the field of
 computational chemistry and represents and warrants to the
 licensee that it is not a competitor of Gaussian, Inc. and that
 it will not use this program in any manner prohibited above.
 ---------------------------------------------------------------
  

 Cite this work as:
 Gaussian 09, Revision D.01,
 M. J. Frisch, G. W. Trucks, H. B. Schlegel, G. E. Scuseria, 
 M. A. Robb, J. R. Cheeseman, G. Scalmani, V. Barone, B. Mennucci, 
 G. A. Petersson, H. Nakatsuji, M. Caricato, X. Li, H. P. Hratchian, 
 A. F. Izmaylov, J. Bloino, G. Zheng, J. L. Sonnenberg, M. Hada, 
 M. Ehara, K. Toyota, R. Fukuda, J. Hasegawa, M. Ishida, T. Nakajima, 
 Y. Honda, O. Kitao, H. Nakai, T. Vreven, J. A. Montgomery, Jr., 
 J. E. Peralta, F. Ogliaro, M. Bearpark, J. J. Heyd, E. Brothers, 
 K. N. Kudin, V. N. Staroverov, T. Keith, R. Kobayashi, J. Normand, 
 K. Raghavachari, A. Rendell, J. C. Burant, S. S. Iyengar, J. Tomasi, 
 M. Cossi, N. Rega, J. M. Millam, M. Klene, J. E. Knox, J. B. Cross, 
 V. Bakken, C. Adamo, J. Jaramillo, R. Gomperts, R. E. Stratmann, 
 O. Yazyev, A. J. Austin, R. Cammi, C. Pomelli, J. W. Ochterski, 
 R. L. Martin, K. Morokuma, V. G. Zakrzewski, G. A. Voth, 
 P. Salvador, J. J. Dannenberg, S. Dapprich, A. D. Daniels, 
 O. Farkas, J. B. Foresman, J. V. Ortiz, J. Cioslowski, 
 and D. J. Fox, Gaussian, Inc., Wallingford CT, 2013.
 
 ******************************************
 Gaussian 09:  IA32W-G09RevD.01 24-Apr-2013
                15-Mar-2026 
 ******************************************
 %chk=C:\Users\User\Desktop\IMRG\ECE+ML\Ir_Gr_NS.chk
 ---------------------------------------
 # opt freq pm6 scf=qc geom=connectivity
 ---------------------------------------
 1/14=-1,18=20,19=15,26=1,38=1,57=2/1,3;
 2/9=110,12=2,17=6,18=5,40=1/2;
 3/5=2,16=1,25=1,41=3900000,71=1/1,2,3;
 4/35=1/1;
 5/5=2,8=3,35=1,38=5/8;
 6/7=2,8=2,9=2,10=2,28=1/1;
 7//1,2,3,16;
 1/14=-1,18=20,19=15,26=1/3(2);
 2/9=110/2;
 99//99;
 2/9=110/2;
 3/5=2,16=1,25=1,41=3900000,71=1,135=20/1,2,3;
 4/5=5,16=3,35=1/1;
 5/5=2,8=3,35=1,38=5/8;
 7//1,2,3,16;
 1/14=-1,18=20,19=15,26=1/3(-5);
 2/9=110/2;
 6/7=2,8=2,9=2,10=2,19=2,28=1/1;
 99/9=1/99;
 --------
 Ir_Gr_NS
 --------
 Symbolic Z-matrix:
 Charge =  0 Multiplicity = 2
 C                     0.17695   1.02371   2.99497 
 C                     1.43495   0.29741   2.57781 
 C                     2.69295   1.02371   2.99497 
 C                     5.20895   1.02371   2.99497 
 C                     7.72495   1.02371   2.99497 
 C                     3.95095   0.29741   2.57781 
 C                     6.46695   0.29741   2.57781 
 C                    -1.08105   3.20263   2.99497 
 C                    -2.33905   5.38155   2.99497 
 C                     0.17695   2.47633   2.57781 
 C                    -1.08105   4.65525   2.57781 
 C                    -2.33905   6.83417   2.57781 
 C                     1.43495   3.20263   2.99497 
 C                     0.17695   5.38155   2.99497 
 C                    -1.08105   7.56047   2.99497 
 C                     3.95095   3.20263   2.99497 
 C                     2.69295   5.38155   2.99497 
 C                     1.43495   7.56047   2.99497 
 C                     6.46695   3.20263   2.99497 
 C                     5.20895   5.38155   2.99497 
 C                     3.95095   7.56047   2.99497 
 C                     2.69295   2.47633   2.57781 
 C                     0.17695   6.83417   2.57781 
 C                     5.20895   2.47633   2.57781 
 C                     3.95095   4.65525   2.57781 
 C                     2.69295   6.83417   2.57781 
 C                     7.72495   2.47633   2.57781 
 C                     6.46695   4.65525   2.57781 
 C                     5.20895   6.83417   2.57781 
 H                     8.6156    2.99054   2.87315 
 H                     7.3576    5.16946   2.87315 
 H                     6.0996    7.34838   2.87315 
 H                     3.95095   8.58891   2.69962 
 H                     1.43495   8.58891   2.69962 
 H                    -1.08105   8.58891   2.69962 
 H                    -3.2297    7.34838   2.87315 
 H                    -3.2297    4.86734   2.69962 
 H                    -1.9717    2.68842   2.69962 
 H                    -0.7137    0.5095    2.69962 
 H                     1.43495  -0.73103   2.87315 
 H                     3.95095  -0.73103   2.87315 
 H                     6.49522  -0.60455   3.15277 
 H                     8.37341   0.35071   3.51599 
 Ir                    1.43495   4.65525   2.57781 
 

 GradGradGradGradGradGradGradGradGradGradGradGradGradGradGradGradGradGrad
 Berny optimization.
 Initialization pass.
                           ----------------------------
                           !    Initial Parameters    !
                           ! (Angstroms and Degrees)  !
 --------------------------                            --------------------------
 ! Name  Definition              Value          Derivative Info.                !
 --------------------------------------------------------------------------------
 ! R1    R(1,2)                  1.5113         estimate D2E/DX2                !
 ! R2    R(1,10)                 1.5113         estimate D2E/DX2                !
 ! R3    R(1,39)                 1.07           estimate D2E/DX2                !
 ! R4    R(2,3)                  1.5113         estimate D2E/DX2                !
 ! R5    R(2,40)                 1.07           estimate D2E/DX2                !
 ! R6    R(3,6)                  1.5113         estimate D2E/DX2                !
 ! R7    R(3,22)                 1.5113         estimate D2E/DX2                !
 ! R8    R(4,6)                  1.5113         estimate D2E/DX2                !
 ! R9    R(4,7)                  1.5113         estimate D2E/DX2                !
 ! R10   R(4,24)                 1.5113         estimate D2E/DX2                !
 ! R11   R(5,7)                  1.5113         estimate D2E/DX2                !
 ! R12   R(5,27)                 1.5113         estimate D2E/DX2                !
 ! R13   R(5,43)                 1.07           estimate D2E/DX2                !
 ! R14   R(6,41)                 1.07           estimate D2E/DX2                !
 ! R15   R(7,42)                 1.07           estimate D2E/DX2                !
 ! R16   R(8,10)                 1.5113         estimate D2E/DX2                !
 ! R17   R(8,11)                 1.5113         estimate D2E/DX2                !
 ! R18   R(8,38)                 1.07           estimate D2E/DX2                !
 ! R19   R(9,11)                 1.5113         estimate D2E/DX2                !
 ! R20   R(9,12)                 1.5113         estimate D2E/DX2                !
 ! R21   R(9,37)                 1.07           estimate D2E/DX2                !
 ! R22   R(10,13)                1.5113         estimate D2E/DX2                !
 ! R23   R(11,14)                1.5113         estimate D2E/DX2                !
 ! R24   R(12,15)                1.5113         estimate D2E/DX2                !
 ! R25   R(12,36)                1.07           estimate D2E/DX2                !
 ! R26   R(13,22)                1.5113         estimate D2E/DX2                !
 ! R27   R(13,44)                1.5113         estimate D2E/DX2                !
 ! R28   R(14,23)                1.5113         estimate D2E/DX2                !
 ! R29   R(14,44)                1.5113         estimate D2E/DX2                !
 ! R30   R(15,23)                1.5113         estimate D2E/DX2                !
 ! R31   R(15,35)                1.07           estimate D2E/DX2                !
 ! R32   R(16,22)                1.5113         estimate D2E/DX2                !
 ! R33   R(16,24)                1.5113         estimate D2E/DX2                !
 ! R34   R(16,25)                1.5113         estimate D2E/DX2                !
 ! R35   R(17,25)                1.5113         estimate D2E/DX2                !
 ! R36   R(17,26)                1.5113         estimate D2E/DX2                !
 ! R37   R(17,44)                1.5113         estimate D2E/DX2                !
 ! R38   R(18,23)                1.5113         estimate D2E/DX2                !
 ! R39   R(18,26)                1.5113         estimate D2E/DX2                !
 ! R40   R(18,34)                1.07           estimate D2E/DX2                !
 ! R41   R(19,24)                1.5113         estimate D2E/DX2                !
 ! R42   R(19,27)                1.5113         estimate D2E/DX2                !
 ! R43   R(19,28)                1.5113         estimate D2E/DX2                !
 ! R44   R(20,25)                1.5113         estimate D2E/DX2                !
 ! R45   R(20,28)                1.5113         estimate D2E/DX2                !
 ! R46   R(20,29)                1.5113         estimate D2E/DX2                !
 ! R47   R(21,26)                1.5113         estimate D2E/DX2                !
 ! R48   R(21,29)                1.5113         estimate D2E/DX2                !
 ! R49   R(21,33)                1.07           estimate D2E/DX2                !
 ! R50   R(27,30)                1.07           estimate D2E/DX2                !
 ! R51   R(28,31)                1.07           estimate D2E/DX2                !
 ! R52   R(29,32)                1.07           estimate D2E/DX2                !
 ! A1    A(2,1,10)             112.6884         estimate D2E/DX2                !
 ! A2    A(2,1,39)             112.6884         estimate D2E/DX2                !
 ! A3    A(10,1,39)            112.6884         estimate D2E/DX2                !
 ! A4    A(1,2,3)              112.6884         estimate D2E/DX2                !
 ! A5    A(1,2,40)             112.6884         estimate D2E/DX2                !
 ! A6    A(3,2,40)             112.6884         estimate D2E/DX2                !
 ! A7    A(2,3,6)              112.6884         estimate D2E/DX2                !
 ! A8    A(2,3,22)             112.6884         estimate D2E/DX2                !
 ! A9    A(6,3,22)             112.6884         estimate D2E/DX2                !
 ! A10   A(6,4,7)              112.6884         estimate D2E/DX2                !
 ! A11   A(6,4,24)             112.6884         estimate D2E/DX2                !
 ! A12   A(7,4,24)             112.6884         estimate D2E/DX2                !
 ! A13   A(7,5,27)             112.6884         estimate D2E/DX2                !
 ! A14   A(7,5,43)             109.6693         estimate D2E/DX2                !
 ! A15   A(27,5,43)            137.6415         estimate D2E/DX2                !
 ! A16   A(3,6,4)              112.6884         estimate D2E/DX2                !
 ! A17   A(3,6,41)             112.6884         estimate D2E/DX2                !
 ! A18   A(4,6,41)             112.6884         estimate D2E/DX2                !
 ! A19   A(4,7,5)              112.6884         estimate D2E/DX2                !
 ! A20   A(4,7,42)             106.187          estimate D2E/DX2                !
 ! A21   A(5,7,42)             103.5792         estimate D2E/DX2                !
 ! A22   A(10,8,11)            112.6884         estimate D2E/DX2                !
 ! A23   A(10,8,38)            112.6884         estimate D2E/DX2                !
 ! A24   A(11,8,38)            112.6884         estimate D2E/DX2                !
 ! A25   A(11,9,12)            112.6884         estimate D2E/DX2                !
 ! A26   A(11,9,37)            112.6884         estimate D2E/DX2                !
 ! A27   A(12,9,37)            112.6884         estimate D2E/DX2                !
 ! A28   A(1,10,8)             112.6884         estimate D2E/DX2                !
 ! A29   A(1,10,13)            112.6884         estimate D2E/DX2                !
 ! A30   A(8,10,13)            112.6884         estimate D2E/DX2                !
 ! A31   A(8,11,9)             112.6884         estimate D2E/DX2                !
 ! A32   A(8,11,14)            112.6884         estimate D2E/DX2                !
 ! A33   A(9,11,14)            112.6884         estimate D2E/DX2                !
 ! A34   A(9,12,15)            112.6884         estimate D2E/DX2                !
 ! A35   A(9,12,36)            112.6884         estimate D2E/DX2                !
 ! A36   A(15,12,36)           112.6884         estimate D2E/DX2                !
 ! A37   A(10,13,22)           112.6884         estimate D2E/DX2                !
 ! A38   A(10,13,44)           112.6884         estimate D2E/DX2                !
 ! A39   A(22,13,44)           112.6884         estimate D2E/DX2                !
 ! A40   A(11,14,23)           112.6884         estimate D2E/DX2                !
 ! A41   A(11,14,44)           112.6884         estimate D2E/DX2                !
 ! A42   A(23,14,44)           112.6884         estimate D2E/DX2                !
 ! A43   A(12,15,23)           112.6884         estimate D2E/DX2                !
 ! A44   A(12,15,35)           112.6884         estimate D2E/DX2                !
 ! A45   A(23,15,35)           112.6884         estimate D2E/DX2                !
 ! A46   A(22,16,24)           112.6884         estimate D2E/DX2                !
 ! A47   A(22,16,25)           112.6884         estimate D2E/DX2                !
 ! A48   A(24,16,25)           112.6884         estimate D2E/DX2                !
 ! A49   A(25,17,26)           112.6884         estimate D2E/DX2                !
 ! A50   A(25,17,44)           112.6884         estimate D2E/DX2                !
 ! A51   A(26,17,44)           112.6884         estimate D2E/DX2                !
 ! A52   A(23,18,26)           112.6884         estimate D2E/DX2                !
 ! A53   A(23,18,34)           112.6884         estimate D2E/DX2                !
 ! A54   A(26,18,34)           112.6884         estimate D2E/DX2                !
 ! A55   A(24,19,27)           112.6884         estimate D2E/DX2                !
 ! A56   A(24,19,28)           112.6884         estimate D2E/DX2                !
 ! A57   A(27,19,28)           112.6884         estimate D2E/DX2                !
 ! A58   A(25,20,28)           112.6884         estimate D2E/DX2                !
 ! A59   A(25,20,29)           112.6884         estimate D2E/DX2                !
 ! A60   A(28,20,29)           112.6884         estimate D2E/DX2                !
 ! A61   A(26,21,29)           112.6884         estimate D2E/DX2                !
 ! A62   A(26,21,33)           112.6884         estimate D2E/DX2                !
 ! A63   A(29,21,33)           112.6884         estimate D2E/DX2                !
 ! A64   A(3,22,13)            112.6884         estimate D2E/DX2                !
 ! A65   A(3,22,16)            112.6884         estimate D2E/DX2                !
 ! A66   A(13,22,16)           112.6884         estimate D2E/DX2                !
 ! A67   A(14,23,15)           112.6884         estimate D2E/DX2                !
 ! A68   A(14,23,18)           112.6884         estimate D2E/DX2                !
 ! A69   A(15,23,18)           112.6884         estimate D2E/DX2                !
 ! A70   A(4,24,16)            112.6884         estimate D2E/DX2                !
 ! A71   A(4,24,19)            112.6884         estimate D2E/DX2                !
 ! A72   A(16,24,19)           112.6884         estimate D2E/DX2                !
 ! A73   A(16,25,17)           112.6884         estimate D2E/DX2                !
 ! A74   A(16,25,20)           112.6884         estimate D2E/DX2                !
 ! A75   A(17,25,20)           112.6884         estimate D2E/DX2                !
 ! A76   A(17,26,18)           112.6884         estimate D2E/DX2                !
 ! A77   A(17,26,21)           112.6884         estimate D2E/DX2                !
 ! A78   A(18,26,21)           112.6884         estimate D2E/DX2                !
 ! A79   A(5,27,19)            112.6884         estimate D2E/DX2                !
 ! A80   A(5,27,30)            112.6884         estimate D2E/DX2                !
 ! A81   A(19,27,30)           112.6884         estimate D2E/DX2                !
 ! A82   A(19,28,20)           112.6884         estimate D2E/DX2                !
 ! A83   A(19,28,31)           112.6884         estimate D2E/DX2                !
 ! A84   A(20,28,31)           112.6884         estimate D2E/DX2                !
 ! A85   A(20,29,21)           112.6884         estimate D2E/DX2                !
 ! A86   A(20,29,32)           112.6884         estimate D2E/DX2                !
 ! A87   A(21,29,32)           112.6884         estimate D2E/DX2                !
 ! A88   A(13,44,14)           112.6884         estimate D2E/DX2                !
 ! A89   A(13,44,17)           112.6884         estimate D2E/DX2                !
 ! A90   A(14,44,17)           112.6884         estimate D2E/DX2                !
 ! D1    D(10,1,2,3)            51.1032         estimate D2E/DX2                !
 ! D2    D(10,1,2,40)          180.0            estimate D2E/DX2                !
 ! D3    D(39,1,2,3)           180.0            estimate D2E/DX2                !
 ! D4    D(39,1,2,40)          -51.1032         estimate D2E/DX2                !
 ! D5    D(2,1,10,8)           180.0            estimate D2E/DX2                !
 ! D6    D(2,1,10,13)          -51.1032         estimate D2E/DX2                !
 ! D7    D(39,1,10,8)           51.1032         estimate D2E/DX2                !
 ! D8    D(39,1,10,13)         180.0            estimate D2E/DX2                !
 ! D9    D(1,2,3,6)            180.0            estimate D2E/DX2                !
 ! D10   D(1,2,3,22)           -51.1032         estimate D2E/DX2                !
 ! D11   D(40,2,3,6)            51.1032         estimate D2E/DX2                !
 ! D12   D(40,2,3,22)         -180.0            estimate D2E/DX2                !
 ! D13   D(2,3,6,4)            180.0            estimate D2E/DX2                !
 ! D14   D(2,3,6,41)           -51.1032         estimate D2E/DX2                !
 ! D15   D(22,3,6,4)            51.1032         estimate D2E/DX2                !
 ! D16   D(22,3,6,41)          180.0            estimate D2E/DX2                !
 ! D17   D(2,3,22,13)           51.1032         estimate D2E/DX2                !
 ! D18   D(2,3,22,16)          180.0            estimate D2E/DX2                !
 ! D19   D(6,3,22,13)          180.0            estimate D2E/DX2                !
 ! D20   D(6,3,22,16)          -51.1032         estimate D2E/DX2                !
 ! D21   D(7,4,6,3)            180.0            estimate D2E/DX2                !
 ! D22   D(7,4,6,41)            51.1032         estimate D2E/DX2                !
 ! D23   D(24,4,6,3)           -51.1032         estimate D2E/DX2                !
 ! D24   D(24,4,6,41)          180.0            estimate D2E/DX2                !
 ! D25   D(6,4,7,5)            180.0            estimate D2E/DX2                !
 ! D26   D(6,4,7,42)           -67.2727         estimate D2E/DX2                !
 ! D27   D(24,4,7,5)            51.1032         estimate D2E/DX2                !
 ! D28   D(24,4,7,42)          163.8304         estimate D2E/DX2                !
 ! D29   D(6,4,24,16)           51.1032         estimate D2E/DX2                !
 ! D30   D(6,4,24,19)          180.0            estimate D2E/DX2                !
 ! D31   D(7,4,24,16)          180.0            estimate D2E/DX2                !
 ! D32   D(7,4,24,19)          -51.1032         estimate D2E/DX2                !
 ! D33   D(27,5,7,4)           -51.1032         estimate D2E/DX2                !
 ! D34   D(27,5,7,42)         -165.4227         estimate D2E/DX2                !
 ! D35   D(43,5,7,4)           128.6399         estimate D2E/DX2                !
 ! D36   D(43,5,7,42)           14.3203         estimate D2E/DX2                !
 ! D37   D(7,5,27,19)           51.1032         estimate D2E/DX2                !
 ! D38   D(7,5,27,30)          180.0            estimate D2E/DX2                !
 ! D39   D(43,5,27,19)        -128.5377         estimate D2E/DX2                !
 ! D40   D(43,5,27,30)           0.3591         estimate D2E/DX2                !
 ! D41   D(11,8,10,1)          180.0            estimate D2E/DX2                !
 ! D42   D(11,8,10,13)          51.1032         estimate D2E/DX2                !
 ! D43   D(38,8,10,1)          -51.1032         estimate D2E/DX2                !
 ! D44   D(38,8,10,13)        -180.0            estimate D2E/DX2                !
 ! D45   D(10,8,11,9)          180.0            estimate D2E/DX2                !
 ! D46   D(10,8,11,14)         -51.1032         estimate D2E/DX2                !
 ! D47   D(38,8,11,9)           51.1032         estimate D2E/DX2                !
 ! D48   D(38,8,11,14)         180.0            estimate D2E/DX2                !
 ! D49   D(12,9,11,8)         -180.0            estimate D2E/DX2                !
 ! D50   D(12,9,11,14)          51.1032         estimate D2E/DX2                !
 ! D51   D(37,9,11,8)          -51.1032         estimate D2E/DX2                !
 ! D52   D(37,9,11,14)         180.0            estimate D2E/DX2                !
 ! D53   D(11,9,12,15)         -51.1032         estimate D2E/DX2                !
 ! D54   D(11,9,12,36)        -180.0            estimate D2E/DX2                !
 ! D55   D(37,9,12,15)         180.0            estimate D2E/DX2                !
 ! D56   D(37,9,12,36)          51.1032         estimate D2E/DX2                !
 ! D57   D(1,10,13,22)          51.1032         estimate D2E/DX2                !
 ! D58   D(1,10,13,44)         180.0            estimate D2E/DX2                !
 ! D59   D(8,10,13,22)         180.0            estimate D2E/DX2                !
 ! D60   D(8,10,13,44)         -51.1032         estimate D2E/DX2                !
 ! D61   D(8,11,14,23)         180.0            estimate D2E/DX2                !
 ! D62   D(8,11,14,44)          51.1032         estimate D2E/DX2                !
 ! D63   D(9,11,14,23)         -51.1032         estimate D2E/DX2                !
 ! D64   D(9,11,14,44)         180.0            estimate D2E/DX2                !
 ! D65   D(9,12,15,23)          51.1032         estimate D2E/DX2                !
 ! D66   D(9,12,15,35)         180.0            estimate D2E/DX2                !
 ! D67   D(36,12,15,23)        180.0            estimate D2E/DX2                !
 ! D68   D(36,12,15,35)        -51.1032         estimate D2E/DX2                !
 ! D69   D(10,13,22,3)         -51.1032         estimate D2E/DX2                !
 ! D70   D(10,13,22,16)        180.0            estimate D2E/DX2                !
 ! D71   D(44,13,22,3)         180.0            estimate D2E/DX2                !
 ! D72   D(44,13,22,16)         51.1032         estimate D2E/DX2                !
 ! D73   D(10,13,44,14)         51.1032         estimate D2E/DX2                !
 ! D74   D(10,13,44,17)        180.0            estimate D2E/DX2                !
 ! D75   D(22,13,44,14)       -180.0            estimate D2E/DX2                !
 ! D76   D(22,13,44,17)        -51.1032         estimate D2E/DX2                !
 ! D77   D(11,14,23,15)         51.1032         estimate D2E/DX2                !
 ! D78   D(11,14,23,18)        180.0            estimate D2E/DX2                !
 ! D79   D(44,14,23,15)        180.0            estimate D2E/DX2                !
 ! D80   D(44,14,23,18)        -51.1032         estimate D2E/DX2                !
 ! D81   D(11,14,44,13)        -51.1032         estimate D2E/DX2                !
 ! D82   D(11,14,44,17)        180.0            estimate D2E/DX2                !
 ! D83   D(23,14,44,13)       -180.0            estimate D2E/DX2                !
 ! D84   D(23,14,44,17)         51.1032         estimate D2E/DX2                !
 ! D85   D(12,15,23,14)        -51.1032         estimate D2E/DX2                !
 ! D86   D(12,15,23,18)        180.0            estimate D2E/DX2                !
 ! D87   D(35,15,23,14)        180.0            estimate D2E/DX2                !
 ! D88   D(35,15,23,18)         51.1032         estimate D2E/DX2                !
 ! D89   D(24,16,22,3)          51.1032         estimate D2E/DX2                !
 ! D90   D(24,16,22,13)        180.0            estimate D2E/DX2                !
 ! D91   D(25,16,22,3)         180.0            estimate D2E/DX2                !
 ! D92   D(25,16,22,13)        -51.1032         estimate D2E/DX2                !
 ! D93   D(22,16,24,4)         -51.1032         estimate D2E/DX2                !
 ! D94   D(22,16,24,19)        180.0            estimate D2E/DX2                !
 ! D95   D(25,16,24,4)         180.0            estimate D2E/DX2                !
 ! D96   D(25,16,24,19)         51.1032         estimate D2E/DX2                !
 ! D97   D(22,16,25,17)         51.1032         estimate D2E/DX2                !
 ! D98   D(22,16,25,20)        180.0            estimate D2E/DX2                !
 ! D99   D(24,16,25,17)        180.0            estimate D2E/DX2                !
 ! D100  D(24,16,25,20)        -51.1032         estimate D2E/DX2                !
 ! D101  D(26,17,25,16)       -180.0            estimate D2E/DX2                !
 ! D102  D(26,17,25,20)         51.1032         estimate D2E/DX2                !
 ! D103  D(44,17,25,16)        -51.1032         estimate D2E/DX2                !
 ! D104  D(44,17,25,20)        180.0            estimate D2E/DX2                !
 ! D105  D(25,17,26,18)        180.0            estimate D2E/DX2                !
 ! D106  D(25,17,26,21)        -51.1032         estimate D2E/DX2                !
 ! D107  D(44,17,26,18)         51.1032         estimate D2E/DX2                !
 ! D108  D(44,17,26,21)        180.0            estimate D2E/DX2                !
 ! D109  D(25,17,44,13)         51.1032         estimate D2E/DX2                !
 ! D110  D(25,17,44,14)        180.0            estimate D2E/DX2                !
 ! D111  D(26,17,44,13)        180.0            estimate D2E/DX2                !
 ! D112  D(26,17,44,14)        -51.1032         estimate D2E/DX2                !
 ! D113  D(26,18,23,14)         51.1032         estimate D2E/DX2                !
 ! D114  D(26,18,23,15)        180.0            estimate D2E/DX2                !
 ! D115  D(34,18,23,14)        180.0            estimate D2E/DX2                !
 ! D116  D(34,18,23,15)        -51.1032         estimate D2E/DX2                !
 ! D117  D(23,18,26,17)        -51.1032         estimate D2E/DX2                !
 ! D118  D(23,18,26,21)        180.0            estimate D2E/DX2                !
 ! D119  D(34,18,26,17)        180.0            estimate D2E/DX2                !
 ! D120  D(34,18,26,21)         51.1032         estimate D2E/DX2                !
 ! D121  D(27,19,24,4)          51.1032         estimate D2E/DX2                !
 ! D122  D(27,19,24,16)        180.0            estimate D2E/DX2                !
 ! D123  D(28,19,24,4)         180.0            estimate D2E/DX2                !
 ! D124  D(28,19,24,16)        -51.1032         estimate D2E/DX2                !
 ! D125  D(24,19,27,5)         -51.1032         estimate D2E/DX2                !
 ! D126  D(24,19,27,30)        180.0            estimate D2E/DX2                !
 ! D127  D(28,19,27,5)         180.0            estimate D2E/DX2                !
 ! D128  D(28,19,27,30)         51.1032         estimate D2E/DX2                !
 ! D129  D(24,19,28,20)         51.1032         estimate D2E/DX2                !
 ! D130  D(24,19,28,31)        180.0            estimate D2E/DX2                !
 ! D131  D(27,19,28,20)        180.0            estimate D2E/DX2                !
 ! D132  D(27,19,28,31)        -51.1032         estimate D2E/DX2                !
 ! D133  D(28,20,25,16)         51.1032         estimate D2E/DX2                !
 ! D134  D(28,20,25,17)        180.0            estimate D2E/DX2                !
 ! D135  D(29,20,25,16)        180.0            estimate D2E/DX2                !
 ! D136  D(29,20,25,17)        -51.1032         estimate D2E/DX2                !
 ! D137  D(25,20,28,19)        -51.1032         estimate D2E/DX2                !
 ! D138  D(25,20,28,31)        180.0            estimate D2E/DX2                !
 ! D139  D(29,20,28,19)       -180.0            estimate D2E/DX2                !
 ! D140  D(29,20,28,31)         51.1032         estimate D2E/DX2                !
 ! D141  D(25,20,29,21)         51.1032         estimate D2E/DX2                !
 ! D142  D(25,20,29,32)        180.0            estimate D2E/DX2                !
 ! D143  D(28,20,29,21)        180.0            estimate D2E/DX2                !
 ! D144  D(28,20,29,32)        -51.1032         estimate D2E/DX2                !
 ! D145  D(29,21,26,17)         51.1032         estimate D2E/DX2                !
 ! D146  D(29,21,26,18)       -180.0            estimate D2E/DX2                !
 ! D147  D(33,21,26,17)        180.0            estimate D2E/DX2                !
 ! D148  D(33,21,26,18)        -51.1032         estimate D2E/DX2                !
 ! D149  D(26,21,29,20)        -51.1032         estimate D2E/DX2                !
 ! D150  D(26,21,29,32)        180.0            estimate D2E/DX2                !
 ! D151  D(33,21,29,20)        180.0            estimate D2E/DX2                !
 ! D152  D(33,21,29,32)         51.1032         estimate D2E/DX2                !
 --------------------------------------------------------------------------------
 Trust Radius=3.00D-01 FncErr=1.00D-07 GrdErr=1.00D-07
 Number of steps in this run=    264 maximum allowed number of steps=    264.
 GradGradGradGradGradGradGradGradGradGradGradGradGradGradGradGradGradGrad

                          Input orientation:                          
 ---------------------------------------------------------------------
 Center     Atomic      Atomic             Coordinates (Angstroms)
 Number     Number       Type             X           Y           Z
 ---------------------------------------------------------------------
      1          6           0        0.176948    1.023714    2.994967
      2          6           0        1.434948    0.297407    2.577810
      3          6           0        2.692948    1.023714    2.994967
      4          6           0        5.208948    1.023714    2.994967
      5          6           0        7.724948    1.023714    2.994967
      6          6           0        3.950948    0.297407    2.577810
      7          6           0        6.466948    0.297407    2.577810
      8          6           0       -1.081052    3.202634    2.994967
      9          6           0       -2.339052    5.381554    2.994967
     10          6           0        0.176948    2.476327    2.577810
     11          6           0       -1.081052    4.655247    2.577810
     12          6           0       -2.339052    6.834167    2.577810
     13          6           0        1.434948    3.202634    2.994967
     14          6           0        0.176948    5.381554    2.994967
     15          6           0       -1.081052    7.560474    2.994967
     16          6           0        3.950948    3.202634    2.994967
     17          6           0        2.692948    5.381554    2.994967
     18          6           0        1.434948    7.560474    2.994967
     19          6           0        6.466948    3.202634    2.994967
     20          6           0        5.208948    5.381554    2.994967
     21          6           0        3.950948    7.560474    2.994967
     22          6           0        2.692948    2.476327    2.577810
     23          6           0        0.176948    6.834167    2.577810
     24          6           0        5.208948    2.476327    2.577810
     25          6           0        3.950948    4.655247    2.577810
     26          6           0        2.692948    6.834167    2.577810
     27          6           0        7.724948    2.476327    2.577810
     28          6           0        6.466948    4.655247    2.577810
     29          6           0        5.208948    6.834167    2.577810
     30          1           0        8.615597    2.990544    2.873152
     31          1           0        7.357597    5.169464    2.873152
     32          1           0        6.099597    7.348383    2.873152
     33          1           0        3.950948    8.588906    2.699625
     34          1           0        1.434948    8.588906    2.699625
     35          1           0       -1.081052    8.588906    2.699625
     36          1           0       -3.229701    7.348383    2.873152
     37          1           0       -3.229701    4.867338    2.699625
     38          1           0       -1.971701    2.688418    2.699625
     39          1           0       -0.713701    0.509498    2.699625
     40          1           0        1.434948   -0.731025    2.873152
     41          1           0        3.950948   -0.731025    2.873152
     42          1           0        6.495217   -0.604546    3.152772
     43          1           0        8.373408    0.350713    3.515994
     44         77           0        1.434948    4.655247    2.577810
 ---------------------------------------------------------------------
                    Distance matrix (angstroms):
                    1          2          3          4          5
     1  C    0.000000
     2  C    1.511326   0.000000
     3  C    2.516000   1.511326   0.000000
     4  C    5.032000   3.865827   2.516000   0.000000
     5  C    7.548000   6.345521   5.032000   2.516000   0.000000
     6  C    3.865827   2.516000   1.511326   1.511326   3.865827
     7  C    6.345521   5.032000   3.865827   1.511326   1.511326
     8  C    2.516000   3.865827   4.357840   6.656710   9.071567
     9  C    5.032000   6.345521   6.656710   8.715680  10.966990
    10  C    1.511326   2.516000   2.935023   5.254058   7.697818
    11  C    3.865827   5.032000   5.254058   7.275036   9.534552
    12  C    6.345521   7.548000   7.697818   9.534552  11.628391
    13  C    2.516000   2.935023   2.516000   4.357840   6.656710
    14  C    4.357840   5.254058   5.032000   6.656710   8.715680
    15  C    6.656710   7.697818   7.548000   9.071567  10.966990
    16  C    4.357840   3.865827   2.516000   2.516000   4.357840
    17  C    5.032000   5.254058   4.357840   5.032000   6.656710
    18  C    6.656710   7.275036   6.656710   7.548000   9.071567
    19  C    6.656710   5.825409   4.357840   2.516000   2.516000
    20  C    6.656710   6.345521   5.032000   4.357840   5.032000
    21  C    7.548000   7.697818   6.656710   6.656710   7.548000
    22  C    2.935023   2.516000   1.511326   2.935023   5.254058
    23  C    5.825409   6.656710   6.345521   7.697818   9.534552
    24  C    5.254058   4.357840   2.935023   1.511326   2.935023
    25  C    5.254058   5.032000   3.865827   3.865827   5.254058
    26  C    6.345521   6.656710   5.825409   6.345521   7.697818
    27  C    7.697818   6.656710   5.254058   2.935023   1.511326
    28  C    7.275036   6.656710   5.254058   3.865827   3.865827
    29  C    7.697818   7.548000   6.345521   5.825409   6.345521
    30  H    8.665682   7.674759   6.241877   3.935545   2.162524
    31  H    8.292394   7.674759   6.241877   4.671056   4.163775
    32  H    8.665682   8.459458   7.184813   6.388234   6.531313
    33  H    8.459458   8.665682   7.674759   7.674759   8.459458
    34  H    7.674759   8.292394   7.674759   8.459458   9.842940
    35  H    7.674759   8.665682   8.459458   9.842940  11.613139
    36  H    7.184813   8.459458   8.665682  10.546425  12.649925
    37  H    5.144504   6.531313   7.066713   9.277471  11.613139
    38  H    2.734073   4.163775   4.961594   7.377003   9.842940
    39  H    1.070000   2.162524   3.457875   5.952261   8.459458
    40  H    2.162524   1.070000   2.162524   4.163775   6.531313
    41  H    4.163775   2.734073   2.162524   2.162524   4.163775
    42  H    6.526612   5.172082   4.139249   2.081015   2.046551
    43  H    8.240531   7.001804   5.743868   3.276920   1.070000
    44  Ir   3.865827   4.357840   3.865827   5.254058   7.275036
                    6          7          8          9         10
     6  C    0.000000
     7  C    2.516000   0.000000
     8  C    5.825409   8.098559   0.000000
     9  C    8.098559  10.176846   2.516000   0.000000
    10  C    4.357840   6.656710   1.511326   3.865827   0.000000
    11  C    6.656710   8.715680   1.511326   1.511326   2.516000
    12  C    9.071567  10.966990   3.865827   1.511326   5.032000
    13  C    3.865827   5.825409   2.516000   4.357840   1.511326
    14  C    6.345521   8.098559   2.516000   2.516000   2.935023
    15  C    8.845743  10.483246   4.357840   2.516000   5.254058
    16  C    2.935023   3.865827   5.032000   6.656710   3.865827
    17  C    5.254058   6.345521   4.357840   5.032000   3.865827
    18  C    7.697818   8.845743   5.032000   4.357840   5.254058
    19  C    3.865827   2.935023   7.548000   9.071567   6.345521
    20  C    5.254058   5.254058   6.656710   7.548000   5.825409
    21  C    7.275036   7.697818   6.656710   6.656710   6.345521
    22  C    2.516000   4.357840   3.865827   5.825409   2.516000
    23  C    7.548000   9.071567   3.865827   2.935023   4.357840
    24  C    2.516000   2.516000   6.345521   8.098559   5.032000
    25  C    4.357840   5.032000   5.254058   6.345521   4.357840
    26  C    6.656710   7.548000   5.254058   5.254058   5.032000
    27  C    4.357840   2.516000   8.845743  10.483246   7.548000
    28  C    5.032000   4.357840   7.697818   8.845743   6.656710
    29  C    6.656710   6.656710   7.275036   7.697818   6.656710
    30  H    5.394363   3.457875   9.699733  11.213211   8.459458
    31  H    5.952261   4.961594   8.665682   9.699733   7.674759
    32  H    7.377003   7.066713   8.292394   8.665682   7.674759
    33  H    8.292394   8.665682   7.377003   7.066713   7.184813
    34  H    8.665682   9.699733   5.952261   4.961594   6.241877
    35  H    9.699733  11.213211   5.394363   3.457875   6.241877
    36  H   10.068029  11.992851   4.671056   2.162524   5.952261
    37  H    8.512392  10.720266   2.734073   1.070000   4.163775
    38  H    6.388234   8.771691   1.070000   2.734073   2.162524
    39  H    4.671056   7.184813   2.734073   5.144504   2.162524
    40  H    2.734073   5.144504   4.671056   7.184813   3.457875
    41  H    1.070000   2.734073   6.388234   8.771691   4.961594
    42  H    2.759965   1.070000   8.480529  10.672516   7.052864
    43  H    4.521192   2.125469   9.888970  11.846418   8.519412
    44  Ir   5.032000   6.656710   2.935023   3.865827   2.516000
                   11         12         13         14         15
    11  C    0.000000
    12  C    2.516000   0.000000
    13  C    2.935023   5.254058   0.000000
    14  C    1.511326   2.935023   2.516000   0.000000
    15  C    2.935023   1.511326   5.032000   2.516000   0.000000
    16  C    5.254058   7.275036   2.516000   4.357840   6.656710
    17  C    3.865827   5.254058   2.516000   2.516000   4.357840
    18  C    3.865827   3.865827   4.357840   2.516000   2.516000
    19  C    7.697818   9.534552   5.032000   6.656710   8.715680
    20  C    6.345521   7.697818   4.357840   5.032000   6.656710
    21  C    5.825409   6.345521   5.032000   4.357840   5.032000
    22  C    4.357840   6.656710   1.511326   3.865827   6.345521
    23  C    2.516000   2.516000   3.865827   1.511326   1.511326
    24  C    6.656710   8.715680   3.865827   5.825409   8.098559
    25  C    5.032000   6.656710   2.935023   3.865827   5.825409
    26  C    4.357840   5.032000   3.865827   2.935023   3.865827
    27  C    9.071567  10.966990   6.345521   8.098559  10.176846
    28  C    7.548000   9.071567   5.254058   6.345521   8.098559
    29  C    6.656710   7.548000   5.254058   5.254058   6.345521
    30  H    9.842940  11.613139   7.184813   8.771691  10.720266
    31  H    8.459458   9.842940   6.241877   7.184813   8.771691
    32  H    7.674759   8.459458   6.241877   6.241877   7.184813
    33  H    6.388234   6.531313   5.952261   4.961594   5.144504
    34  H    4.671056   4.163775   5.394363   3.457875   2.734073
    35  H    3.935545   2.162524   5.952261   3.457875   1.070000
    36  H    3.457875   1.070000   6.241877   3.935545   2.162524
    37  H    2.162524   2.162524   4.961594   3.457875   3.457875
    38  H    2.162524   4.163775   3.457875   3.457875   4.961594
    39  H    4.163775   6.531313   3.457875   4.961594   7.066713
    40  H    5.952261   8.459458   3.935545   6.241877   8.665682
    41  H    7.377003   9.842940   4.671056   7.184813   9.699733
    42  H    9.240988  11.563276   6.334497   8.705103  11.139673
    43  H   10.430533  12.556757   7.519784   9.631344  11.901215
    44  Ir   2.516000   4.357840   1.511326   1.511326   3.865827
                   16         17         18         19         20
    16  C    0.000000
    17  C    2.516000   0.000000
    18  C    5.032000   2.516000   0.000000
    19  C    2.516000   4.357840   6.656710   0.000000
    20  C    2.516000   2.516000   4.357840   2.516000   0.000000
    21  C    4.357840   2.516000   2.516000   5.032000   2.516000
    22  C    1.511326   2.935023   5.254058   3.865827   3.865827
    23  C    5.254058   2.935023   1.511326   7.275036   5.254058
    24  C    1.511326   3.865827   6.345521   1.511326   2.935023
    25  C    1.511326   1.511326   3.865827   2.935023   1.511326
    26  C    3.865827   1.511326   1.511326   5.254058   2.935023
    27  C    3.865827   5.825409   8.098559   1.511326   3.865827
    28  C    2.935023   3.865827   5.825409   1.511326   1.511326
    29  C    3.865827   2.935023   3.865827   3.865827   1.511326
    30  H    4.671056   6.388234   8.512392   2.162524   4.163775
    31  H    3.935545   4.671056   6.388234   2.162524   2.162524
    32  H    4.671056   3.935545   4.671056   4.163775   2.162524
    33  H    5.394363   3.457875   2.734073   5.952261   3.457875
    34  H    5.952261   3.457875   1.070000   7.377003   4.961594
    35  H    7.377003   4.961594   2.734073   9.277471   7.066713
    36  H    8.292394   6.241877   4.671056  10.546425   8.665682
    37  H    7.377003   5.952261   5.394363   9.842940   8.459458
    38  H    5.952261   5.394363   5.952261   8.459458   7.674759
    39  H    5.394363   5.952261   7.377003   7.674759   7.674759
    40  H    4.671056   6.241877   8.292394   6.388234   7.184813
    41  H    3.935545   6.241877   8.665682   4.671056   6.241877
    42  H    4.581793   7.093345   9.607225   3.810554   6.124768
    43  H    5.288012   7.605817  10.019698   3.469800   5.966124
    44  Ir   2.935023   1.511326   2.935023   5.254058   3.865827
                   21         22         23         24         25
    21  C    0.000000
    22  C    5.254058   0.000000
    23  C    3.865827   5.032000   0.000000
    24  C    5.254058   2.516000   6.656710   0.000000
    25  C    2.935023   2.516000   4.357840   2.516000   0.000000
    26  C    1.511326   4.357840   2.516000   5.032000   2.516000
    27  C    6.345521   5.032000   8.715680   2.516000   4.357840
    28  C    3.865827   4.357840   6.656710   2.516000   2.516000
    29  C    1.511326   5.032000   5.032000   4.357840   2.516000
    30  H    6.531313   5.952261   9.277471   3.457875   4.961594
    31  H    4.163775   5.394363   7.377003   3.457875   3.457875
    32  H    2.162524   5.952261   5.952261   4.961594   3.457875
    33  H    1.070000   6.241877   4.163775   6.241877   3.935545
    34  H    2.734073   6.241877   2.162524   7.184813   4.671056
    35  H    5.144504   7.184813   2.162524   8.771691   6.388234
    36  H    7.184813   7.674759   3.457875   9.748587   7.674759
    37  H    7.674759   6.388234   3.935545   8.771691   7.184813
    38  H    7.674759   4.671056   4.671056   7.184813   6.241877
    39  H    8.459458   3.935545   6.388234   6.241877   6.241877
    40  H    8.665682   3.457875   7.674759   4.961594   5.952261
    41  H    8.292394   3.457875   8.459458   3.457875   5.394363
    42  H    8.553698   4.927435   9.776787   3.387750   5.871057
    43  H    8.474094   6.137267  10.492727   3.925841   6.242384
    44  Ir   3.865827   2.516000   2.516000   4.357840   2.516000
                   26         27         28         29         30
    26  C    0.000000
    27  C    6.656710   0.000000
    28  C    4.357840   2.516000   0.000000
    29  C    2.516000   5.032000   2.516000   0.000000
    30  H    7.066713   1.070000   2.734073   5.144504   0.000000
    31  H    4.961594   2.734073   1.070000   2.734073   2.516000
    32  H    3.457875   5.144504   2.734073   1.070000   5.032000
    33  H    2.162524   7.184813   4.671056   2.162524   7.289082
    34  H    2.162524   8.771691   6.388234   4.163775   9.106783
    35  H    4.163775  10.720266   8.512392   6.531313  11.198070
    36  H    5.952261  11.992851  10.068029   8.459458  12.621483
    37  H    6.241877  11.213211   9.699733   8.665682  11.994313
    38  H    6.241877   9.699733   8.665682   8.292394  10.593029
    39  H    7.184813   8.665682   8.292394   8.665682   9.655127
    40  H    7.674759   7.066713   7.377003   8.459458   8.087755
    41  H    7.674759   4.961594   5.952261   7.674759   5.967329
    42  H    8.373905   3.366689   5.291201   7.570966   4.183164
    43  H    8.670812   2.412245   4.800395   7.275244   2.727747
    44  Ir   2.516000   6.656710   5.032000   4.357840   7.377003
                   31         32         33         34         35
    31  H    0.000000
    32  H    2.516000   0.000000
    33  H    4.829902   2.487107   0.000000
    34  H    6.841087   4.829902   2.516000   0.000000
    35  H    9.106783   7.289082   5.032000   2.516000   0.000000
    36  H   10.809188   9.329297   7.289082   4.829902   2.487107
    37  H   10.593029   9.655127   8.087755   5.967329   4.297297
    38  H    9.655127   9.321547   8.360235   6.813297   5.967329
    39  H    9.321547   9.655127   9.329297   8.360235   8.087755
    40  H    8.360235   9.329297   9.655127   9.321547   9.655127
    41  H    6.813297   8.360235   9.321547   9.655127  10.593029
    42  H    5.844747   7.967671   9.549775  10.503867  11.921609
    43  H    4.966435   7.385855   9.385757  10.801690  12.566666
    44  Ir   5.952261   5.394363   4.671056   3.935545   4.671056
                   36         37         38         39         40
    36  H    0.000000
    37  H    2.487107   0.000000
    38  H    4.829902   2.516000   0.000000
    39  H    7.289082   5.032000   2.516000   0.000000
    40  H    9.329297   7.289082   4.829902   2.487107   0.000000
    41  H   10.809188   9.106783   6.841087   4.829902   2.516000
    42  H   12.565878  11.167850   9.096024   7.308552   5.069567
    43  H   13.565130  12.477920  10.637321   9.125087   7.051640
    44  Ir   5.394363   4.671056   3.935545   4.671056   5.394363
                   41         42         43         44
    41  H    0.000000
    42  H    2.562712   0.000000
    43  H    4.597995   2.138235   0.000000
    44  Ir   5.952261   7.321361   8.218967   0.000000
 Stoichiometry    C29H14Ir(2)
 Framework group  C1[X(C29H14Ir)]
 Deg. of freedom   126
 Full point group                 C1      NOp   1
 Largest Abelian subgroup         C1      NOp   1
 Largest concise Abelian subgroup C1      NOp   1
                         Standard orientation:                         
 ---------------------------------------------------------------------
 Center     Atomic      Atomic             Coordinates (Angstroms)
 Number     Number       Type             X           Y           Z
 ---------------------------------------------------------------------
      1          6           0       -0.331491   -3.773987    0.259534
      2          6           0        1.118193   -3.772415   -0.167686
      3          6           0        1.846318   -2.514143    0.245463
      4          6           0        4.024127   -1.254300    0.231393
      5          6           0        6.201936    0.005544    0.217323
      6          6           0        3.296002   -2.512571   -0.181756
      7          6           0        5.473811   -1.252728   -0.195827
      8          6           0       -2.511416   -2.517832    0.275684
      9          6           0       -4.691340   -1.261677    0.291834
     10          6           0       -1.061731   -2.516260   -0.151536
     11          6           0       -3.241656   -1.260105   -0.135386
     12          6           0       -5.421580   -0.003951   -0.119236
     13          6           0       -0.333607   -1.257988    0.261613
     14          6           0       -2.513531   -0.001834    0.277763
     15          6           0       -4.693456    1.254321    0.293913
     16          6           0        1.844202    0.001855    0.247543
     17          6           0       -0.335722    1.258010    0.263693
     18          6           0       -2.515647    2.514165    0.279843
     19          6           0        4.022011    1.261699    0.233473
     20          6           0        1.842087    2.517853    0.249622
     21          6           0       -0.337838    3.774008    0.265772
     22          6           0        1.116078   -1.256416   -0.165606
     23          6           0       -3.243771    1.255893   -0.133307
     24          6           0        3.293887    0.003427   -0.179677
     25          6           0        1.113962    1.259582   -0.163527
     26          6           0       -1.065962    2.515737   -0.147377
     27          6           0        5.471696    1.263271   -0.193747
     28          6           0        3.291771    2.519425   -0.177597
     29          6           0        1.111847    3.775580   -0.161447
     30          1           0        5.987199    2.154112    0.098758
     31          1           0        3.807275    3.410266    0.114908
     32          1           0        1.627350    4.666421    0.131057
     33          1           0       -0.854838    4.664463   -0.025260
     34          1           0       -3.032648    3.404620   -0.011190
     35          1           0       -5.210457    2.144776    0.002881
     36          1           0       -6.447939   -0.005064    0.183230
     37          1           0       -5.206843   -2.152518   -0.000671
     38          1           0       -3.026919   -3.408673   -0.016821
     39          1           0       -0.846995   -4.664828   -0.032971
     40          1           0        1.635194   -4.662870    0.123346
     41          1           0        3.813003   -3.403026    0.109276
     42          1           0        5.953891   -2.019776    0.375190
     43          1           0        7.103828   -0.252729    0.731896
     44         77           0       -1.063847   -0.000262   -0.149456
 ---------------------------------------------------------------------
 Rotational constants (GHZ):      0.2983979      0.1249354      0.0887358
 Standard basis: VSTO-6G (5D, 7F)
 There are   140 symmetry adapted cartesian basis functions of A   symmetry.
 There are   139 symmetry adapted basis functions of A   symmetry.
   139 basis functions,   840 primitive gaussians,   140 cartesian basis functions
    70 alpha electrons       69 beta electrons
       nuclear repulsion energy      1305.0431818994 Hartrees.
 Integral buffers will be    262144 words long.
 Regular integral format.
 Two-electron integral symmetry is turned off.
 Do NDO integrals.
 One-electron integrals computed using PRISM.
 NBasis=   139 RedAO= F EigKep=  0.00D+00  NBF=   139
 NBsUse=   139 1.00D-04 EigRej=  0.00D+00 NBFU=   139
 Nonelectrostatic core Hamiltonian diagonalized for initial guess.
 Initial guess <Sx>= 0.0000 <Sy>= 0.0000 <Sz>= 0.5000 <S**2>= 0.7500 S= 0.5000
 Keep J ints in memory in canonical form, NReq=2111950.
 Gradient too large for Newton-Raphson -- use scaled steepest descent instead.
     Minimum is close to point  6 DX=  5.72D-02 DF= -1.49D-03 DXR=  4.55D-02 DFR=  1.94D-03 which will be used.
 Gradient too large for Newton-Raphson -- use scaled steepest descent instead.
     Accept linear search using points  2 and  3.
 Gradient too large for Newton-Raphson -- use scaled steepest descent instead.
     Accept linear search using points  2 and  3.
 Gradient too large for Newton-Raphson -- use scaled steepest descent instead.
     Accept linear search using points  1 and  2.
     Minimum is close to point  2 DX= -2.87D-02 DF= -1.48D-05 DXR=  2.96D-02 DFR=  8.62D-04 which will be used.
 Gradient too large for Newton-Raphson -- use scaled steepest descent instead.
 Gradient too large for Newton-Raphson -- use scaled steepest descent instead.
     Minimum is close to point  2 DX=  3.41D-02 DF= -6.77D-06 DXR=  2.76D-02 DFR=  7.63D-04 which will be used.
 Gradient too large for Newton-Raphson -- use scaled steepest descent instead.
 Gradient too large for Newton-Raphson -- use scaled steepest descent instead.
     Accept linear search using points  1 and  2.
     Minimum is close to point  2 DX= -1.31D-01 DF= -1.54D-04 DXR=  9.59D-02 DFR=  1.56D-02 which will be used.
 Gradient too large for Newton-Raphson -- use scaled steepest descent instead.
     Accept linear search using points  1 and  2.
 Gradient too large for Newton-Raphson -- use scaled steepest descent instead.
     Minimum is close to point  2 DX=  6.08D-02 DF= -2.25D-05 DXR=  4.47D-02 DFR=  2.00D-03 which will be used.
 Gradient too large for Newton-Raphson -- use scaled steepest descent instead.
 Gradient too large for Newton-Raphson -- use scaled steepest descent instead.
     Accept linear search using points  1 and  2.
     Minimum is close to point  2 DX= -1.33D-01 DF= -1.47D-04 DXR=  9.70D-02 DFR=  1.60D-02 which will be used.
 Gradient too large for Newton-Raphson -- use scaled steepest descent instead.
     Accept linear search using points  1 and  2.
 Gradient too large for Newton-Raphson -- use scaled steepest descent instead.
     Minimum is close to point  2 DX= -2.22D-03 DF= -1.71D-08 DXR=  1.71D-03 DFR=  2.93D-06 which will be used.
 Gradient too large for Newton-Raphson -- use scaled steepest descent instead.
 Gradient too large for Newton-Raphson -- use scaled steepest descent instead.
     Accept linear search using points  1 and  2.
     Minimum is close to point  2 DX= -4.07D-02 DF= -4.57D-06 DXR=  2.99D-02 DFR=  1.52D-03 which will be used.
 Gradient too large for Newton-Raphson -- use scaled steepest descent instead.
     Accept linear search using points  1 and  2.
     Minimum is close to point  2 DX= -5.45D-02 DF= -5.91D-06 DXR=  4.05D-02 DFR=  2.73D-03 which will be used.
 Gradient too large for Newton-Raphson -- use scaled steepest descent instead.
     Accept linear search using points  1 and  2.
     Minimum is close to point  2 DX= -5.37D-02 DF= -4.27D-06 DXR=  3.99D-02 DFR=  2.65D-03 which will be used.
 Gradient too large for Newton-Raphson -- use scaled steepest descent instead.
     Minimum is close to point  2 DX=  1.02D-02 DF= -7.42D-08 DXR=  7.77D-03 DFR=  6.03D-05 which will be used.
 Gradient too large for Newton-Raphson -- use scaled steepest descent instead.
 Gradient too large for Newton-Raphson -- use scaled steepest descent instead.
     Accept linear search using points  1 and  2.
     Minimum is close to point  2 DX= -4.02D-02 DF= -1.15D-06 DXR=  2.96D-02 DFR=  1.47D-03 which will be used.
 Gradient too large for Newton-Raphson -- use scaled steepest descent instead.
     Accept linear search using points  1 and  2.
     Minimum is close to point  2 DX= -3.80D-02 DF= -8.02D-07 DXR=  2.60D-02 DFR=  1.26D-03 which will be used.
 Gradient too large for Newton-Raphson -- use scaled steepest descent instead.
     Accept linear search using points  1 and  2.
     Minimum is close to point  2 DX= -3.15D-02 DF= -4.82D-07 DXR=  2.30D-02 DFR=  9.00D-04 which will be used.
 Gradient too large for Newton-Raphson -- use scaled steepest descent instead.
     Minimum is close to point  2 DX=  4.88D-02 DF= -5.11D-07 DXR=  3.37D-02 DFR=  1.14D-03 which will be used.
 Gradient too large for Newton-Raphson -- use scaled steepest descent instead.
 Gradient too large for Newton-Raphson -- use scaled steepest descent instead.
     Accept linear search using points  1 and  2.
     Minimum is close to point  2 DX= -5.42D-02 DF= -8.71D-07 DXR=  3.75D-02 DFR=  2.58D-03 which will be used.
 Gradient too large for Newton-Raphson -- use scaled steepest descent instead.
     Accept linear search using points  1 and  2.
     Minimum is close to point  2 DX= -5.99D-02 DF= -9.54D-07 DXR=  4.16D-02 DFR=  3.14D-03 which will be used.
 Gradient too large for Newton-Raphson -- use scaled steepest descent instead.
     Accept linear search using points  1 and  2.
     Minimum is close to point  2 DX= -1.43D-02 DF= -5.32D-08 DXR=  1.03D-02 DFR=  1.85D-04 which will be used.
 LinEq1:  Iter=  0 NonCon=     1 RMS=3.39D-04 Max=2.08D-02 NDo=     1
 AX will form     1 AO Fock derivatives at one time.
 LinEq1:  Iter=  1 NonCon=     1 RMS=1.99D-04 Max=9.74D-03 NDo=     1
 LinEq1:  Iter=  2 NonCon=     1 RMS=6.36D-05 Max=3.08D-03 NDo=     1
 LinEq1:  Iter=  3 NonCon=     1 RMS=3.19D-05 Max=1.26D-03 NDo=     1
 LinEq1:  Iter=  4 NonCon=     1 RMS=9.39D-06 Max=2.32D-04 NDo=     1
 LinEq1:  Iter=  5 NonCon=     1 RMS=3.69D-06 Max=1.56D-04 NDo=     1
 LinEq1:  Iter=  6 NonCon=     1 RMS=1.36D-06 Max=5.76D-05 NDo=     1
 LinEq1:  Iter=  7 NonCon=     1 RMS=3.88D-07 Max=1.67D-05 NDo=     1
 LinEq1:  Iter=  8 NonCon=     1 RMS=8.38D-08 Max=2.08D-06 NDo=     1
 LinEq1:  Iter=  9 NonCon=     1 RMS=2.00D-08 Max=5.72D-07 NDo=     1
 LinEq1:  Iter= 10 NonCon=     1 RMS=5.78D-09 Max=1.95D-07 NDo=     1
 LinEq1:  Iter= 11 NonCon=     0 RMS=2.33D-09 Max=7.22D-08 NDo=     1
 Linear equations converged to 9.829D-09 9.829D-08 after    11 iterations.
 Gradient too large for Newton-Raphson -- use scaled steepest descent instead.
     Minimum is close to point  3 DX=  2.22D-01 DF= -5.69D-05 DXR=  8.15D-02 DFR=  6.87D-03 which will be used.
 Gradient too large for Newton-Raphson -- use scaled steepest descent instead.
     Accept linear search using points  1 and  2.
 Gradient too large for Newton-Raphson -- use scaled steepest descent instead.
 Gradient too large for Newton-Raphson -- use scaled steepest descent instead.
 Gradient too large for Newton-Raphson -- use scaled steepest descent instead.
     Accept linear search using points  1 and  2.
 Gradient too large for Newton-Raphson -- use scaled steepest descent instead.
     Minimum is close to point  2 DX=  1.49D-02 DF= -9.21D-08 DXR=  1.13D-02 DFR=  1.28D-04 which will be used.
 Gradient too large for Newton-Raphson -- use scaled steepest descent instead.
     Accept linear search using points  1 and  2.
     Minimum is close to point  2 DX= -4.00D-02 DF= -5.57D-07 DXR=  3.44D-02 DFR=  1.61D-03 which will be used.
 LinEq1:  Iter=  0 NonCon=     1 RMS=2.37D-04 Max=1.71D-02 NDo=     1
 LinEq1:  Iter=  1 NonCon=     1 RMS=1.28D-04 Max=5.74D-03 NDo=     1
 LinEq1:  Iter=  2 NonCon=     1 RMS=1.23D-05 Max=5.12D-04 NDo=     1
 LinEq1:  Iter=  3 NonCon=     1 RMS=2.86D-06 Max=7.33D-05 NDo=     1
 LinEq1:  Iter=  4 NonCon=     1 RMS=8.33D-07 Max=2.00D-05 NDo=     1
 LinEq1:  Iter=  5 NonCon=     1 RMS=3.52D-07 Max=7.82D-06 NDo=     1
 LinEq1:  Iter=  6 NonCon=     1 RMS=9.68D-08 Max=4.23D-06 NDo=     1
 LinEq1:  Iter=  7 NonCon=     1 RMS=3.06D-08 Max=1.21D-06 NDo=     1
 LinEq1:  Iter=  8 NonCon=     1 RMS=1.04D-08 Max=2.78D-07 NDo=     1
 LinEq1:  Iter=  9 NonCon=     0 RMS=3.24D-09 Max=7.24D-08 NDo=     1
 Linear equations converged to 9.829D-09 9.829D-08 after     9 iterations.
     Accept linear search using points  1 and  2.
     Minimum is close to point  2 DX= -8.50D-02 DF= -2.85D-06 DXR=  9.28D-02 DFR=  8.80D-03 which will be used.
 LinEq1:  Iter=  0 NonCon=     1 RMS=6.73D-05 Max=1.48D-03 NDo=     1
 LinEq1:  Iter=  1 NonCon=     1 RMS=3.28D-05 Max=7.12D-04 NDo=     1
 LinEq1:  Iter=  2 NonCon=     1 RMS=1.26D-05 Max=4.80D-04 NDo=     1
 LinEq1:  Iter=  3 NonCon=     1 RMS=3.85D-06 Max=1.74D-04 NDo=     1
 LinEq1:  Iter=  4 NonCon=     1 RMS=1.40D-06 Max=6.52D-05 NDo=     1
 LinEq1:  Iter=  5 NonCon=     1 RMS=3.99D-07 Max=1.19D-05 NDo=     1
 LinEq1:  Iter=  6 NonCon=     1 RMS=1.07D-07 Max=2.19D-06 NDo=     1
 LinEq1:  Iter=  7 NonCon=     1 RMS=3.42D-08 Max=9.31D-07 NDo=     1
 LinEq1:  Iter=  8 NonCon=     1 RMS=1.46D-08 Max=3.14D-07 NDo=     1
 LinEq1:  Iter=  9 NonCon=     0 RMS=3.31D-09 Max=7.60D-08 NDo=     1
 Linear equations converged to 9.829D-09 9.829D-08 after     9 iterations.
     Minimum is close to point  2 DX=  1.15D-02 DF= -3.37D-09 DXR=  1.13D-02 DFR=  1.29D-04 which will be used.
 LinEq1:  Iter=  0 NonCon=     1 RMS=1.25D-05 Max=2.79D-04 NDo=     1
 LinEq1:  Iter=  1 NonCon=     1 RMS=4.88D-06 Max=8.70D-05 NDo=     1
 LinEq1:  Iter=  2 NonCon=     1 RMS=2.13D-06 Max=7.28D-05 NDo=     1
 LinEq1:  Iter=  3 NonCon=     1 RMS=7.20D-07 Max=2.40D-05 NDo=     1
 LinEq1:  Iter=  4 NonCon=     1 RMS=1.98D-07 Max=4.57D-06 NDo=     1
 LinEq1:  Iter=  5 NonCon=     1 RMS=5.45D-08 Max=1.37D-06 NDo=     1
 LinEq1:  Iter=  6 NonCon=     1 RMS=1.97D-08 Max=4.39D-07 NDo=     1
 LinEq1:  Iter=  7 NonCon=     1 RMS=6.86D-09 Max=1.79D-07 NDo=     1
 LinEq1:  Iter=  8 NonCon=     1 RMS=2.65D-09 Max=6.31D-08 NDo=     1
 LinEq1:  Iter=  9 NonCon=     0 RMS=9.39D-10 Max=2.40D-08 NDo=     1
 Linear equations converged to 6.104D-09 6.104D-08 after     9 iterations.
     Minimum is close to point  3 DX= -1.17D-02 DF= -1.68D-10 DXR=  2.40D-02 DFR=  5.77D-04 which will be used.
 LinEq1:  Iter=  0 NonCon=     1 RMS=8.06D-06 Max=2.16D-04 NDo=     1
 LinEq1:  Iter=  1 NonCon=     1 RMS=3.43D-06 Max=8.69D-05 NDo=     1
 LinEq1:  Iter=  2 NonCon=     1 RMS=1.41D-06 Max=5.47D-05 NDo=     1
 LinEq1:  Iter=  3 NonCon=     1 RMS=5.37D-07 Max=1.52D-05 NDo=     1
 LinEq1:  Iter=  4 NonCon=     1 RMS=1.83D-07 Max=4.57D-06 NDo=     1
 LinEq1:  Iter=  5 NonCon=     1 RMS=4.62D-08 Max=2.19D-06 NDo=     1
 LinEq1:  Iter=  6 NonCon=     1 RMS=2.43D-08 Max=9.16D-07 NDo=     1
 LinEq1:  Iter=  7 NonCon=     1 RMS=6.54D-09 Max=1.66D-07 NDo=     1
 LinEq1:  Iter=  8 NonCon=     0 RMS=1.53D-09 Max=3.49D-08 NDo=     1
 Linear equations converged to 3.610D-09 3.610D-08 after     8 iterations.
     Minimum is close to point  3 DX=  3.70D-02 DF= -6.65D-09 DXR=  8.46D-02 DFR=  7.21D-03 which will be used.
 LinEq1:  Iter=  0 NonCon=     1 RMS=7.54D-06 Max=2.39D-04 NDo=     1
 LinEq1:  Iter=  1 NonCon=     1 RMS=2.87D-06 Max=1.10D-04 NDo=     1
 LinEq1:  Iter=  2 NonCon=     1 RMS=1.23D-06 Max=4.99D-05 NDo=     1
 LinEq1:  Iter=  3 NonCon=     1 RMS=5.18D-07 Max=2.56D-05 NDo=     1
 LinEq1:  Iter=  4 NonCon=     1 RMS=1.80D-07 Max=5.80D-06 NDo=     1
 LinEq1:  Iter=  5 NonCon=     1 RMS=3.96D-08 Max=1.45D-06 NDo=     1
 LinEq1:  Iter=  6 NonCon=     1 RMS=1.56D-08 Max=5.86D-07 NDo=     1
 LinEq1:  Iter=  7 NonCon=     1 RMS=5.52D-09 Max=1.65D-07 NDo=     1
 LinEq1:  Iter=  8 NonCon=     1 RMS=2.03D-09 Max=4.53D-08 NDo=     1
 LinEq1:  Iter=  9 NonCon=     0 RMS=5.10D-10 Max=1.34D-08 NDo=     1
 Linear equations converged to 3.862D-09 3.862D-08 after     9 iterations.
 Incorrect curvature in search direction -- initial direction reversed.
     Accept linear search using points  1 and  2.
     Minimum is close to point  2 DX= -2.46D-02 DF= -7.02D-11 DXR=  2.52D-02 DFR=  6.88D-04 which will be used.
 LinEq1:  Iter=  0 NonCon=     1 RMS=1.60D-05 Max=4.08D-04 NDo=     1
 LinEq1:  Iter=  1 NonCon=     1 RMS=6.06D-06 Max=2.36D-04 NDo=     1
 LinEq1:  Iter=  2 NonCon=     1 RMS=2.63D-06 Max=1.07D-04 NDo=     1
 LinEq1:  Iter=  3 NonCon=     1 RMS=1.11D-06 Max=5.40D-05 NDo=     1
 LinEq1:  Iter=  4 NonCon=     1 RMS=3.81D-07 Max=1.30D-05 NDo=     1
 LinEq1:  Iter=  5 NonCon=     1 RMS=9.25D-08 Max=2.77D-06 NDo=     1
 LinEq1:  Iter=  6 NonCon=     1 RMS=4.03D-08 Max=1.43D-06 NDo=     1
 LinEq1:  Iter=  7 NonCon=     1 RMS=1.34D-08 Max=4.71D-07 NDo=     1
 LinEq1:  Iter=  8 NonCon=     1 RMS=4.66D-09 Max=1.89D-07 NDo=     1
 LinEq1:  Iter=  9 NonCon=     0 RMS=1.17D-09 Max=3.02D-08 NDo=     1
 Linear equations converged to 8.582D-09 8.582D-08 after     9 iterations.
     Minimum is close to point  2 DX=  5.23D-02 DF= -9.25D-10 DXR=  4.97D-02 DFR=  2.48D-03 which will be used.
 LinEq1:  Iter=  0 NonCon=     1 RMS=5.30D-06 Max=1.34D-04 NDo=     1
 LinEq1:  Iter=  1 NonCon=     1 RMS=1.98D-06 Max=7.79D-05 NDo=     1
 LinEq1:  Iter=  2 NonCon=     1 RMS=6.45D-07 Max=1.39D-05 NDo=     1
 LinEq1:  Iter=  3 NonCon=     1 RMS=2.47D-07 Max=6.89D-06 NDo=     1
 LinEq1:  Iter=  4 NonCon=     1 RMS=1.04D-07 Max=2.65D-06 NDo=     1
 LinEq1:  Iter=  5 NonCon=     1 RMS=2.89D-08 Max=6.99D-07 NDo=     1
 LinEq1:  Iter=  6 NonCon=     1 RMS=1.16D-08 Max=4.08D-07 NDo=     1
 LinEq1:  Iter=  7 NonCon=     1 RMS=4.58D-09 Max=1.01D-07 NDo=     1
 LinEq1:  Iter=  8 NonCon=     1 RMS=1.62D-09 Max=4.49D-08 NDo=     1
 LinEq1:  Iter=  9 NonCon=     0 RMS=5.14D-10 Max=1.76D-08 NDo=     1
 Linear equations converged to 2.466D-09 2.466D-08 after     9 iterations.
 Incorrect curvature in search direction -- initial direction reversed.
 LinEq1:  Iter=  0 NonCon=     1 RMS=5.40D-05 Max=1.29D-03 NDo=     1
 LinEq1:  Iter=  1 NonCon=     1 RMS=2.02D-05 Max=8.16D-04 NDo=     1
 LinEq1:  Iter=  2 NonCon=     1 RMS=6.93D-06 Max=2.61D-04 NDo=     1
 LinEq1:  Iter=  3 NonCon=     1 RMS=2.82D-06 Max=1.23D-04 NDo=     1
 LinEq1:  Iter=  4 NonCon=     1 RMS=1.19D-06 Max=4.55D-05 NDo=     1
 LinEq1:  Iter=  5 NonCon=     1 RMS=1.64D-07 Max=3.43D-06 NDo=     1
 LinEq1:  Iter=  6 NonCon=     1 RMS=8.02D-08 Max=2.91D-06 NDo=     1
 LinEq1:  Iter=  7 NonCon=     1 RMS=2.76D-08 Max=1.12D-06 NDo=     1
 LinEq1:  Iter=  8 NonCon=     1 RMS=8.95D-09 Max=3.85D-07 NDo=     1
 LinEq1:  Iter=  9 NonCon=     0 RMS=2.05D-09 Max=5.56D-08 NDo=     1
 Linear equations converged to 9.829D-09 9.829D-08 after     9 iterations.
 LinEq1:  Iter=  0 NonCon=     1 RMS=4.84D-05 Max=1.15D-03 NDo=     1
 LinEq1:  Iter=  1 NonCon=     1 RMS=1.81D-05 Max=7.31D-04 NDo=     1
 LinEq1:  Iter=  2 NonCon=     1 RMS=6.21D-06 Max=2.35D-04 NDo=     1
 LinEq1:  Iter=  3 NonCon=     1 RMS=2.53D-06 Max=1.10D-04 NDo=     1
 LinEq1:  Iter=  4 NonCon=     1 RMS=1.06D-06 Max=4.06D-05 NDo=     1
 LinEq1:  Iter=  5 NonCon=     1 RMS=1.52D-07 Max=3.32D-06 NDo=     1
 LinEq1:  Iter=  6 NonCon=     1 RMS=7.38D-08 Max=2.68D-06 NDo=     1
 LinEq1:  Iter=  7 NonCon=     1 RMS=2.56D-08 Max=1.02D-06 NDo=     1
 LinEq1:  Iter=  8 NonCon=     1 RMS=8.42D-09 Max=3.63D-07 NDo=     1
 LinEq1:  Iter=  9 NonCon=     0 RMS=2.05D-09 Max=5.42D-08 NDo=     1
 Linear equations converged to 9.829D-09 9.829D-08 after     9 iterations.
 LinEq1:  Iter=  0 NonCon=     1 RMS=3.99D-05 Max=9.48D-04 NDo=     1
 LinEq1:  Iter=  1 NonCon=     1 RMS=1.50D-05 Max=6.00D-04 NDo=     1
 LinEq1:  Iter=  2 NonCon=     1 RMS=5.13D-06 Max=1.94D-04 NDo=     1
 LinEq1:  Iter=  3 NonCon=     1 RMS=2.08D-06 Max=9.01D-05 NDo=     1
 LinEq1:  Iter=  4 NonCon=     1 RMS=8.76D-07 Max=3.33D-05 NDo=     1
 LinEq1:  Iter=  5 NonCon=     1 RMS=1.34D-07 Max=3.10D-06 NDo=     1
 LinEq1:  Iter=  6 NonCon=     1 RMS=6.45D-08 Max=2.33D-06 NDo=     1
 LinEq1:  Iter=  7 NonCon=     1 RMS=2.27D-08 Max=8.77D-07 NDo=     1
 LinEq1:  Iter=  8 NonCon=     1 RMS=7.67D-09 Max=3.30D-07 NDo=     1
 LinEq1:  Iter=  9 NonCon=     0 RMS=2.03D-09 Max=5.17D-08 NDo=     1
 Linear equations converged to 9.829D-09 9.829D-08 after     9 iterations.
 LinEq1:  Iter=  0 NonCon=     1 RMS=2.95D-05 Max=6.95D-04 NDo=     1
 LinEq1:  Iter=  1 NonCon=     1 RMS=1.11D-05 Max=4.39D-04 NDo=     1
 LinEq1:  Iter=  2 NonCon=     1 RMS=3.80D-06 Max=1.43D-04 NDo=     1
 LinEq1:  Iter=  3 NonCon=     1 RMS=1.54D-06 Max=6.61D-05 NDo=     1
 LinEq1:  Iter=  4 NonCon=     1 RMS=6.47D-07 Max=2.43D-05 NDo=     1
 LinEq1:  Iter=  5 NonCon=     1 RMS=1.15D-07 Max=2.71D-06 NDo=     1
 LinEq1:  Iter=  6 NonCon=     1 RMS=5.37D-08 Max=1.93D-06 NDo=     1
 LinEq1:  Iter=  7 NonCon=     1 RMS=1.93D-08 Max=6.98D-07 NDo=     1
 LinEq1:  Iter=  8 NonCon=     1 RMS=6.65D-09 Max=2.82D-07 NDo=     1
 LinEq1:  Iter=  9 NonCon=     0 RMS=1.88D-09 Max=4.75D-08 NDo=     1
 Linear equations converged to 9.829D-09 9.829D-08 after     9 iterations.
 LinEq1:  Iter=  0 NonCon=     1 RMS=1.93D-05 Max=4.43D-04 NDo=     1
 LinEq1:  Iter=  1 NonCon=     1 RMS=7.32D-06 Max=2.80D-04 NDo=     1
 LinEq1:  Iter=  2 NonCon=     1 RMS=2.49D-06 Max=9.19D-05 NDo=     1
 LinEq1:  Iter=  3 NonCon=     1 RMS=1.01D-06 Max=4.21D-05 NDo=     1
 LinEq1:  Iter=  4 NonCon=     1 RMS=4.21D-07 Max=1.55D-05 NDo=     1
 LinEq1:  Iter=  5 NonCon=     1 RMS=9.36D-08 Max=2.09D-06 NDo=     1
 LinEq1:  Iter=  6 NonCon=     1 RMS=4.25D-08 Max=1.50D-06 NDo=     1
 LinEq1:  Iter=  7 NonCon=     1 RMS=1.54D-08 Max=5.08D-07 NDo=     1
 LinEq1:  Iter=  8 NonCon=     1 RMS=5.19D-09 Max=2.04D-07 NDo=     1
 LinEq1:  Iter=  9 NonCon=     0 RMS=1.55D-09 Max=3.69D-08 NDo=     1
 Linear equations converged to 9.239D-09 9.239D-08 after     9 iterations.
     Minimum is close to point  3 DX= -2.09D-02 DF= -2.27D-10 DXR=  4.37D-02 DFR=  1.92D-03 which will be used.
 LinEq1:  Iter=  0 NonCon=     1 RMS=1.03D-05 Max=2.87D-04 NDo=     1
 LinEq1:  Iter=  1 NonCon=     1 RMS=3.85D-06 Max=1.56D-04 NDo=     1
 LinEq1:  Iter=  2 NonCon=     1 RMS=1.30D-06 Max=4.41D-05 NDo=     1
 LinEq1:  Iter=  3 NonCon=     1 RMS=5.22D-07 Max=2.03D-05 NDo=     1
 LinEq1:  Iter=  4 NonCon=     1 RMS=2.19D-07 Max=7.57D-06 NDo=     1
 LinEq1:  Iter=  5 NonCon=     1 RMS=6.16D-08 Max=1.83D-06 NDo=     1
 LinEq1:  Iter=  6 NonCon=     1 RMS=2.74D-08 Max=9.01D-07 NDo=     1
 LinEq1:  Iter=  7 NonCon=     1 RMS=9.70D-09 Max=2.44D-07 NDo=     1
 LinEq1:  Iter=  8 NonCon=     1 RMS=2.99D-09 Max=8.08D-08 NDo=     1
 LinEq1:  Iter=  9 NonCon=     0 RMS=9.05D-10 Max=1.67D-08 NDo=     1
 Linear equations converged to 5.026D-09 5.026D-08 after     9 iterations.
     Accept linear search using points  1 and  2.
 LinEq1:  Iter=  0 NonCon=     1 RMS=4.21D-06 Max=1.33D-04 NDo=     1
 LinEq1:  Iter=  1 NonCon=     1 RMS=1.40D-06 Max=6.77D-05 NDo=     1
 LinEq1:  Iter=  2 NonCon=     1 RMS=4.60D-07 Max=1.57D-05 NDo=     1
 LinEq1:  Iter=  3 NonCon=     1 RMS=1.78D-07 Max=5.46D-06 NDo=     1
 LinEq1:  Iter=  4 NonCon=     1 RMS=7.73D-08 Max=1.98D-06 NDo=     1
 LinEq1:  Iter=  5 NonCon=     1 RMS=1.96D-08 Max=8.85D-07 NDo=     1
 LinEq1:  Iter=  6 NonCon=     1 RMS=7.18D-09 Max=2.13D-07 NDo=     1
 LinEq1:  Iter=  7 NonCon=     1 RMS=1.65D-09 Max=3.45D-08 NDo=     1
 LinEq1:  Iter=  8 NonCon=     1 RMS=7.41D-10 Max=2.17D-08 NDo=     1
 LinEq1:  Iter=  9 NonCon=     0 RMS=1.95D-10 Max=4.22D-09 NDo=     1
 Linear equations converged to 2.073D-09 2.073D-08 after     9 iterations.
     Accept linear search using points  1 and  2.
     Minimum is close to point  2 DX= -9.03D-02 DF= -1.10D-09 DXR=  9.93D-02 DFR=  9.95D-03 which will be used.
 LinEq1:  Iter=  0 NonCon=     1 RMS=1.25D-06 Max=2.73D-05 NDo=     1
 LinEq1:  Iter=  1 NonCon=     1 RMS=4.96D-07 Max=1.70D-05 NDo=     1
 LinEq1:  Iter=  2 NonCon=     1 RMS=1.92D-07 Max=5.36D-06 NDo=     1
 LinEq1:  Iter=  3 NonCon=     1 RMS=6.63D-08 Max=2.11D-06 NDo=     1
 LinEq1:  Iter=  4 NonCon=     1 RMS=2.21D-08 Max=7.02D-07 NDo=     1
 LinEq1:  Iter=  5 NonCon=     1 RMS=5.57D-09 Max=1.75D-07 NDo=     1
 LinEq1:  Iter=  6 NonCon=     1 RMS=2.13D-09 Max=6.22D-08 NDo=     1
 LinEq1:  Iter=  7 NonCon=     1 RMS=9.42D-10 Max=4.02D-08 NDo=     1
 LinEq1:  Iter=  8 NonCon=     1 RMS=3.22D-10 Max=1.20D-08 NDo=     1
 LinEq1:  Iter=  9 NonCon=     0 RMS=9.44D-11 Max=2.11D-09 NDo=     1
 Linear equations converged to 7.023D-10 7.023D-09 after     9 iterations.
 LinEq1:  Iter=  0 NonCon=     1 RMS=1.76D-06 Max=4.08D-05 NDo=     1
 LinEq1:  Iter=  1 NonCon=     1 RMS=6.44D-07 Max=2.87D-05 NDo=     1
 LinEq1:  Iter=  2 NonCon=     1 RMS=2.38D-07 Max=1.01D-05 NDo=     1
 LinEq1:  Iter=  3 NonCon=     1 RMS=9.53D-08 Max=4.37D-06 NDo=     1
 LinEq1:  Iter=  4 NonCon=     1 RMS=3.70D-08 Max=1.62D-06 NDo=     1
 LinEq1:  Iter=  5 NonCon=     1 RMS=1.04D-08 Max=1.68D-07 NDo=     1
 LinEq1:  Iter=  6 NonCon=     1 RMS=3.28D-09 Max=1.13D-07 NDo=     1
 LinEq1:  Iter=  7 NonCon=     1 RMS=1.45D-09 Max=2.77D-08 NDo=     1
 LinEq1:  Iter=  8 NonCon=     1 RMS=2.91D-10 Max=1.15D-08 NDo=     1
 LinEq1:  Iter=  9 NonCon=     0 RMS=1.06D-10 Max=3.41D-09 NDo=     1
 Linear equations converged to 9.390D-10 9.390D-09 after     9 iterations.
 LinEq1:  Iter=  0 NonCon=     1 RMS=3.19D-07 Max=1.02D-05 NDo=     1
 LinEq1:  Iter=  1 NonCon=     1 RMS=1.37D-07 Max=4.56D-06 NDo=     1
 LinEq1:  Iter=  2 NonCon=     1 RMS=3.39D-08 Max=7.01D-07 NDo=     1
 LinEq1:  Iter=  3 NonCon=     1 RMS=1.52D-08 Max=3.66D-07 NDo=     1
 LinEq1:  Iter=  4 NonCon=     1 RMS=5.85D-09 Max=1.86D-07 NDo=     1
 LinEq1:  Iter=  5 NonCon=     1 RMS=1.74D-09 Max=5.94D-08 NDo=     1
 LinEq1:  Iter=  6 NonCon=     1 RMS=5.97D-10 Max=1.44D-08 NDo=     1
 LinEq1:  Iter=  7 NonCon=     1 RMS=2.10D-10 Max=7.53D-09 NDo=     1
 LinEq1:  Iter=  8 NonCon=     1 RMS=8.31D-11 Max=4.34D-09 NDo=     1
 LinEq1:  Iter=  9 NonCon=     0 RMS=3.25D-11 Max=1.44D-09 NDo=     1
 Linear equations converged to 1.555D-10 1.555D-09 after     9 iterations.
 Incorrect curvature in search direction -- initial direction reversed.
     Note:  rotation exceeds Pi/2.
     Note:  rotation exceeds Pi/2.
     Note:  rotation exceeds Pi/2.
     Note:  rotation exceeds Pi/2.
     Minimum is close to point 10 DX=  0.00D+00 DF=  0.00D+00 DXR=  0.00D+00 DFR=  0.00D+00 which will be used.
 Gradient too large for Newton-Raphson -- use scaled steepest descent instead.
     Minimum is close to point  2 DX=  4.28D-02 DF= -3.41D-07 DXR=  3.45D-02 DFR=  1.19D-03 which will be used.
 LinEq1:  Iter=  0 NonCon=     1 RMS=1.11D-04 Max=6.14D-03 NDo=     1
 LinEq1:  Iter=  1 NonCon=     1 RMS=4.73D-05 Max=1.92D-03 NDo=     1
 LinEq1:  Iter=  2 NonCon=     1 RMS=1.57D-05 Max=5.33D-04 NDo=     1
 LinEq1:  Iter=  3 NonCon=     1 RMS=6.36D-06 Max=1.73D-04 NDo=     1
 LinEq1:  Iter=  4 NonCon=     1 RMS=2.24D-06 Max=8.63D-05 NDo=     1
 LinEq1:  Iter=  5 NonCon=     1 RMS=6.15D-07 Max=1.97D-05 NDo=     1
 LinEq1:  Iter=  6 NonCon=     1 RMS=2.82D-07 Max=8.21D-06 NDo=     1
 LinEq1:  Iter=  7 NonCon=     1 RMS=7.93D-08 Max=2.18D-06 NDo=     1
 LinEq1:  Iter=  8 NonCon=     1 RMS=2.57D-08 Max=6.23D-07 NDo=     1
 LinEq1:  Iter=  9 NonCon=     1 RMS=5.17D-09 Max=1.08D-07 NDo=     1
 LinEq1:  Iter= 10 NonCon=     0 RMS=1.34D-09 Max=2.81D-08 NDo=     1
 Linear equations converged to 9.829D-09 9.829D-08 after    10 iterations.
 Incorrect curvature in search direction -- initial direction reversed.
 LinEq1:  Iter=  0 NonCon=     1 RMS=1.48D-04 Max=6.49D-03 NDo=     1
 LinEq1:  Iter=  1 NonCon=     1 RMS=6.46D-05 Max=1.96D-03 NDo=     1
 LinEq1:  Iter=  2 NonCon=     1 RMS=2.52D-05 Max=8.02D-04 NDo=     1
 LinEq1:  Iter=  3 NonCon=     1 RMS=9.69D-06 Max=2.42D-04 NDo=     1
 LinEq1:  Iter=  4 NonCon=     1 RMS=3.11D-06 Max=9.43D-05 NDo=     1
 LinEq1:  Iter=  5 NonCon=     1 RMS=8.71D-07 Max=2.63D-05 NDo=     1
 LinEq1:  Iter=  6 NonCon=     1 RMS=3.48D-07 Max=8.00D-06 NDo=     1
 LinEq1:  Iter=  7 NonCon=     1 RMS=1.20D-07 Max=3.46D-06 NDo=     1
 LinEq1:  Iter=  8 NonCon=     1 RMS=3.91D-08 Max=9.10D-07 NDo=     1
 LinEq1:  Iter=  9 NonCon=     1 RMS=1.06D-08 Max=3.30D-07 NDo=     1
 LinEq1:  Iter= 10 NonCon=     1 RMS=3.43D-09 Max=1.28D-07 NDo=     1
 LinEq1:  Iter= 11 NonCon=     0 RMS=1.47D-09 Max=3.93D-08 NDo=     1
 Linear equations converged to 9.829D-09 9.829D-08 after    11 iterations.
     Accept linear search using points  1 and  2.
 LinEq1:  Iter=  0 NonCon=     1 RMS=1.32D-04 Max=2.92D-03 NDo=     1
 LinEq1:  Iter=  1 NonCon=     1 RMS=6.51D-05 Max=2.41D-03 NDo=     1
 LinEq1:  Iter=  2 NonCon=     1 RMS=2.14D-05 Max=8.79D-04 NDo=     1
 LinEq1:  Iter=  3 NonCon=     1 RMS=5.95D-06 Max=1.47D-04 NDo=     1
 LinEq1:  Iter=  4 NonCon=     1 RMS=1.86D-06 Max=4.50D-05 NDo=     1
 LinEq1:  Iter=  5 NonCon=     1 RMS=7.35D-07 Max=1.41D-05 NDo=     1
 LinEq1:  Iter=  6 NonCon=     1 RMS=3.20D-07 Max=6.48D-06 NDo=     1
 LinEq1:  Iter=  7 NonCon=     1 RMS=1.00D-07 Max=1.80D-06 NDo=     1
 LinEq1:  Iter=  8 NonCon=     1 RMS=2.59D-08 Max=6.05D-07 NDo=     1
 LinEq1:  Iter=  9 NonCon=     1 RMS=6.66D-09 Max=2.23D-07 NDo=     1
 LinEq1:  Iter= 10 NonCon=     0 RMS=2.14D-09 Max=6.47D-08 NDo=     1
 Linear equations converged to 9.829D-09 9.829D-08 after    10 iterations.
 LinEq1:  Iter=  0 NonCon=     1 RMS=6.48D-05 Max=2.07D-03 NDo=     1
 LinEq1:  Iter=  1 NonCon=     1 RMS=3.04D-05 Max=1.03D-03 NDo=     1
 LinEq1:  Iter=  2 NonCon=     1 RMS=1.13D-05 Max=3.38D-04 NDo=     1
 LinEq1:  Iter=  3 NonCon=     1 RMS=3.44D-06 Max=7.91D-05 NDo=     1
 LinEq1:  Iter=  4 NonCon=     1 RMS=1.15D-06 Max=3.34D-05 NDo=     1
 LinEq1:  Iter=  5 NonCon=     1 RMS=4.56D-07 Max=1.22D-05 NDo=     1
 LinEq1:  Iter=  6 NonCon=     1 RMS=1.87D-07 Max=4.58D-06 NDo=     1
 LinEq1:  Iter=  7 NonCon=     1 RMS=6.14D-08 Max=1.38D-06 NDo=     1
 LinEq1:  Iter=  8 NonCon=     1 RMS=1.67D-08 Max=4.51D-07 NDo=     1
 LinEq1:  Iter=  9 NonCon=     1 RMS=4.76D-09 Max=1.46D-07 NDo=     1
 LinEq1:  Iter= 10 NonCon=     0 RMS=1.32D-09 Max=3.84D-08 NDo=     1
 Linear equations converged to 9.829D-09 9.829D-08 after    10 iterations.
 LinEq1:  Iter=  0 NonCon=     1 RMS=2.84D-05 Max=9.40D-04 NDo=     1
 LinEq1:  Iter=  1 NonCon=     1 RMS=1.13D-05 Max=5.75D-04 NDo=     1
 LinEq1:  Iter=  2 NonCon=     1 RMS=3.64D-06 Max=1.45D-04 NDo=     1
 LinEq1:  Iter=  3 NonCon=     1 RMS=1.65D-06 Max=4.95D-05 NDo=     1
 LinEq1:  Iter=  4 NonCon=     1 RMS=5.46D-07 Max=1.91D-05 NDo=     1
 LinEq1:  Iter=  5 NonCon=     1 RMS=1.35D-07 Max=3.44D-06 NDo=     1
 LinEq1:  Iter=  6 NonCon=     1 RMS=5.59D-08 Max=1.99D-06 NDo=     1
 LinEq1:  Iter=  7 NonCon=     1 RMS=2.25D-08 Max=4.26D-07 NDo=     1
 LinEq1:  Iter=  8 NonCon=     1 RMS=8.37D-09 Max=1.94D-07 NDo=     1
 LinEq1:  Iter=  9 NonCon=     0 RMS=2.53D-09 Max=7.88D-08 NDo=     1
 Linear equations converged to 9.829D-09 9.829D-08 after     9 iterations.
 LinEq1:  Iter=  0 NonCon=     1 RMS=1.31D-05 Max=5.39D-04 NDo=     1
 LinEq1:  Iter=  1 NonCon=     1 RMS=5.49D-06 Max=2.19D-04 NDo=     1
[...]
 00588,0.00000733,0.00000643,-0.00001040,0.00010090,-0.00008547,-0.0003
 3377,-0.00152429,0.00072549,-0.03829243,0.02719127,0.00001733,-0.00000
 708,0.00002308,-0.00120186,0.00093208,-0.00010468,-0.00669499,0.028005
 52,-0.00548913,-0.00700081,-0.02823723,0.00298362,0.00002429,0.0000255
 3,-0.00000353,-0.03320954,0.00003049,0.00060266,-0.00139113,-0.0010437
 9,0.00010036,-0.00007601,0.00001419,0.00002146,-0.00001158,0.00000290,
 0.00000574,0.00017175,0.00002112,-0.00002824,0.00000841,-0.00002295,-0
 .00000112,-0.00000556,-0.00001016,0.00000037,-0.00012463,0.00039658,-0
 .00009813,0.00000828,-0.00000434,-0.00001451,0.00000724,-0.00000311,0.
 00000025,-0.00012894,-0.00003672,-0.00000317,-0.00001044,0.00000226,0.
 00000581,0.00000986,-0.00000245,0.00000044,0.00009210,-0.00046392,0.00
 004820,-0.00001855,-0.00000212,-0.00000386,0.00000395,-0.00000153,0.00
 000024,-0.00220086,0.00089360,-0.00062990,-0.00001162,0.00000218,0.000
 00277,-0.00230201,-0.00102858,-0.00043211,0.00001587,0.00003660,0.0000
 2318,-0.00000873,0.00000562,0.00000409,0.00002700,0.00001504,0.0000027
 1,-0.00011972,-0.00006490,-0.00001243,-0.00000569,0.00000451,-0.000001
 74,-0.00000976,0.00000163,-0.00000237,0.00000925,-0.00002427,0.0000013
 9,0.00000335,0.00000141,0.00000009,0.00000053,0.00000179,-0.00000057,0
 .00000032,0.00000190,-0.00000087,-0.00000036,0.00000306,-0.00000012,-0
 .00000098,0.00000071,-0.00000056,-0.00000003,0.00000328,-0.00000065,-0
 .00000455,0.00001146,-0.00000407,-0.00001322,-0.00001431,-0.00001301,-
 0.00088929,-0.00009606,-0.00005554,0.05594686,-0.00025549,-0.00009743,
 0.00001271,0.00075192,-0.00005407,-0.00017197,0.01476600,-0.02453215,0
 .00597491,-0.01558653,-0.02535878,0.00316241,0.00015010,-0.00018302,0.
 00002769,0.00035175,-0.21590138,0.02715590,-0.00055223,-0.00018465,-0.
 00014830,-0.00007833,-0.00001717,-0.00001050,0.00000497,-0.00001109,-0
 .00000696,0.00005813,-0.00004525,-0.00002074,-0.00002111,-0.00000151,0
 .00000889,-0.00000404,0.00003329,0.00000794,-0.00015530,-0.00044054,0.
 00021591,-0.00015942,0.00013022,0.00014261,-0.00002788,0.00002033,0.00
 000992,0.00002061,0.00024100,-0.00007227,0.00011909,0.00000026,0.00013
 030,0.00004002,0.00001423,0.00000098,0.00005473,-0.00021780,-0.0000124
 6,0.00000629,-0.00000882,-0.00000196,-0.00000587,0.00003899,-0.0000086
 3,0.00102904,-0.00040851,0.00074543,-0.00001352,-0.00005305,-0.0000210
 8,-0.00112470,-0.00029193,0.00044571,0.00001526,-0.00004160,-0.0000668
 8,-0.00002359,0.00008340,0.00001963,0.00008648,0.00003645,0.00000279,-
 0.00001112,0.00003750,-0.00001926,0.00001714,0.00000149,0.00000672,-0.
 00006574,-0.00003387,-0.00000025,-0.00003155,-0.00002460,-0.00000138,-
 0.00001614,-0.00000966,-0.00000088,-0.00000609,-0.00002532,-0.00000243
 ,0.00000156,-0.00001342,-0.00000227,0.00000372,-0.00002100,-0.00000524
 ,0.00002012,-0.00000905,-0.00000749,0.00002549,0.00000800,-0.00000539,
 0.00004431,0.00002526,-0.00000849,0.00004016,0.00010614,0.00000486,0.0
 0009147,0.00044417,-0.00001619,0.00049467,0.26619431,-0.00005199,0.000
 12976,-0.00007687,0.00019357,-0.00014704,-0.00122008,-0.00459287,0.007
 87093,0.00484110,0.00017478,0.00166104,0.00609567,-0.00004536,-0.00003
 939,-0.00001506,0.00190761,0.02695999,-0.04124380,0.00020983,-0.000300
 77,-0.00095233,-0.00000318,0.00002537,0.00000040,-0.00000820,0.0000155
 8,-0.00000532,-0.00000729,-0.00004217,0.00004798,0.00001093,-0.0000240
 5,0.00000297,-0.00000136,-0.00001374,-0.00000588,0.00016403,-0.0000332
 4,-0.00032220,-0.00001118,-0.00003433,-0.00001250,0.00000768,-0.000004
 68,-0.00000930,0.00032842,0.00013024,0.00006842,0.00002571,-0.00000981
 ,0.00005591,-0.00000686,-0.00000431,-0.00000602,-0.00002774,0.00006357
 ,-0.00019537,0.00002295,0.00000933,0.00002011,0.00000172,-0.00000831,-
 0.00000512,-0.00092621,0.00036516,0.00384943,0.00001060,0.00001389,0.0
 0000746,-0.00042504,0.00066998,0.00334524,0.00003389,-0.00011875,-0.00
 039136,0.00000286,-0.00001470,-0.00000198,0.00003372,0.00001376,-0.000
 02368,-0.00000203,-0.00003102,-0.00009455,-0.00001108,-0.00000538,0.00
 001806,0.00000475,0.00000695,0.00003309,0.00000312,0.00000162,0.000014
 70,0.00000301,0.00000157,0.00000569,0.00000029,0.00000419,0.00000314,0
 .00000012,0.00000440,0.00000607,0.00000084,0.00000416,0.00000325,-0.00
 000412,0.00000180,0.00000537,-0.00000367,-0.00000384,0.00000687,-0.000
 00693,-0.00000405,0.00001112,-0.00000383,0.00000017,0.00012180,-0.0000
 7958,-0.00002982,0.00031287,0.00321428,-0.03711683,0.02536929,0.000009
 70,-0.00000117,0.00000536,0.00001177,-0.00005860,0.00000807,0.00005051
 ,0.00000645,0.00000058,-0.00703032,0.02812361,-0.00434884,-0.00679266,
 -0.02856771,0.00137123,-0.00139632,0.00101092,-0.00013985,-0.03356730,
 0.00091492,0.00058282,-0.00000720,0.00000117,0.00000795,-0.00000539,0.
 00000362,0.00000402,0.00001372,0.00000664,-0.00000181,0.00000796,-0.00
 000104,-0.00000502,-0.00000339,-0.00000959,-0.00000060,-0.00001242,-0.
 00000123,-0.00002204,0.00000086,-0.00001415,-0.00001144,0.00000915,-0.
 00000617,-0.00000271,0.00007485,0.00049746,-0.00003973,0.00001758,0.00
 001832,-0.00000147,0.00000480,0.00000222,-0.00000069,-0.00008085,0.000
 02745,-0.00001545,-0.00000533,-0.00000365,-0.00000500,-0.00000213,0.00
 000134,-0.00000145,0.00004024,0.00000563,0.00000594,-0.00000825,0.0000
 0496,0.00000437,-0.00228759,0.00088703,-0.00077553,-0.00011239,0.00003
 145,-0.00001544,-0.00000821,0.00001122,0.00000099,-0.00239844,-0.00128
 631,-0.00068809,0.00000682,0.00000467,0.00005534,0.00000161,-0.0000029
 4,-0.00000294,0.00006408,-0.00042269,0.00006926,-0.00000112,0.00000673
 ,-0.00000362,0.00000195,0.00000218,-0.00000017,0.00000007,0.00000046,0
 .00000036,0.00000003,0.00000177,0.,-0.00000017,0.00000367,0.00000028,-
 0.00000232,0.00000122,0.00000032,-0.00000212,0.00000085,0.,-0.00000488
 ,0.00000064,-0.00000077,-0.00000741,-0.00000656,-0.00000039,-0.0000280
 0,0.00001838,-0.00000708,-0.00090565,-0.00011546,-0.00007295,0.0546875
 2,-0.00004883,-0.00001027,0.00000371,0.00003114,-0.00000649,-0.0000044
 0,-0.00023037,-0.00006991,-0.00000625,0.01467941,-0.02431019,0.0047520
 9,-0.01496077,-0.02694799,0.00158414,0.00077833,-0.00016363,-0.0000408
 1,0.00068012,-0.21827254,0.01829717,-0.00006792,-0.00000599,0.00000267
 ,-0.00001321,0.00000159,0.00000286,0.00008765,0.00001928,-0.00002874,-
 0.00000020,-0.00000174,-0.00000048,-0.00001721,0.00000548,0.00000594,-
 0.00016291,-0.00023290,0.00015524,-0.00012715,0.00007606,0.00009686,-0
 .00000051,0.00000826,0.00000083,0.00004499,-0.00019044,0.00000891,0.00
 010728,-0.00001083,0.00012709,0.00004304,0.00001307,-0.00000684,0.0001
 4228,0.00031007,-0.00000972,0.00000750,0.00000044,-0.00001182,-0.00001
 188,0.00004829,-0.00001454,0.00001349,-0.00009269,-0.00000184,-0.00003
 211,-0.00002684,-0.00000541,0.00095831,-0.00033226,0.00053470,0.000033
 70,0.00003357,-0.00001578,-0.00002292,0.00009186,0.00001926,-0.0012579
 9,-0.00020208,0.00033322,0.00000673,-0.00004505,-0.00004650,-0.0000190
 6,-0.00001727,-0.00000215,-0.00011692,-0.00024773,-0.00004220,-0.00005
 821,-0.00004293,-0.00000260,-0.00001598,-0.00001747,0.00000110,-0.0000
 0899,-0.00003349,-0.00000151,0.00000360,-0.00001703,-0.00000336,0.0000
 0425,-0.00001618,-0.00000439,0.00001671,-0.00000849,-0.00000650,0.0000
 1988,0.00000783,-0.00000390,0.00002390,0.00001598,-0.00000600,0.000025
 94,0.00003287,-0.00000436,-0.00001937,0.00010177,-0.00001217,0.0000898
 1,0.00047234,-0.00002046,-0.00020612,0.26958427,0.00000816,0.00000331,
 -0.00000988,0.00000284,0.00000464,0.00000673,-0.00001855,0.00005202,0.
 00002391,-0.00364488,0.00646250,0.00503075,-0.00042065,-0.00038570,0.0
 0628095,0.00007013,0.00006512,-0.00100775,0.00137455,0.01831523,-0.040
 12156,0.00000133,0.00000555,-0.00000984,-0.00000015,0.00000373,-0.0000
 0246,0.00000454,-0.00000071,0.00000760,0.00000395,-0.00000366,-0.00000
 072,0.00000229,-0.00000248,-0.00000311,-0.00000713,0.00001515,-0.00001
 940,-0.00001213,-0.00000098,0.00000602,-0.00000147,-0.00000214,-0.0000
 0320,-0.00001133,0.00001558,-0.00014528,-0.00000844,0.00001167,0.00000
 059,-0.00000810,-0.00000277,-0.00000255,0.00010757,0.00000599,0.000088
 34,-0.00001430,0.00003163,0.00001921,-0.00000529,-0.00000459,-0.000006
 06,0.00004122,-0.00001317,0.00001740,0.00000620,0.00000289,-0.00000116
 ,-0.00083854,0.00037361,0.00353291,0.00001348,-0.00000048,-0.00010614,
 0.00000934,-0.00000952,-0.00000672,-0.00066209,0.00056500,0.00439967,0
 .00008716,-0.00004740,-0.00049000,-0.00000208,-0.00001451,0.00003180,0
 .00006709,-0.00003579,-0.00038115,0.00000170,0.00000505,0.00003457,0.0
 0000210,0.00000196,0.00000664,0.00000065,0.00000420,0.00000048,0.00000
 040,0.00000302,0.00000534,0.00000039,0.00000283,0.00000274,-0.00000283
 ,0.00000138,0.00000304,-0.00000258,-0.00000215,0.00000312,-0.00000372,
 -0.00000248,0.00000598,-0.00000423,-0.00000404,0.00000691,-0.00000073,
 -0.00000756,0.00003044,-0.00009668,-0.00002455,0.00029447,0.00384943,-
 0.02516645,0.02345246,0.00001962,0.00000827,-0.00000037,-0.00001609,0.
 00000790,-0.00000063,-0.00001811,-0.00007508,0.00004211,-0.00178893,-0
 .00155143,-0.00057981,-0.16990152,0.07856782,-0.02182868,-0.00038599,0
 .00022221,-0.00004114,-0.04027639,0.00402232,-0.00558395,0.00003640,0.
 00001314,-0.00000148,0.00000803,-0.00000165,-0.00000332,-0.00002949,-0
 .00001802,0.00001538,0.00000235,-0.00001037,0.00000305,0.00001416,-0.0
 0000690,-0.00000538,0.00007834,0.00018471,-0.00014014,0.00011304,-0.00
 006885,-0.00008179,0.00000080,-0.00000875,-0.00000153,-0.00015468,-0.0
 0000789,0.00002779,-0.00014536,0.00003653,-0.00013241,-0.00004586,-0.0
 0001611,0.00000278,0.00007452,-0.00024235,-0.00055656,-0.00005968,0.00
 004301,0.00001674,0.00000054,-0.00004587,0.00000971,0.00004388,0.00002
 204,0.00002198,0.00003023,0.00002696,0.00000359,0.00025285,-0.00019355
 ,0.00005033,0.00005928,-0.00000782,0.00004315,0.00003118,-0.00009194,-
 0.00002037,-0.00234588,0.01205809,-0.00193030,0.00012418,-0.00008971,0
 .00005464,0.00001628,-0.00002161,0.00000415,0.00085849,-0.00018057,0.0
 0023799,0.00008740,0.00005628,-0.00000224,0.00002533,0.00001866,0.0000
 0013,0.00000963,0.00003036,0.00000163,-0.00000153,0.00001702,0.0000032
 3,-0.00000304,0.00001614,0.00000416,-0.00001510,0.00000831,0.00000594,
 -0.00001542,-0.00000507,0.00000292,-0.00001699,-0.00000891,0.00000357,
 -0.00002099,-0.00001841,0.00000244,-0.00000342,-0.00002640,0.00000256,
 0.00000329,-0.00003848,-0.00000676,-0.00034422,-0.00048701,0.00011937,
 0.21376800,-0.00002312,-0.00001104,0.00000048,-0.00001574,0.00001488,-
 0.00000583,-0.00006024,-0.00005214,-0.00001629,-0.00126541,-0.00091001
 ,0.00039161,0.07871882,-0.07891342,0.01245601,-0.00032034,0.00014460,-
 0.00007863,-0.00996400,0.00684401,-0.00127733,-0.00002001,-0.00000891,
 -0.00000088,-0.00000341,-0.00000020,0.00000101,0.00001412,0.00001030,-
 0.00000915,-0.00000388,0.00000452,-0.00000073,-0.00000644,0.00000704,0
 .00000310,-0.00004615,-0.00010335,0.00008779,-0.00006026,0.00004182,0.
 00004582,-0.00000364,0.00000645,0.00000198,0.00007982,0.00001949,-0.00
 003031,0.00007479,-0.00000717,0.00007191,0.00001703,0.00001095,0.00000
 030,-0.00044950,-0.00276653,0.00059335,-0.00000245,-0.00011734,-0.0000
 2220,-0.00000315,0.00001144,-0.00000536,-0.00002147,-0.00001216,-0.000
 01466,-0.00001295,-0.00001421,-0.00000261,-0.00018603,0.00001726,-0.00
 002252,-0.00003791,-0.00000904,-0.00002382,-0.00001335,0.00004076,0.00
 001014,0.02586832,-0.03107683,0.00619264,0.00043871,-0.00026533,0.0000
 5848,0.00002270,-0.00000694,0.00000286,0.00019285,-0.00073934,-0.00000
 749,0.00000828,0.00000941,0.00001099,-0.00000562,-0.00000443,0.0000008
 4,-0.00000202,-0.00001337,-0.00000085,0.00000073,-0.00000815,-0.000001
 55,0.00000171,-0.00000907,-0.00000216,0.00000889,-0.00000462,-0.000003
 36,0.00000954,0.00000306,-0.00000173,0.00001168,0.00000604,-0.00000206
 ,0.00001418,0.00001571,-0.00000171,0.00000326,0.00002674,-0.00000259,0
 .00000462,0.00009333,-0.00000411,-0.00087745,0.00045335,-0.00023094,-0
 .09212514,0.10727838,0.00000415,0.00000274,0.00000550,0.00000163,0.000
 00185,-0.00000077,0.00001975,-0.00005033,-0.00019329,-0.00064062,0.000
 43181,0.00469694,-0.02175191,0.01241247,-0.04394831,-0.00001752,-0.000
 00593,-0.00023577,-0.00433285,0.00034372,0.00520262,0.00000536,0.00000
 215,-0.00000754,0.00000141,0.00000177,-0.00000249,-0.00000522,-0.00000
 289,0.00000260,0.00000260,-0.00000299,0.00000036,0.00000315,-0.0000018
 6,-0.00000268,0.00000945,0.00001828,0.00000853,0.00000258,-0.00000550,
 -0.00000323,-0.00000124,-0.00000240,-0.00000246,0.00003053,-0.00004025
 ,-0.00048647,-0.00003063,0.00001041,0.00002929,-0.00000499,-0.00000508
 ,-0.00000474,-0.00063343,0.00059599,0.00489521,0.00004073,0.00001825,-
 0.00022404,0.00000249,-0.00000675,0.00000446,0.00001313,0.00001589,0.0
 0000758,0.00000606,0.00000369,-0.00000126,0.00007596,-0.00002426,0.000
 07051,0.00000720,-0.00002077,0.00000335,0.00000243,-0.00001061,-0.0000
 0758,-0.00315541,0.00455593,0.00492543,-0.00001707,0.00002397,-0.00023
 859,-0.00000281,-0.00000387,0.00000535,0.00022054,-0.00005662,-0.00106
 754,0.00000038,0.00000670,0.00009010,0.00000384,0.00000306,0.00000843,
 0.00000107,0.00000553,0.00000300,0.00000024,0.00000405,0.00000435,0.00
 000014,0.00000346,0.00000258,-0.00000327,0.00000176,0.00000273,-0.0000
 0297,-0.00000185,0.00000224,-0.00000359,-0.00000214,0.00000393,-0.0000
 0446,-0.00000340,0.00000341,-0.00000087,-0.00000571,0.00000832,-0.0000
 0354,-0.00000242,0.00008422,0.00016862,-0.00019703,-0.00099671,0.02999
 994,-0.01802375,0.02732250,-0.00084238,-0.00170658,0.00081610,-0.00040
 551,0.00023724,-0.00008023,-0.00004337,0.00086396,-0.00032567,-0.00074
 392,-0.00005433,-0.00003016,-0.00016243,-0.00042125,0.00001195,-0.0000
 4011,0.00055949,-0.00003231,0.00034529,-0.00013320,0.00002768,-0.00319
 787,0.00072383,0.00170517,-0.00140975,-0.00279438,-0.00149085,-0.00119
 999,-0.01411247,0.00491984,-0.03012467,-0.00801498,0.01470123,0.000907
 63,0.00263755,0.00029704,-0.01839553,-0.00022213,0.00074288,-0.0075545
 2,-0.00301059,0.01663735,-0.00312489,0.00164258,0.00034994,-0.00428413
 ,-0.00389590,-0.00214652,-0.04058159,-0.00367641,-0.01764862,-0.012921
 06,-0.00247094,0.00047126,0.00089096,0.00059705,0.00002742,-0.00223112
 ,0.00514002,0.00088665,0.00296940,-0.00309818,0.00279901,0.00141316,0.
 01367101,-0.00436317,0.00513128,0.02496078,0.00694596,-0.00321808,0.00
 099658,-0.00033863,-0.04684436,0.01353427,-0.01952906,0.00539776,-0.03
 736674,-0.01886726,-0.00031764,0.00052555,-0.00011357,-0.00002014,-0.0
 0068496,0.00012600,-0.00232256,-0.00099079,-0.00014630,-0.00005507,-0.
 00001839,-0.00001554,-0.00015773,0.00000288,-0.00008856,-0.00022726,-0
 .00012605,-0.00043892,-0.00010884,-0.00036518,-0.00017904,0.00007221,-
 0.00019621,0.00101326,-0.00004532,0.00010766,0.00010940,0.00005643,-0.
 00007796,0.00030146,-0.00035524,0.00011803,0.00003109,-0.00065008,-0.0
 0032842,0.00039463,0.00010596,-0.00028357,-0.00001109,-0.00001859,0.00
 000392,0.00001493,-0.00000555,0.00010694,-0.00005778,0.00000647,0.0000
 8263,-0.00000745,-0.00006284,0.00003147,-0.00000892,0.16444688,-0.0014
 5815,-0.00116208,-0.00148961,-0.00040958,-0.00079486,0.00010570,0.0032
 2072,-0.00069700,-0.00021414,-0.00002404,0.00096942,-0.00005872,-0.000
 49823,-0.00041334,-0.00001703,-0.00080320,-0.00012109,-0.00004947,0.00
 070270,0.00007225,0.00003435,0.00054044,-0.00391037,0.00075846,-0.0013
 8598,0.00099913,0.00179179,-0.02198534,-0.01711113,0.01052576,0.001483
 68,0.00963975,-0.00041960,-0.00038638,-0.00106734,-0.00018492,0.005418
 90,-0.01292207,0.02418766,-0.00449184,-0.01897910,-0.01040578,0.001355
 96,-0.00181147,-0.00083594,-0.00315020,-0.00337284,0.00083767,-0.00813
 106,-0.03720549,-0.01242068,-0.00250578,-0.00287261,-0.00198750,0.0004
 4905,-0.00124838,0.00009248,0.00321177,0.00271133,0.00247423,-0.003575
 66,-0.00262089,-0.00104323,0.02155786,-0.02271643,0.00898051,0.0127989
 7,-0.01916924,-0.01167084,0.00177580,-0.00185630,0.00107441,-0.0090444
 7,0.01315092,-0.00659360,-0.01163062,-0.02713325,-0.01387683,-0.000562
 66,0.00041829,-0.00016681,-0.00070327,0.00172207,0.00002755,0.00123170
 ,-0.00231903,-0.00008788,-0.00004295,0.00000496,0.00000651,-0.00004553
 ,-0.00006363,-0.00012680,-0.00007758,-0.00005307,-0.00009271,-0.000409
 13,-0.00033345,0.00004658,0.00010218,-0.00116793,-0.00027989,0.0003096
 4,-0.00028874,0.00001052,0.00005455,-0.00004789,-0.00015603,0.00002305
 ,0.00022103,-0.00000592,-0.00028931,-0.00026195,0.00015634,-0.00009607
 ,-0.00022187,0.00011652,-0.00002299,0.00003193,0.00031297,0.00006478,0
 .00000104,0.00005659,-0.00000445,0.00004627,0.00001073,-0.00000984,-0.
 00000113,0.00001235,0.01737403,0.15208659,0.00129037,0.00022053,0.0014
 7669,-0.00032587,0.00075441,-0.00002704,-0.00024742,-0.00073602,0.0022
 1654,-0.00016827,0.00020525,-0.00000315,-0.00035673,-0.00014736,-0.000
 01867,-0.00051784,0.00093617,-0.00023238,0.00013073,0.00019169,0.00002
 981,0.00188975,0.00127156,-0.00079910,0.00022534,0.00135314,0.00250225
 ,0.00528376,0.01223512,0.00091237,0.01700364,-0.00044669,-0.00169280,0
 .00032085,-0.00094988,-0.00014423,0.00122877,-0.00397245,-0.03473839,-
 0.00711006,0.00323835,-0.03900022,-0.00033539,-0.00090977,0.00174090,-
 0.00266995,-0.00240705,-0.00091858,0.00505451,0.00074457,-0.05440940,-
 0.00626114,-0.00143259,-0.00021521,0.00066613,-0.00029082,0.00012814,0
 .00059266,0.00408817,0.00241473,-0.00042481,-0.00242916,0.00084040,-0.
 00446164,0.01457287,0.00164693,0.01207421,-0.01515081,-0.00133792,-0.0
 0110645,-0.00001730,-0.00004893,-0.02793867,0.00588859,-0.00086234,-0.
 00431080,-0.02558826,-0.00093191,-0.00054634,0.00037816,-0.00006203,-0
 .00065952,0.00000139,-0.00035686,-0.00044860,-0.00216488,0.00002012,0.
 00024470,0.00011396,0.00001676,0.00027132,0.00021755,0.00001688,0.0003
 6279,0.00025984,-0.00009032,-0.00030645,0.00022439,-0.00002782,0.00009
 684,0.00023254,-0.00010056,0.00022542,0.00032940,0.00004978,-0.0006531
 5,0.00038836,-0.00010732,-0.00020634,-0.00032523,-0.00011929,-0.000389
 31,-0.00025031,-0.00005274,-0.00037119,0.00004338,-0.00011178,-0.00002
 201,-0.00057772,-0.00014488,-0.00004071,-0.00032183,-0.00004491,0.0000
 2830,-0.00026286,0.00002167,0.00023941,-0.00013837,0.00002955,0.012778
 64,0.01058653,0.12252781||-0.00000171,-0.00001305,-0.00002570,-0.00001
 536,-0.00000643,-0.00002495,0.00001682,0.00004983,-0.00000621,-0.00004
 035,0.00002455,-0.00004505,0.00000927,-0.00000647,-0.00002104,0.000008
 47,-0.00005620,0.00001607,0.00005196,-0.00002286,0.00002845,-0.0000199
 3,-0.00007522,0.00002500,0.00002536,-0.00002571,-0.00000264,0.00000321
 ,0.00003895,-0.00000780,0.00000130,0.00009761,-0.00002802,0.00000861,-
 0.00002527,0.00003478,0.00006351,-0.00011798,0.00000825,0.00009770,-0.
 00001820,-0.00005790,0.00005486,-0.00002405,-0.00004949,-0.00000598,0.
 00002012,-0.00000851,-0.00013945,-0.00013574,-0.00023610,0.00005320,0.
 00001135,-0.00000576,0.00002894,-0.00006249,0.00001517,-0.00002347,-0.
 00002203,0.00000878,-0.00004086,-0.00000993,-0.00001226,-0.00004485,-0
 .00002387,0.00003041,-0.00009347,-0.00004466,0.00000170,0.00002585,-0.
 00002460,0.00001891,-0.00001293,0.00004640,0.00005238,-0.00000371,0.00
 000606,0.00004065,-0.00001812,0.00007451,-0.00001075,-0.00000613,0.000
 05373,-0.00002955,0.00002014,-0.00000520,-0.00001073,0.00000505,-0.000
 03227,0.00001541,0.00000592,-0.00000352,0.00000958,0.00001591,0.000014
 30,0.00000523,-0.00000629,0.00000115,-0.00000181,-0.00001299,-0.000004
 52,0.00000992,0.00001215,0.00000454,0.00001024,-0.00000122,-0.00001118
 ,-0.00001984,0.00000522,0.00001839,-0.00000101,0.00001495,0.00001700,-
 0.00000348,-0.00000011,0.00000843,0.00001460,-0.00000553,-0.00000162,0
 .00001681,-0.00000227,0.00001527,0.00000457,-0.00002414,0.00000387,0.0
 0000188,-0.00000035,-0.00000361,0.00000425,-0.00000914,0.00027062,0.00
 023556|||@


  THE LARGE PRINT GIVETH,
  AND THE SMALL PRINT TAKETH AWAY.

                     -- TOM WAITS
 Job cpu time:       0 days  0 hours  0 minutes 13.0 seconds.
 File lengths (MBytes):  RWF=    755 Int=      0 D2E=      0 Chk=      5 Scr=      1
 Normal termination of Gaussian 09 at Sun Mar 15 21:20:08 2026.
