 Entering Link 1 = C:\Gaussian\G09W\l1.exe PID=     29628.
  
 Copyright (c) 1988,1990,1992,1993,1995,1998,2003,2009,2013,
            Gaussian, Inc.  All Rights Reserved.
  
 This is part of the Gaussian(R) 09 program.  It is based on
 the Gaussian(R) 03 system (copyright 2003, Gaussian, Inc.),
 the Gaussian(R) 98 system (copyright 1998, Gaussian, Inc.),
 the Gaussian(R) 94 system (copyright 1995, Gaussian, Inc.),
 the Gaussian 92(TM) system (copyright 1992, Gaussian, Inc.),
 the Gaussian 90(TM) system (copyright 1990, Gaussian, Inc.),
 the Gaussian 88(TM) system (copyright 1988, Gaussian, Inc.),
 the Gaussian 86(TM) system (copyright 1986, Carnegie Mellon
 University), and the Gaussian 82(TM) system (copyright 1983,
 Carnegie Mellon University). Gaussian is a federally registered
 trademark of Gaussian, Inc.
  
 This software contains proprietary and confidential information,
 including trade secrets, belonging to Gaussian, Inc.
  
 This software is provided under written license and may be
 used, copied, transmitted, or stored only in accord with that
 written license.
  
 The following legend is applicable only to US Government
 contracts under FAR:
  
                    RESTRICTED RIGHTS LEGEND
  
 Use, reproduction and disclosure by the US Government is
 subject to restrictions as set forth in subparagraphs (a)
 and (c) of the Commercial Computer Software - Restricted
 Rights clause in FAR 52.227-19.
  
 Gaussian, Inc.
 340 Quinnipiac St., Bldg. 40, Wallingford CT 06492
  
  
 ---------------------------------------------------------------
 Warning -- This program may not be used in any manner that
 competes with the business of Gaussian, Inc. or will provide
 assistance to any competitor of Gaussian, Inc.  The licensee
 of this program is prohibited from giving any competitor of
 Gaussian, Inc. access to this program.  By using this program,
 the user acknowledges that Gaussian, Inc. is engaged in the
 business of creating and licensing software in the field of
 computational chemistry and represents and warrants to the
 licensee that it is not a competitor of Gaussian, Inc. and that
 it will not use this program in any manner prohibited above.
 ---------------------------------------------------------------
  

 Cite this work as:
 Gaussian 09, Revision D.01,
 M. J. Frisch, G. W. Trucks, H. B. Schlegel, G. E. Scuseria, 
 M. A. Robb, J. R. Cheeseman, G. Scalmani, V. Barone, B. Mennucci, 
 G. A. Petersson, H. Nakatsuji, M. Caricato, X. Li, H. P. Hratchian, 
 A. F. Izmaylov, J. Bloino, G. Zheng, J. L. Sonnenberg, M. Hada, 
 M. Ehara, K. Toyota, R. Fukuda, J. Hasegawa, M. Ishida, T. Nakajima, 
 Y. Honda, O. Kitao, H. Nakai, T. Vreven, J. A. Montgomery, Jr., 
 J. E. Peralta, F. Ogliaro, M. Bearpark, J. J. Heyd, E. Brothers, 
 K. N. Kudin, V. N. Staroverov, T. Keith, R. Kobayashi, J. Normand, 
 K. Raghavachari, A. Rendell, J. C. Burant, S. S. Iyengar, J. Tomasi, 
 M. Cossi, N. Rega, J. M. Millam, M. Klene, J. E. Knox, J. B. Cross, 
 V. Bakken, C. Adamo, J. Jaramillo, R. Gomperts, R. E. Stratmann, 
 O. Yazyev, A. J. Austin, R. Cammi, C. Pomelli, J. W. Ochterski, 
 R. L. Martin, K. Morokuma, V. G. Zakrzewski, G. A. Voth, 
 P. Salvador, J. J. Dannenberg, S. Dapprich, A. D. Daniels, 
 O. Farkas, J. B. Foresman, J. V. Ortiz, J. Cioslowski, 
 and D. J. Fox, Gaussian, Inc., Wallingford CT, 2013.
 
 ******************************************
 Gaussian 09:  IA32W-G09RevD.01 24-Apr-2013
                12-Mar-2026 
 ******************************************
 %chk=C:\Users\User\Desktop\IMRG\ECE+ML\Mn_Gr_NS_CO.chk
 ---------------------------------------
 # opt freq pm6 scf=qc geom=connectivity
 ---------------------------------------
 1/14=-1,18=20,19=15,26=1,38=1,57=2/1,3;
 2/9=110,12=2,17=6,18=5,40=1/2;
 3/5=2,16=1,25=1,41=3900000,71=1/1,2,3;
 4/35=1/1;
 5/5=2,8=3,35=1,38=5/8;
 6/7=2,8=2,9=2,10=2,28=1/1;
 7//1,2,3,16;
 1/14=-1,18=20,19=15,26=1/3(2);
 2/9=110/2;
 99//99;
 2/9=110/2;
 3/5=2,16=1,25=1,41=3900000,71=1,135=20/1,2,3;
 4/5=5,16=3,35=1/1;
 5/5=2,8=3,35=1,38=5/8;
 7//1,2,3,16;
 1/14=-1,18=20,19=15,26=1/3(-5);
 2/9=110/2;
 6/7=2,8=2,9=2,10=2,19=2,28=1/1;
 99/9=1/99;
 -----------
 Mn_Gr_NS_CO
 -----------
 Symbolic Z-matrix:
 Charge =  0 Multiplicity = 2
 C                    -1.48734   1.25527   0. 
 C                    -0.11458   1.26757   0.00021 
 C                     0.63784   2.49562   0.00024 
 C                     2.76155   3.73782  -0.0001 
 C                     4.87637   4.98541  -0.00058 
 C                     2.0603    2.51615  -0.00001 
 C                     4.19236   3.77104  -0.00038 
 C                    -3.68033   2.52318  -0.00036 
 C                    -5.85442   3.76459  -0.00032 
 C                    -2.22717   2.49171  -0.00016 
 C                    -4.4314    3.73294  -0.00038 
 C                    -6.52317   4.98925  -0.00022 
 C                    -1.49723   3.66543   0.00004 
 C                    -3.77063   4.98776  -0.00006 
 C                    -5.83173   6.21539  -0.00016 
 C                     0.61876   4.98443   0.00024 
 C                    -1.48853   6.30241   0.00019 
 C                    -3.64606   7.47395  -0.00004 
 C                     2.76334   6.23383  -0.00007 
 C                     0.64426   7.4887    0.0001 
 C                    -1.48605   8.7395   -0.00011 
 C                    -0.07268   3.72258   0.00025 
 C                    -4.42338   6.2256   -0.00018 
 C                     2.03942   4.98572   0.00009 
 C                    -0.08682   6.24592   0.00026 
 C                    -2.24783   7.50962   0.00012 
 C                     4.18329   6.20584  -0.00024 
 C                     2.05117   7.46407  -0.0001 
 C                    -0.10808   8.71832  -0.00011 
 H                     4.73683   7.14171  -0.00013 
 H                     2.60821   8.39816  -0.00027 
 H                     0.45062   9.65387  -0.00038 
 H                    -2.02415   9.68484  -0.0001 
 H                    -4.21082   8.4023   -0.00019 
 H                    -6.39162   7.1481   -0.0001 
 H                    -7.61353   5.00188  -0.00006 
 H                    -6.41745   2.83421  -0.00027 
 H                    -4.20834   1.57407  -0.00036 
 H                    -2.035     0.31468   0.00008 
 H                     0.44259   0.33017   0.00001 
 H                     2.60785   1.57708  -0.00018 
 H                     4.74181   2.8329   -0.00058 
 H                     5.96597   4.99136  -0.0008 
 Mn                   -2.25175   4.98582   0.00002 
 C                    -0.84666   5.08415  -0.00006 
 O                    -0.84666   5.08415   1.13956 
 
 Add virtual bond connecting atoms C45        and C16        Dist= 2.78D+00.
 Add virtual bond connecting atoms C45        and C17        Dist= 2.60D+00.
 Add virtual bond connecting atoms C45        and C25        Dist= 2.62D+00.
 Add virtual bond connecting atoms C45        and Mn44       Dist= 2.66D+00.

 GradGradGradGradGradGradGradGradGradGradGradGradGradGradGradGradGradGrad
 Berny optimization.
 Initialization pass.
                           ----------------------------
                           !    Initial Parameters    !
                           ! (Angstroms and Degrees)  !
 --------------------------                            --------------------------
 ! Name  Definition              Value          Derivative Info.                !
 --------------------------------------------------------------------------------
 ! R1    R(1,2)                  1.3728         estimate D2E/DX2                !
 ! R2    R(1,10)                 1.4409         estimate D2E/DX2                !
 ! R3    R(1,39)                 1.0884         estimate D2E/DX2                !
 ! R4    R(2,3)                  1.4402         estimate D2E/DX2                !
 ! R5    R(2,40)                 1.0905         estimate D2E/DX2                !
 ! R6    R(3,6)                  1.4226         estimate D2E/DX2                !
 ! R7    R(3,22)                 1.4178         estimate D2E/DX2                !
 ! R8    R(4,6)                  1.4086         estimate D2E/DX2                !
 ! R9    R(4,7)                  1.4312         estimate D2E/DX2                !
 ! R10   R(4,24)                 1.4418         estimate D2E/DX2                !
 ! R11   R(5,7)                  1.3938         estimate D2E/DX2                !
 ! R12   R(5,27)                 1.4035         estimate D2E/DX2                !
 ! R13   R(5,43)                 1.0896         estimate D2E/DX2                !
 ! R14   R(6,41)                 1.087          estimate D2E/DX2                !
 ! R15   R(7,42)                 1.0872         estimate D2E/DX2                !
 ! R16   R(8,10)                 1.4535         estimate D2E/DX2                !
 ! R17   R(8,11)                 1.4239         estimate D2E/DX2                !
 ! R18   R(8,38)                 1.0861         estimate D2E/DX2                !
 ! R19   R(9,11)                 1.4234         estimate D2E/DX2                !
 ! R20   R(9,12)                 1.3954         estimate D2E/DX2                !
 ! R21   R(9,37)                 1.0875         estimate D2E/DX2                !
 ! R22   R(10,13)                1.3822         estimate D2E/DX2                !
 ! R23   R(11,14)                1.4182         estimate D2E/DX2                !
 ! R24   R(12,15)                1.4077         estimate D2E/DX2                !
 ! R25   R(12,36)                1.0904         estimate D2E/DX2                !
 ! R26   R(13,22)                1.4257         estimate D2E/DX2                !
 ! R27   R(13,44)                1.5208         estimate D2E/DX2                !
 ! R28   R(14,23)                1.3994         estimate D2E/DX2                !
 ! R29   R(14,44)                1.5189         estimate D2E/DX2                !
 ! R30   R(15,23)                1.4084         estimate D2E/DX2                !
 ! R31   R(15,35)                1.0879         estimate D2E/DX2                !
 ! R32   R(16,22)                1.4389         estimate D2E/DX2                !
 ! R33   R(16,24)                1.4207         estimate D2E/DX2                !
 ! R34   R(16,25)                1.4454         estimate D2E/DX2                !
 ! R35   R(16,45)                1.4688         estimate D2E/DX2                !
 ! R36   R(17,25)                1.4028         estimate D2E/DX2                !
 ! R37   R(17,26)                1.4261         estimate D2E/DX2                !
 ! R38   R(17,44)                1.5218         estimate D2E/DX2                !
 ! R39   R(17,45)                1.377          estimate D2E/DX2                !
 ! R40   R(18,23)                1.4706         estimate D2E/DX2                !
 ! R41   R(18,26)                1.3987         estimate D2E/DX2                !
 ! R42   R(18,34)                1.0866         estimate D2E/DX2                !
 ! R43   R(19,24)                1.4429         estimate D2E/DX2                !
 ! R44   R(19,27)                1.4202         estimate D2E/DX2                !
 ! R45   R(19,28)                1.4215         estimate D2E/DX2                !
 ! R46   R(20,25)                1.4419         estimate D2E/DX2                !
 ! R47   R(20,28)                1.4071         estimate D2E/DX2                !
 ! R48   R(20,29)                1.4415         estimate D2E/DX2                !
 ! R49   R(21,26)                1.4467         estimate D2E/DX2                !
 ! R50   R(21,29)                1.3781         estimate D2E/DX2                !
 ! R51   R(21,33)                1.0878         estimate D2E/DX2                !
 ! R52   R(25,45)                1.3882         estimate D2E/DX2                !
 ! R53   R(27,30)                1.0873         estimate D2E/DX2                !
 ! R54   R(28,31)                1.0876         estimate D2E/DX2                !
 ! R55   R(29,32)                1.0897         estimate D2E/DX2                !
 ! R56   R(44,45)                1.4085         estimate D2E/DX2                !
 ! R57   R(45,46)                1.1396         estimate D2E/DX2                !
 ! A1    A(2,1,10)             120.3811         estimate D2E/DX2                !
 ! A2    A(2,1,39)             120.7234         estimate D2E/DX2                !
 ! A3    A(10,1,39)            118.8954         estimate D2E/DX2                !
 ! A4    A(1,2,3)              122.0091         estimate D2E/DX2                !
 ! A5    A(1,2,40)             120.2126         estimate D2E/DX2                !
 ! A6    A(3,2,40)             117.7783         estimate D2E/DX2                !
 ! A7    A(2,3,6)              122.323          estimate D2E/DX2                !
 ! A8    A(2,3,22)             118.4295         estimate D2E/DX2                !
 ! A9    A(6,3,22)             119.2474         estimate D2E/DX2                !
 ! A10   A(6,4,7)              121.1867         estimate D2E/DX2                !
 ! A11   A(6,4,24)             120.0864         estimate D2E/DX2                !
 ! A12   A(7,4,24)             118.7269         estimate D2E/DX2                !
 ! A13   A(7,5,27)             121.017          estimate D2E/DX2                !
 ! A14   A(7,5,43)             119.7036         estimate D2E/DX2                !
 ! A15   A(27,5,43)            119.2794         estimate D2E/DX2                !
 ! A16   A(3,6,4)              120.6839         estimate D2E/DX2                !
 ! A17   A(3,6,41)             119.4183         estimate D2E/DX2                !
 ! A18   A(4,6,41)             119.8978         estimate D2E/DX2                !
 ! A19   A(4,7,5)              120.7208         estimate D2E/DX2                !
 ! A20   A(4,7,42)             119.0266         estimate D2E/DX2                !
 ! A21   A(5,7,42)             120.2526         estimate D2E/DX2                !
 ! A22   A(10,8,11)            123.0746         estimate D2E/DX2                !
 ! A23   A(10,8,38)            117.8469         estimate D2E/DX2                !
 ! A24   A(11,8,38)            119.0785         estimate D2E/DX2                !
 ! A25   A(11,9,12)            119.9113         estimate D2E/DX2                !
 ! A26   A(11,9,37)            119.9067         estimate D2E/DX2                !
 ! A27   A(12,9,37)            120.182          estimate D2E/DX2                !
 ! A28   A(1,10,8)             122.1353         estimate D2E/DX2                !
 ! A29   A(1,10,13)            117.2279         estimate D2E/DX2                !
 ! A30   A(8,10,13)            120.6368         estimate D2E/DX2                !
 ! A31   A(8,11,9)             123.1078         estimate D2E/DX2                !
 ! A32   A(8,11,14)            120.3955         estimate D2E/DX2                !
 ! A33   A(9,11,14)            116.4967         estimate D2E/DX2                !
 ! A34   A(9,12,15)            121.9432         estimate D2E/DX2                !
 ! A35   A(9,12,36)            119.3009         estimate D2E/DX2                !
 ! A36   A(15,12,36)           118.7559         estimate D2E/DX2                !
 ! A37   A(10,13,22)           124.1752         estimate D2E/DX2                !
 ! A38   A(10,13,44)           118.3771         estimate D2E/DX2                !
 ! A39   A(22,13,44)           117.4477         estimate D2E/DX2                !
 ! A40   A(11,14,23)           124.4256         estimate D2E/DX2                !
 ! A41   A(11,14,44)           117.6975         estimate D2E/DX2                !
 ! A42   A(23,14,44)           117.8769         estimate D2E/DX2                !
 ! A43   A(12,15,23)           119.8349         estimate D2E/DX2                !
 ! A44   A(12,15,35)           119.6049         estimate D2E/DX2                !
 ! A45   A(23,15,35)           120.5602         estimate D2E/DX2                !
 ! A46   A(22,16,24)           118.7733         estimate D2E/DX2                !
 ! A47   A(22,16,25)           122.0594         estimate D2E/DX2                !
 ! A48   A(22,16,45)            65.1717         estimate D2E/DX2                !
 ! A49   A(24,16,25)           119.1674         estimate D2E/DX2                !
 ! A50   A(25,17,26)           124.4765         estimate D2E/DX2                !
 ! A51   A(25,17,44)           117.7927         estimate D2E/DX2                !
 ! A52   A(26,17,44)           117.7308         estimate D2E/DX2                !
 ! A53   A(23,18,26)           123.3713         estimate D2E/DX2                !
 ! A54   A(23,18,34)           116.7761         estimate D2E/DX2                !
 ! A55   A(26,18,34)           119.8525         estimate D2E/DX2                !
 ! A56   A(24,19,27)           118.9848         estimate D2E/DX2                !
 ! A57   A(24,19,28)           119.8195         estimate D2E/DX2                !
 ! A58   A(27,19,28)           121.1957         estimate D2E/DX2                !
 ! A59   A(25,20,28)           119.4641         estimate D2E/DX2                !
 ! A60   A(25,20,29)           118.073          estimate D2E/DX2                !
 ! A61   A(28,20,29)           122.4629         estimate D2E/DX2                !
 ! A62   A(26,21,29)           120.8936         estimate D2E/DX2                !
 ! A63   A(26,21,33)           118.5771         estimate D2E/DX2                !
 ! A64   A(29,21,33)           120.5293         estimate D2E/DX2                !
 ! A65   A(3,22,13)            117.777          estimate D2E/DX2                !
 ! A66   A(3,22,16)            121.2041         estimate D2E/DX2                !
 ! A67   A(13,22,16)           121.0189         estimate D2E/DX2                !
 ! A68   A(14,23,15)           117.3883         estimate D2E/DX2                !
 ! A69   A(14,23,18)           120.2865         estimate D2E/DX2                !
 ! A70   A(15,23,18)           122.3252         estimate D2E/DX2                !
 ! A71   A(4,24,16)            120.005          estimate D2E/DX2                !
 ! A72   A(4,24,19)            119.8289         estimate D2E/DX2                !
 ! A73   A(16,24,19)           120.1662         estimate D2E/DX2                !
 ! A74   A(16,25,17)           121.5273         estimate D2E/DX2                !
 ! A75   A(16,25,20)           120.3138         estimate D2E/DX2                !
 ! A76   A(17,25,20)           118.159          estimate D2E/DX2                !
 ! A77   A(17,26,18)           120.707          estimate D2E/DX2                !
 ! A78   A(17,26,21)           116.0575         estimate D2E/DX2                !
 ! A79   A(18,26,21)           123.2355         estimate D2E/DX2                !
 ! A80   A(5,27,19)            120.7216         estimate D2E/DX2                !
 ! A81   A(5,27,30)            119.8045         estimate D2E/DX2                !
 ! A82   A(19,27,30)           119.4739         estimate D2E/DX2                !
 ! A83   A(19,28,20)           121.0692         estimate D2E/DX2                !
 ! A84   A(19,28,31)           119.1239         estimate D2E/DX2                !
 ! A85   A(20,28,31)           119.8069         estimate D2E/DX2                !
 ! A86   A(20,29,21)           122.3405         estimate D2E/DX2                !
 ! A87   A(20,29,32)           117.6945         estimate D2E/DX2                !
 ! A88   A(21,29,32)           119.965          estimate D2E/DX2                !
 ! A89   A(13,44,14)           119.8184         estimate D2E/DX2                !
 ! A90   A(13,44,17)           120.1541         estimate D2E/DX2                !
 ! A91   A(13,44,45)            64.2578         estimate D2E/DX2                !
 ! A92   A(14,44,17)           120.0275         estimate D2E/DX2                !
 ! A93   A(16,45,17)           121.6764         estimate D2E/DX2                !
 ! A94   A(16,45,46)            89.988          estimate D2E/DX2                !
 ! A95   A(17,45,46)            89.9895         estimate D2E/DX2                !
 ! A96   A(25,45,44)           127.1892         estimate D2E/DX2                !
 ! A97   A(25,45,46)            89.9865         estimate D2E/DX2                !
 ! A98   A(44,45,46)            89.9967         estimate D2E/DX2                !
 ! A99   L(24,16,45,22,-1)     183.9449         estimate D2E/DX2                !
 ! A100  L(26,17,45,9,-1)      175.6149         estimate D2E/DX2                !
 ! A101  L(20,25,45,4,-1)      182.7193         estimate D2E/DX2                !
 ! A102  L(14,44,45,13,-1)     184.0762         estimate D2E/DX2                !
 ! A103  L(16,45,44,46,-1)     179.9847         estimate D2E/DX2                !
 ! A104  L(24,16,45,22,-2)     180.0203         estimate D2E/DX2                !
 ! A105  L(26,17,45,9,-2)      179.9873         estimate D2E/DX2                !
 ! A106  L(20,25,45,4,-2)      180.0206         estimate D2E/DX2                !
 ! A107  L(14,44,45,13,-2)     179.9929         estimate D2E/DX2                !
 ! A108  L(16,45,44,46,-2)     187.896          estimate D2E/DX2                !
 ! D1    D(10,1,2,3)            -0.0025         estimate D2E/DX2                !
 ! D2    D(10,1,2,40)         -179.9806         estimate D2E/DX2                !
 ! D3    D(39,1,2,3)          -179.9941         estimate D2E/DX2                !
 ! D4    D(39,1,2,40)            0.0278         estimate D2E/DX2                !
 ! D5    D(2,1,10,8)          -179.9988         estimate D2E/DX2                !
 ! D6    D(2,1,10,13)           -0.0059         estimate D2E/DX2                !
 ! D7    D(39,1,10,8)           -0.0071         estimate D2E/DX2                !
 ! D8    D(39,1,10,13)         179.9859         estimate D2E/DX2                !
 ! D9    D(1,2,3,6)           -179.9775         estimate D2E/DX2                !
 ! D10   D(1,2,3,22)             0.0102         estimate D2E/DX2                !
 ! D11   D(40,2,3,6)             0.0012         estimate D2E/DX2                !
 ! D12   D(40,2,3,22)          179.9889         estimate D2E/DX2                !
 ! D13   D(2,3,6,4)            179.9947         estimate D2E/DX2                !
 ! D14   D(2,3,6,41)            -0.0032         estimate D2E/DX2                !
 ! D15   D(22,3,6,4)             0.0071         estimate D2E/DX2                !
 ! D16   D(22,3,6,41)         -179.9908         estimate D2E/DX2                !
 ! D17   D(2,3,22,13)           -0.0093         estimate D2E/DX2                !
 ! D18   D(2,3,22,16)         -179.9984         estimate D2E/DX2                !
 ! D19   D(6,3,22,13)          179.9788         estimate D2E/DX2                !
 ! D20   D(6,3,22,16)           -0.0104         estimate D2E/DX2                !
 ! D21   D(7,4,6,3)           -179.9983         estimate D2E/DX2                !
 ! D22   D(7,4,6,41)            -0.0004         estimate D2E/DX2                !
 ! D23   D(24,4,6,3)             0.0005         estimate D2E/DX2                !
 ! D24   D(24,4,6,41)          179.9984         estimate D2E/DX2                !
 ! D25   D(6,4,7,5)            179.9946         estimate D2E/DX2                !
 ! D26   D(6,4,7,42)             0.0023         estimate D2E/DX2                !
 ! D27   D(24,4,7,5)            -0.0043         estimate D2E/DX2                !
 ! D28   D(24,4,7,42)         -179.9966         estimate D2E/DX2                !
 ! D29   D(6,4,24,16)           -0.0051         estimate D2E/DX2                !
 ! D30   D(6,4,24,19)         -179.9968         estimate D2E/DX2                !
 ! D31   D(7,4,24,16)          179.9938         estimate D2E/DX2                !
 ! D32   D(7,4,24,19)            0.0021         estimate D2E/DX2                !
 ! D33   D(27,5,7,4)             0.0119         estimate D2E/DX2                !
 ! D34   D(27,5,7,42)         -179.9959         estimate D2E/DX2                !
 ! D35   D(43,5,7,4)          -179.9999         estimate D2E/DX2                !
 ! D36   D(43,5,7,42)           -0.0077         estimate D2E/DX2                !
 ! D37   D(7,5,27,19)           -0.0173         estimate D2E/DX2                !
 ! D38   D(7,5,27,30)          179.9838         estimate D2E/DX2                !
 ! D39   D(43,5,27,19)         179.9944         estimate D2E/DX2                !
 ! D40   D(43,5,27,30)          -0.0044         estimate D2E/DX2                !
 ! D41   D(11,8,10,1)          179.9932         estimate D2E/DX2                !
 ! D42   D(11,8,10,13)           0.0005         estimate D2E/DX2                !
 ! D43   D(38,8,10,1)            0.002          estimate D2E/DX2                !
 ! D44   D(38,8,10,13)        -179.9907         estimate D2E/DX2                !
 ! D45   D(10,8,11,9)         -179.9875         estimate D2E/DX2                !
 ! D46   D(10,8,11,14)          -0.0059         estimate D2E/DX2                !
 ! D47   D(38,8,11,9)            0.0036         estimate D2E/DX2                !
 ! D48   D(38,8,11,14)         179.9852         estimate D2E/DX2                !
 ! D49   D(12,9,11,8)          179.9943         estimate D2E/DX2                !
 ! D50   D(12,9,11,14)           0.012          estimate D2E/DX2                !
 ! D51   D(37,9,11,8)           -0.0011         estimate D2E/DX2                !
 ! D52   D(37,9,11,14)        -179.9834         estimate D2E/DX2                !
 ! D53   D(11,9,12,15)          -0.0008         estimate D2E/DX2                !
 ! D54   D(11,9,12,36)        -179.9935         estimate D2E/DX2                !
 ! D55   D(37,9,12,15)         179.9946         estimate D2E/DX2                !
 ! D56   D(37,9,12,36)           0.0019         estimate D2E/DX2                !
 ! D57   D(1,10,13,22)           0.0067         estimate D2E/DX2                !
 ! D58   D(1,10,13,44)        -179.9942         estimate D2E/DX2                !
 ! D59   D(8,10,13,22)         179.9997         estimate D2E/DX2                !
 ! D60   D(8,10,13,44)          -0.0012         estimate D2E/DX2                !
 ! D61   D(8,11,14,23)         179.9937         estimate D2E/DX2                !
 ! D62   D(8,11,14,44)           0.0113         estimate D2E/DX2                !
 ! D63   D(9,11,14,23)          -0.0235         estimate D2E/DX2                !
 ! D64   D(9,11,14,44)         179.9941         estimate D2E/DX2                !
 ! D65   D(9,12,15,23)          -0.0008         estimate D2E/DX2                !
 ! D66   D(9,12,15,35)         179.9989         estimate D2E/DX2                !
 ! D67   D(36,12,15,23)        179.9919         estimate D2E/DX2                !
 ! D68   D(36,12,15,35)         -0.0083         estimate D2E/DX2                !
 ! D69   D(10,13,22,3)           0.001          estimate D2E/DX2                !
 ! D70   D(10,13,22,16)        179.9902         estimate D2E/DX2                !
 ! D71   D(44,13,22,3)        -179.9981         estimate D2E/DX2                !
 ! D72   D(44,13,22,16)         -0.0089         estimate D2E/DX2                !
 ! D73   D(10,13,44,14)          0.0069         estimate D2E/DX2                !
 ! D74   D(10,13,44,17)       -179.9981         estimate D2E/DX2                !
 ! D75   D(10,13,44,45)       -179.9859         estimate D2E/DX2                !
 ! D76   D(22,13,44,14)       -179.9939         estimate D2E/DX2                !
 ! D77   D(22,13,44,17)          0.001          estimate D2E/DX2                !
 ! D78   D(22,13,44,45)          0.0132         estimate D2E/DX2                !
 ! D79   D(11,14,23,15)          0.0221         estimate D2E/DX2                !
 ! D80   D(11,14,23,18)       -179.9904         estimate D2E/DX2                !
 ! D81   D(44,14,23,15)       -179.9955         estimate D2E/DX2                !
 ! D82   D(44,14,23,18)         -0.008          estimate D2E/DX2                !
 ! D83   D(11,14,24,4)          -0.0042         estimate D2E/DX2                !
 ! D84   D(11,14,24,19)        179.9786         estimate D2E/DX2                !
 ! D85   D(23,14,24,4)        -179.9861         estimate D2E/DX2                !
 ! D86   D(23,14,24,19)         -0.0034         estimate D2E/DX2                !
 ! D87   D(11,14,44,13)         -0.012          estimate D2E/DX2                !
 ! D88   D(11,14,44,17)        179.993          estimate D2E/DX2                !
 ! D89   D(23,14,44,13)       -179.9956         estimate D2E/DX2                !
 ! D90   D(23,14,44,17)          0.0095         estimate D2E/DX2                !
 ! D91   D(11,14,45,25)       -179.998          estimate D2E/DX2                !
 ! D92   D(11,14,45,46)        -90.0145         estimate D2E/DX2                !
 ! D93   D(23,14,45,25)          0.0218         estimate D2E/DX2                !
 ! D94   D(23,14,45,46)         90.0053         estimate D2E/DX2                !
 ! D95   D(12,15,23,14)         -0.0092         estimate D2E/DX2                !
 ! D96   D(12,15,23,18)       -179.9964         estimate D2E/DX2                !
 ! D97   D(35,15,23,14)        179.991          estimate D2E/DX2                !
 ! D98   D(35,15,23,18)          0.0039         estimate D2E/DX2                !
 ! D99   D(24,16,22,3)           0.0059         estimate D2E/DX2                !
 ! D100  D(24,16,22,13)       -179.9829         estimate D2E/DX2                !
 ! D101  D(25,16,22,3)        -179.9999         estimate D2E/DX2                !
 ! D102  D(25,16,22,13)          0.0113         estimate D2E/DX2                !
 ! D103  D(45,16,22,3)         179.9855         estimate D2E/DX2                !
 ! D104  D(45,16,22,13)         -0.0033         estimate D2E/DX2                !
 ! D105  D(22,16,24,4)           0.0019         estimate D2E/DX2                !
 ! D106  D(22,16,24,19)        179.9936         estimate D2E/DX2                !
 ! D107  D(25,16,24,4)        -179.9925         estimate D2E/DX2                !
 ! D108  D(25,16,24,19)         -0.0008         estimate D2E/DX2                !
 ! D109  D(28,20,45,44)       -179.9954         estimate D2E/DX2                !
 ! D110  D(28,20,45,46)         90.0111         estimate D2E/DX2                !
 ! D111  D(29,20,45,44)         -0.0174         estimate D2E/DX2                !
 ! D112  D(29,20,45,46)        -90.0109         estimate D2E/DX2                !
 ! D113  D(4,24,44,13)           0.0096         estimate D2E/DX2                !
 ! D114  D(19,24,44,13)        179.9929         estimate D2E/DX2                !
 ! D115  D(4,24,45,17)         179.9967         estimate D2E/DX2                !
 ! D116  D(4,24,45,46)          90.0105         estimate D2E/DX2                !
 ! D117  D(19,24,45,17)         -0.0225         estimate D2E/DX2                !
 ! D118  D(19,24,45,46)        -90.0086         estimate D2E/DX2                !
 ! D119  D(22,16,25,17)         -0.005          estimate D2E/DX2                !
 ! D120  D(22,16,25,20)       -179.9929         estimate D2E/DX2                !
 ! D121  D(24,16,25,17)        179.9893         estimate D2E/DX2                !
 ! D122  D(24,16,25,20)          0.0013         estimate D2E/DX2                !
 ! D123  D(22,16,45,17)        179.9742         estimate D2E/DX2                !
 ! D124  D(22,16,45,46)         89.994          estimate D2E/DX2                !
 ! D125  D(26,17,25,16)       -179.9962         estimate D2E/DX2                !
 ! D126  D(26,17,25,20)         -0.008          estimate D2E/DX2                !
 ! D127  D(44,17,25,16)         -0.003          estimate D2E/DX2                !
 ! D128  D(44,17,25,20)        179.9852         estimate D2E/DX2                !
 ! D129  D(25,17,26,18)        179.9954         estimate D2E/DX2                !
 ! D130  D(25,17,26,21)          0.0108         estimate D2E/DX2                !
 ! D131  D(44,17,26,18)          0.0021         estimate D2E/DX2                !
 ! D132  D(44,17,26,21)       -179.9825         estimate D2E/DX2                !
 ! D133  D(18,26,45,16)       -179.9929         estimate D2E/DX2                !
 ! D134  D(18,26,45,46)        -90.01           estimate D2E/DX2                !
 ! D135  D(21,26,45,16)          0.0295         estimate D2E/DX2                !
 ! D136  D(21,26,45,46)         90.0124         estimate D2E/DX2                !
 ! D137  D(25,17,44,13)          0.0049         estimate D2E/DX2                !
 ! D138  D(25,17,44,14)        179.9998         estimate D2E/DX2                !
 ! D139  D(26,17,44,13)        179.9986         estimate D2E/DX2                !
 ! D140  D(26,17,44,14)         -0.0065         estimate D2E/DX2                !
 ! D141  D(26,18,23,14)          0.0039         estimate D2E/DX2                !
 ! D142  D(26,18,23,15)        179.9907         estimate D2E/DX2                !
 ! D143  D(34,18,23,14)        179.9976         estimate D2E/DX2                !
 ! D144  D(34,18,23,15)         -0.0156         estimate D2E/DX2                !
 ! D145  D(23,18,26,17)         -0.0007         estimate D2E/DX2                !
 ! D146  D(23,18,26,21)        179.9827         estimate D2E/DX2                !
 ! D147  D(34,18,26,17)       -179.9942         estimate D2E/DX2                !
 ! D148  D(34,18,26,21)         -0.0107         estimate D2E/DX2                !
 ! D149  D(27,19,24,4)          -0.0072         estimate D2E/DX2                !
 ! D150  D(27,19,24,16)       -179.999          estimate D2E/DX2                !
 ! D151  D(28,19,24,4)         179.9902         estimate D2E/DX2                !
 ! D152  D(28,19,24,16)         -0.0015         estimate D2E/DX2                !
 ! D153  D(24,19,27,5)           0.0148         estimate D2E/DX2                !
 ! D154  D(24,19,27,30)       -179.9864         estimate D2E/DX2                !
 ! D155  D(28,19,27,5)        -179.9826         estimate D2E/DX2                !
 ! D156  D(28,19,27,30)          0.0163         estimate D2E/DX2                !
 ! D157  D(24,19,28,20)          0.0035         estimate D2E/DX2                !
 ! D158  D(24,19,28,31)       -179.9967         estimate D2E/DX2                !
 ! D159  D(27,19,28,20)       -179.9991         estimate D2E/DX2                !
 ! D160  D(27,19,28,31)          0.0007         estimate D2E/DX2                !
 ! D161  D(28,20,25,16)          0.0006         estimate D2E/DX2                !
 ! D162  D(28,20,25,17)       -179.9877         estimate D2E/DX2                !
 ! D163  D(29,20,25,16)        179.9894         estimate D2E/DX2                !
 ! D164  D(29,20,25,17)          0.0011         estimate D2E/DX2                !
 ! D165  D(25,20,28,19)         -0.003          estimate D2E/DX2                !
 ! D166  D(25,20,28,31)        179.9972         estimate D2E/DX2                !
 ! D167  D(29,20,28,19)       -179.9913         estimate D2E/DX2                !
 ! D168  D(29,20,28,31)          0.0089         estimate D2E/DX2                !
 ! D169  D(25,20,29,21)          0.0025         estimate D2E/DX2                !
 ! D170  D(25,20,29,32)       -179.9913         estimate D2E/DX2                !
 ! D171  D(28,20,29,21)        179.991          estimate D2E/DX2                !
 ! D172  D(28,20,29,32)         -0.0029         estimate D2E/DX2                !
 ! D173  D(29,21,26,17)         -0.0068         estimate D2E/DX2                !
 ! D174  D(29,21,26,18)       -179.9909         estimate D2E/DX2                !
 ! D175  D(33,21,26,17)       -179.9966         estimate D2E/DX2                !
 ! D176  D(33,21,26,18)          0.0193         estimate D2E/DX2                !
 ! D177  D(26,21,29,20)          0.0005         estimate D2E/DX2                !
 ! D178  D(26,21,29,32)        179.9942         estimate D2E/DX2                !
 ! D179  D(33,21,29,20)        179.9901         estimate D2E/DX2                !
 ! D180  D(33,21,29,32)         -0.0162         estimate D2E/DX2                !
 ! D181  D(13,44,45,25)       -179.9779         estimate D2E/DX2                !
 ! D182  D(13,44,45,46)        -89.9973         estimate D2E/DX2                !
 --------------------------------------------------------------------------------
 Trust Radius=3.00D-01 FncErr=1.00D-07 GrdErr=1.00D-07
 Number of steps in this run=    276 maximum allowed number of steps=    276.
 GradGradGradGradGradGradGradGradGradGradGradGradGradGradGradGradGradGrad

                          Input orientation:                          
 ---------------------------------------------------------------------
 Center     Atomic      Atomic             Coordinates (Angstroms)
 Number     Number       Type             X           Y           Z
 ---------------------------------------------------------------------
      1          6           0       -1.487342    1.255274    0.000000
      2          6           0       -0.114579    1.267573    0.000214
      3          6           0        0.637842    2.495615    0.000237
      4          6           0        2.761554    3.737816   -0.000096
      5          6           0        4.876369    4.985412   -0.000577
      6          6           0        2.060297    2.516154   -0.000014
      7          6           0        4.192364    3.771038   -0.000385
      8          6           0       -3.680332    2.523182   -0.000361
      9          6           0       -5.854424    3.764586   -0.000316
     10          6           0       -2.227169    2.491707   -0.000158
     11          6           0       -4.431403    3.732940   -0.000377
     12          6           0       -6.523170    4.989254   -0.000217
     13          6           0       -1.497229    3.665426    0.000042
     14          6           0       -3.770635    4.987756   -0.000065
     15          6           0       -5.831731    6.215386   -0.000158
     16          6           0        0.618765    4.984426    0.000243
     17          6           0       -1.488529    6.302410    0.000188
     18          6           0       -3.646057    7.473946   -0.000044
     19          6           0        2.763344    6.233835   -0.000066
     20          6           0        0.644264    7.488696    0.000097
     21          6           0       -1.486048    8.739497   -0.000106
     22          6           0       -0.072682    3.722583    0.000254
     23          6           0       -4.423380    6.225598   -0.000181
     24          6           0        2.039423    4.985716    0.000088
     25          6           0       -0.086819    6.245918    0.000262
     26          6           0       -2.247828    7.509622    0.000125
     27          6           0        4.183286    6.205843   -0.000242
     28          6           0        2.051167    7.464069   -0.000096
     29          6           0       -0.108077    8.718323   -0.000112
     30          1           0        4.736826    7.141709   -0.000134
     31          1           0        2.608212    8.398162   -0.000269
     32          1           0        0.450622    9.653867   -0.000382
     33          1           0       -2.024149    9.684844   -0.000104
     34          1           0       -4.210816    8.402296   -0.000186
     35          1           0       -6.391623    7.148101   -0.000098
     36          1           0       -7.613530    5.001882   -0.000063
     37          1           0       -6.417453    2.834207   -0.000272
     38          1           0       -4.208336    1.574068   -0.000359
     39          1           0       -2.035005    0.314677    0.000084
     40          1           0        0.442586    0.330166    0.000014
     41          1           0        2.607852    1.577080   -0.000179
     42          1           0        4.741811    2.832903   -0.000582
     43          1           0        5.965971    4.991361   -0.000799
     44         25           0       -2.251750    4.985817    0.000017
     45          6           0       -0.846660    5.084147   -0.000065
     46          8           0       -0.846660    5.084147    1.139564
 ---------------------------------------------------------------------
                    Distance matrix (angstroms):
                    1          2          3          4          5
     1  C    0.000000
     2  C    1.372818   0.000000
     3  C    2.460661   1.440217   0.000000
     4  C    4.920988   3.791337   2.460328   0.000000
     5  C    7.376364   6.223494   4.915709   2.455390   0.000000
     6  C    3.765044   2.507795   1.422603   1.408623   3.745330
     7  C    6.211934   4.981675   3.776417   1.431196   1.393760
     8  C    2.533140   3.780364   4.318263   6.555397   8.903916
     9  C    5.036670   6.259464   6.615119   8.616019  10.800015
    10  C    1.440871   2.441627   2.865014   5.141998   7.528533
    11  C    3.847899   4.971218   5.218067   7.192959   9.391662
    12  C    6.269144   7.410867   7.582765   9.368681  11.399540
    13  C    2.410172   2.767927   2.434540   4.259398   6.508849
    14  C    4.375483   5.215986   5.064132   6.650702   8.647004
    15  C    6.593666   7.560866   7.462713   8.943316  10.778509
    16  C    4.282786   3.788507   2.488884   2.479028   4.257604
    17  C    5.047136   5.218939   4.360406   4.963904   6.499724
    18  C    6.582699   7.140757   6.567768   7.417287   8.878319
    19  C    6.546327   5.739878   4.300238   2.496019   2.454269
    20  C    6.587813   6.267233   4.993085   4.307204   4.917026
    21  C    7.484223   7.596748   6.595223   6.561930   7.387389
    22  C    2.844095   2.455367   1.417849   2.834277   5.107626
    23  C    5.772732   6.568697   6.287188   7.603442   9.382078
    24  C    5.133641   4.297012   2.857452   1.441779   2.836946
    25  C    5.183434   4.978422   3.819674   3.795234   5.120753
    26  C    6.300413   6.596509   5.785098   6.270600   7.558163
    27  C    7.527559   6.546613   5.131857   2.848241   1.403502
    28  C    7.146340   6.564070   5.165562   3.793364   3.758392
    29  C    7.589432   7.450753   6.267256   5.748063   6.227305
    30  H    8.566818   7.618504   6.195794   3.935503   2.160808
    31  H    8.233736   7.632751   6.222734   4.662868   4.097731
    32  H    8.619284   8.405318   7.160700   6.351382   6.432862
    33  H    8.446645   8.631159   7.666238   7.633485   8.348761
    34  H    7.648348   8.226994   7.641883   8.388761   9.708349
    35  H    7.666641   8.601273   8.429650   9.767839  11.473660
    36  H    7.181034   8.377311   8.623602  10.451805  12.489910
    37  H    5.176778   6.494657   7.063415   9.223376  11.496873
    38  H    2.739605   4.105214   4.933020   7.298025   9.704078
    39  H    1.088420   2.143839   3.449725   5.892780   8.341634
    40  H    2.140197   1.090488   2.174234   4.121855   6.428821
    41  H    4.107818   2.739967   2.173625   2.166196   4.094252
    42  H    6.425828   5.102429   4.117806   2.177221   2.156710
    43  H    8.337279   7.130195   5.883681   3.440881   1.089618
    44  Mn   3.808053   4.288687   3.814558   5.166306   7.128119
    45  C    3.882105   3.886152   2.983997   3.851209   5.723880
    46  O    4.045905   4.049728   3.194105   4.016296   5.836328
                    6          7          8          9         10
     6  C    0.000000
     7  C    2.473953   0.000000
     8  C    5.740633   7.970978   0.000000
     9  C    8.012576  10.046789   2.503549   0.000000
    10  C    4.287535   6.545768   1.453504   3.844112   0.000000
    11  C    6.604751   8.623851   1.423946   1.423372   2.529685
    12  C    8.932643  10.784559   3.763407   1.395361   4.969242
    13  C    3.738558   5.690573   2.463871   4.358323   1.382183
    14  C    6.333133   8.055417   2.466228   2.416262   2.934714
    15  C    8.715987  10.317816   4.273276   2.450906   5.182534
    16  C    2.858387   3.773979   4.953783   6.587123   3.783251
    17  C    5.189402   6.219356   4.368817   5.049910   3.881629
    18  C    7.559244   8.669047   4.950883   4.316971   5.180343
    19  C    3.783573   2.847361   7.435719   8.964548   6.237687
    20  C    5.170233   5.139065   6.584714   7.490123   5.763248
    21  C    7.162859   7.545194   6.592227   6.620608   6.291593
    22  C    2.450524   4.265321   3.801803   5.781894   2.481304
    23  C    7.469808   8.958565   3.776242   2.846835   4.331892
    24  C    2.469650   2.471962   6.227333   7.987739   4.942053
    25  C    4.303631   4.943322   5.174177   6.278716   4.321481
    26  C    6.595048   7.446683   5.188126   5.199311   5.017958
    27  C    4.256863   2.434822   8.683230  10.330312   7.408693
    28  C    4.947924   4.268865   7.567196   8.728376   6.559615
    29  C    6.570293   6.555106   7.151279   7.586832   6.577333
    30  H    5.344115   3.414361   9.601008  11.116633   8.373753
    31  H    5.907472   4.890788   8.605881   9.648121   7.633290
    32  H    7.316966   6.971965   8.240841   8.627702   7.646378
    33  H    8.250625   8.580101   7.350670   7.051274   7.196001
    34  H    8.600786   9.594894   5.902999   4.920346   6.234575
    35  H    9.637940  11.109695   5.361061   3.425895   6.246974
    36  H    9.988081  11.869882   4.649085   2.150664   5.942547
    37  H    8.483714  10.651096   2.754735   1.087477   4.204258
    38  H    6.339028   8.683227   1.086096   2.740068   2.183365
    39  H    4.649516   7.122257   2.754015   5.146827   2.185495
    40  H    2.719473   5.089246   4.669879   7.172696   3.435091
    41  H    1.087050   2.706313   6.358960   8.740440   4.920769
    42  H    2.700158   1.087194   8.427837  10.637116   6.977328
    43  H    4.623953   2.152875   9.957062  11.883884   8.565968
    44  Mn   4.969203   6.557613   2.847002   3.804032   2.494231
    45  C    3.878786   5.207303   3.819456   5.178701   2.937099
    46  O    4.042724   5.330618   3.985934   5.302666   3.150478
                   11         12         13         14         15
    11  C    0.000000
    12  C    2.440044   0.000000
    13  C    2.934951   5.197365   0.000000
    14  C    1.418161   2.752535   2.630006   0.000000
    15  C    2.850168   1.407654   5.028937   2.398999   0.000000
    16  C    5.202924   7.141937   2.493430   4.389401   6.566899
    17  C    3.906749   5.203075   2.636998   2.633690   4.344074
    18  C    3.822551   3.801510   4.372904   2.489309   2.522131
    19  C    7.617012   9.369543   4.974858   6.651736   8.595095
    20  C    6.314120   7.590740   4.382166   5.074055   6.599988
    21  C    5.808677   6.279882   5.074083   4.392596   5.025544
    22  C    4.358734   6.573679   1.425693   3.908391   6.275406
    23  C    2.492671   2.436733   3.888038   1.399403   1.408389
    24  C    6.590982   8.562594   3.775060   5.810059   7.966628
    25  C    5.019011   6.557882   2.940781   3.892746   5.744993
    26  C    4.362491   4.962943   3.916790   2.945972   3.810434
    27  C    8.962595  10.775355   6.222697   8.046651  10.015021
    28  C    7.479642   8.924347   5.198154   6.326571   7.981184
    29  C    6.598879   7.420201   5.240374   5.227950   6.246993
    30  H    9.781418  11.463882   7.137786   8.775899  10.609076
    31  H    8.445146   9.746938   6.265256   7.233295   8.717635
    32  H    7.674083   8.390018   6.297265   6.292186   7.161782
    33  H    6.420283   6.503057   6.042436   5.011272   5.151196
    34  H    4.674564   4.122601   5.459074   3.442796   2.722120
    35  H    3.937739   2.162852   6.007006   3.396567   1.087858
    36  H    3.425806   1.090433   6.260611   3.842921   2.155783
    37  H    2.179934   2.157638   4.989943   3.412245   3.431536
    38  H    2.170366   4.125767   3.424015   3.441635   4.917037
    39  H    4.174595   6.480378   3.393630   4.984985   7.016659
    40  H    5.944294   8.380265   3.858347   6.280475   8.602492
    41  H    7.361986   9.747743   4.605744   7.233105   9.630184
    42  H    9.217263  11.469510   6.294340   8.780953  11.101396
    43  H   10.473252  12.489141   7.580070   9.736606  11.861029
    44  Mn   2.514078   4.271421   1.520768   1.518886   3.785248
    45  C    3.830946   5.677304   1.560772   2.925564   5.111814
    46  O    3.996951   5.790585   1.932490   3.139694   5.237328
                   16         17         18         19         20
    16  C    0.000000
    17  C    2.485512   0.000000
    18  C    4.938261   2.455081   0.000000
    19  C    2.481984   4.252426   6.528269   0.000000
    20  C    2.504399   2.440509   4.290347   2.462758   0.000000
    21  C    4.304741   2.437089   2.503449   4.933121   2.470372
    22  C    1.438870   2.942810   5.180901   3.788064   3.833747
    23  C    5.192661   2.935855   1.470579   7.186729   5.222684
    24  C    1.420659   3.765651   6.206124   1.442866   2.865550
    25  C    1.445410   1.402848   3.765133   2.850189   1.441867
    26  C    3.820206   1.426147   1.398684   5.171023   2.892168
    27  C    3.767979   5.672637   7.931374   1.420217   3.764357
    28  C    2.863635   3.725440   5.697232   1.421504   1.407118
    29  C    3.803983   2.782497   3.750437   3.797070   1.441528
    30  H    4.648903   6.281678   8.389465   2.172295   4.107245
    31  H    3.951138   4.601681   6.322188   2.169880   2.164306
    32  H    4.672467   3.872024   4.640564   4.128595   2.173813
    33  H    5.392488   3.424580   2.742016   5.901657   3.455937
    34  H    5.916645   3.438077   1.086640   7.303502   4.940291
    35  H    7.336691   4.975492   2.764834   9.200506   7.044127
    36  H    8.232313   6.261550   4.674606  10.449748   8.624118
    37  H    7.357432   6.026833   5.404425   9.790021   8.457666
    38  H    5.910283   5.454775   5.926611   8.385568   7.650526
    39  H    5.371131   6.012618   7.338298   7.619749   7.658004
    40  H    4.657593   6.276695   8.231075   6.343439   7.161370
    41  H    3.945437   6.253725   8.595604   4.659350   6.229195
    42  H    4.650652   7.131243   9.586220   3.934548   6.202120
    43  H    5.347210   7.568911   9.927452   3.435194   5.878540
    44  Mn   2.870516   1.521816   2.852171   5.168048   3.827702
    45  C    1.468814   1.377012   3.680729   3.788655   2.829260
    46  O    1.858888   1.787271   3.853112   3.956345   3.050097
                   21         22         23         24         25
    21  C    0.000000
    22  C    5.212200   0.000000
    23  C    3.866213   5.019328   0.000000
    24  C    5.149740   2.460994   6.580663   0.000000
    25  C    2.859332   2.523375   4.336608   2.471643   0.000000
    26  C    1.446686   4.367256   2.526211   4.975000   2.503379
    27  C    6.209730   4.927458   8.606688   2.466750   4.270293
    28  C    3.760134   4.302262   6.591931   2.478382   2.460666
    29  C    1.378134   4.995866   4.983525   4.306288   2.472497
    30  H    6.424725   5.900999   9.205902   3.453156   4.906118
    31  H    4.108464   5.389641   7.359573   3.459524   3.448963
    32  H    2.141673   5.954324   5.958936   4.931118   3.450066
    33  H    1.087765   6.273498   4.209832   6.212441   3.947082
    34  H    2.745554   6.246909   2.187052   7.123097   4.653743
    35  H    5.157248   7.187711   2.173705   8.703933   6.369026
    36  H    7.177451   7.648594   3.416803   9.652967   7.628827
    37  H    7.693582   6.406663   3.934191   8.726267   7.191432
    38  H    7.665131   4.660445   4.656499   7.118556   6.230015
    39  H    8.442686   3.932497   6.375212   6.198352   6.243000
    40  H    8.627657   3.431325   7.644196   4.921791   5.939393
    41  H    8.249863   3.433431   8.428934   3.455707   5.390668
    42  H    8.583361   4.896006   9.772978   3.455069   5.913066
    43  H    8.341529   6.170505  10.462406   3.926552   6.181438
    44  Mn   3.830981   2.518749   2.500606   4.291174   2.504951
    45  C    3.710849   1.566173   3.754442   2.887761   1.388190
    46  O    3.881913   1.936730   3.923628   3.104443   1.795850
                   26         27         28         29         30
    26  C    0.000000
    27  C    6.561941   0.000000
    28  C    4.299236   2.475695   0.000000
    29  C    2.457539   4.972761   2.497095   0.000000
    30  H    6.994338   1.087314   2.704937   5.094978   0.000000
    31  H    4.936662   2.699466   1.087579   2.735092   2.471775
    32  H    3.446653   5.081500   2.712371   1.089672   4.968147
    33  H    2.186692   7.115876   4.641125   2.146042   7.223457
    34  H    2.156430   8.676713   6.331880   4.114893   9.036005
    35  H    4.159535  10.616805   8.448700   6.476770  11.128451
    36  H    5.922796  11.858093   9.973401   8.375188  12.534359
    37  H    6.264605  11.124009   9.651587   8.627343  11.957111
    38  H    6.250952   9.585022   8.594969   8.237264  10.536344
    39  H    7.198092   8.565802   8.234720   8.621736   9.615927
    40  H    7.667001   6.965372   7.313009   8.406212   8.052180
    41  H    7.666335   4.889524   5.913252   7.640264   5.957989
    42  H    8.409921   3.418871   5.356050   7.626243   4.308809
    43  H    8.591166   2.157066   4.630332   7.126310   2.476851
    44  Mn   2.523808   6.549668   4.965564   4.304293   7.313554
    45  C    2.801108   5.153499   3.749857   3.708469   5.950536
    46  O    3.023992   5.278040   3.919216   3.879640   6.058695
                   31         32         33         34         35
    31  H    0.000000
    32  H    2.496395   0.000000
    33  H    4.807736   2.474965   0.000000
    34  H    6.819030   4.826535   2.535043   0.000000
    35  H    9.086236   7.286644   5.050732   2.515735   0.000000
    36  H   10.771199   9.309754   7.291866   4.810538   2.469679
    37  H   10.602840   9.678750   8.138325   5.989395   4.313971
    38  H    9.645392   9.326792   8.399724   6.828229   5.986367
    39  H    9.322134   9.664306   9.370173   8.375186   8.104061
    40  H    8.353591   9.323704   9.674439   9.317372   9.653530
    41  H    6.821082   8.359912   9.337627   9.647684  10.584273
    42  H    5.960231   8.058527   9.629502  10.543609  11.940448
    43  H    4.783391   7.222051   9.266650  10.733195  12.544387
    44  Mn   5.938294   5.393840   4.704536   3.938308   4.670548
    45  C    4.787362   4.750293   4.748989   4.725216   5.916632
    46  O    4.921184   4.885157   4.883824   4.860730   6.025393
                   36         37         38         39         40
    36  H    0.000000
    37  H    2.475765   0.000000
    38  H    4.831693   2.543256   0.000000
    39  H    7.286277   5.055085   2.511858   0.000000
    40  H    9.312676   7.302763   4.814391   2.477639   0.000000
    41  H   10.779885   9.112436   6.816188   4.811421   2.498633
    42  H   12.544279  11.159264   9.038241   7.229571   4.974639
    43  H   13.579505  12.569904  10.732866   9.267523   7.227345
    44  Mn   5.361804   4.688550   3.932971   4.676166   5.379083
    45  C    6.767370   6.007992   4.860198   4.915283   4.925696
    46  O    6.862656   6.115161   4.992088   5.045634   5.055794
                   41         42         43         44         45
    41  H    0.000000
    42  H    2.476061   0.000000
    43  H    4.788975   2.481433   0.000000
    44  Mn   5.935926   7.317441   8.217723   0.000000
    45  C    4.922719   6.024874   6.813262   1.408527   0.000000
    46  O    5.052938   6.131805   6.908036   1.811771   1.139629
                   46
    46  O    0.000000
 Stoichiometry    C30H14MnO(2)
 Framework group  C1[X(C30H14MnO)]
 Deg. of freedom   132
 Full point group                 C1      NOp   1
 Largest Abelian subgroup         C1      NOp   1
 Largest concise Abelian subgroup C1      NOp   1
                         Standard orientation:                         
 ---------------------------------------------------------------------
 Center     Atomic      Atomic             Coordinates (Angstroms)
 Number     Number       Type             X           Y           Z
 ---------------------------------------------------------------------
      1          6           0        0.552478    3.739833   -0.036457
      2          6           0       -0.820287    3.727808   -0.036811
      3          6           0       -1.572952    2.499916   -0.038215
      4          6           0       -3.696910    1.258139   -0.040544
      5          6           0       -5.811974    0.010967   -0.043023
      6          6           0       -2.995410    2.479661   -0.039062
      7          6           0       -5.127727    1.225203   -0.041444
      8          6           0        2.745217    2.471489   -0.037087
      9          6           0        4.919061    1.229653   -0.037296
     10          6           0        1.292060    2.503254   -0.037445
     11          6           0        3.496047    1.261582   -0.037905
     12          6           0        5.587563    0.004852   -0.038044
     13          6           0        0.561886    1.329680   -0.038613
     14          6           0        2.835029    0.006898   -0.039007
     15          6           0        4.895881   -1.221143   -0.039385
     16          6           0       -1.554370    0.011103   -0.040475
     17          6           0        0.552661   -1.307301   -0.040880
     18          6           0        2.709956   -2.479266   -0.041308
     19          6           0       -3.699198   -1.237878   -0.042796
     20          6           0       -1.580368   -2.493161   -0.042920
     21          6           0        0.549696   -3.744386   -0.043402
     22          6           0       -0.862672    1.272807   -0.039032
     23          6           0        3.487527   -1.231074   -0.039990
     24          6           0       -2.975029    0.010096   -0.041208
     25          6           0       -0.849037   -1.250530   -0.041323
     26          6           0        1.311720   -2.514664   -0.041739
     27          6           0       -5.119133   -1.209603   -0.043522
     28          6           0       -2.987265   -2.468254   -0.043661
     29          6           0       -0.828272   -3.722938   -0.043947
     30          1           0       -5.672860   -2.145358   -0.044494
     31          1           0       -3.544496   -3.402235   -0.044913
     32          1           0       -1.387156   -4.658369   -0.045299
     33          1           0        1.087608   -4.689840   -0.044046
     34          1           0        3.274531   -3.407728   -0.042069
     35          1           0        5.455587   -2.153969   -0.039951
     36          1           0        6.677921   -0.007994   -0.037459
     37          1           0        5.482275    2.159918   -0.036173
     38          1           0        3.273409    3.420498   -0.036004
     39          1           0        1.100329    4.680321   -0.035292
     40          1           0       -1.377265    4.665325   -0.036380
     41          1           0       -3.542779    3.418844   -0.038591
     42          1           0       -5.676988    2.163448   -0.041006
     43          1           0       -6.901576    0.005234   -0.043692
     44         25           0        1.316145    0.009140   -0.039539
     45          6           0       -0.088966   -0.088910   -0.040280
     46          8           0       -0.089428   -0.089951    1.099348
 ---------------------------------------------------------------------
 Rotational constants (GHZ):      0.3037189      0.1340758      0.0937054
 Standard basis: VSTO-6G (5D, 7F)
 There are   148 symmetry adapted cartesian basis functions of A   symmetry.
 There are   147 symmetry adapted basis functions of A   symmetry.
   147 basis functions,   888 primitive gaussians,   148 cartesian basis functions
    74 alpha electrons       73 beta electrons
       nuclear repulsion energy      1540.4565371299 Hartrees.
 Integral buffers will be    262144 words long.
 Regular integral format.
 Two-electron integral symmetry is turned off.
 Do NDO integrals.
 One-electron integrals computed using PRISM.
 NBasis=   147 RedAO= F EigKep=  0.00D+00  NBF=   147
 NBsUse=   147 1.00D-04 EigRej=  0.00D+00 NBFU=   147
 Simple Huckel Guess.
 Initial guess <Sx>= 0.0000 <Sy>= 0.0000 <Sz>= 0.5000 <S**2>= 0.7500 S= 0.5000
 Keep J ints in memory in canonical form, NReq=2141367.
 Gradient too large for Newton-Raphson -- use scaled steepest descent instead.
     Minimum is close to point  4 DX=  4.00D-02 DF= -4.91D-03 DXR=  6.25D-02 DFR=  3.36D-03 which will be used.
 Gradient too large for Newton-Raphson -- use scaled steepest descent instead.
 Gradient too large for Newton-Raphson -- use scaled steepest descent instead.
     Minimum is close to point  2 DX=  6.28D-02 DF= -6.64D-04 DXR=  7.28D-02 DFR=  5.32D-03 which will be used.
 Gradient too large for Newton-Raphson -- use scaled steepest descent instead.
     Accept linear search using points  2 and  3.
 Gradient too large for Newton-Raphson -- use scaled steepest descent instead.
     Accept linear search using points  1 and  2.
 Gradient too large for Newton-Raphson -- use scaled steepest descent instead.
 Gradient too large for Newton-Raphson -- use scaled steepest descent instead.
     Accept linear search using points  1 and  2.
 Gradient too large for Newton-Raphson -- use scaled steepest descent instead.
 Gradient too large for Newton-Raphson -- use scaled steepest descent instead.
     Accept linear search using points  1 and  2.
 Gradient too large for Newton-Raphson -- use scaled steepest descent instead.
 Gradient too large for Newton-Raphson -- use scaled steepest descent instead.
     Accept linear search using points  1 and  2.
     Minimum is close to point  2 DX= -9.22D-02 DF= -1.26D-04 DXR=  8.32D-02 DFR=  9.17D-03 which will be used.
 Gradient too large for Newton-Raphson -- use scaled steepest descent instead.
     Accept linear search using points  1 and  2.
     Minimum is close to point  2 DX= -7.07D-02 DF= -5.90D-05 DXR=  6.26D-02 DFR=  5.20D-03 which will be used.
 Gradient too large for Newton-Raphson -- use scaled steepest descent instead.
     Minimum is close to point  2 DX=  1.57D-02 DF= -1.83D-06 DXR=  1.41D-02 DFR=  1.98D-04 which will be used.
 Gradient too large for Newton-Raphson -- use scaled steepest descent instead.
 Gradient too large for Newton-Raphson -- use scaled steepest descent instead.
     Accept linear search using points  1 and  2.
 Gradient too large for Newton-Raphson -- use scaled steepest descent instead.
     Accept linear search using points  1 and  2.
     Minimum is close to point  2 DX= -2.79D-02 DF= -3.89D-06 DXR=  2.20D-02 DFR=  7.39D-04 which will be used.
 Gradient too large for Newton-Raphson -- use scaled steepest descent instead.
     Accept linear search using points  1 and  2.
     Minimum is close to point  2 DX= -2.17D-02 DF= -2.07D-06 DXR=  1.84D-02 DFR=  4.62D-04 which will be used.
 Gradient too large for Newton-Raphson -- use scaled steepest descent instead.
     Minimum is close to point  2 DX=  1.00D-01 DF= -2.27D-05 DXR=  7.71D-02 DFR=  5.99D-03 which will be used.
 Gradient too large for Newton-Raphson -- use scaled steepest descent instead.
 Gradient too large for Newton-Raphson -- use scaled steepest descent instead.
     Accept linear search using points  1 and  2.
 Gradient too large for Newton-Raphson -- use scaled steepest descent instead.
     Accept linear search using points  1 and  2.
     Minimum is close to point  2 DX= -1.11D-01 DF= -2.67D-05 DXR=  8.61D-02 DFR=  1.17D-02 which will be used.
 Gradient too large for Newton-Raphson -- use scaled steepest descent instead.
     Accept linear search using points  1 and  2.
 Gradient too large for Newton-Raphson -- use scaled steepest descent instead.
 Gradient too large for Newton-Raphson -- use scaled steepest descent instead.
     Minimum is close to point  2 DX=  3.72D-02 DF= -1.22D-06 DXR=  3.01D-02 DFR=  9.06D-04 which will be used.
 Gradient too large for Newton-Raphson -- use scaled steepest descent instead.
 Gradient too large for Newton-Raphson -- use scaled steepest descent instead.
     Accept linear search using points  1 and  2.
     Minimum is close to point  2 DX= -7.50D-02 DF= -5.02D-06 DXR=  6.12D-02 DFR=  5.56D-03 which will be used.
 Gradient too large for Newton-Raphson -- use scaled steepest descent instead.
     Accept linear search using points  1 and  2.
     Minimum is close to point  2 DX= -7.89D-02 DF= -4.53D-06 DXR=  6.46D-02 DFR=  6.17D-03 which will be used.
 Gradient too large for Newton-Raphson -- use scaled steepest descent instead.
     Accept linear search using points  1 and  2.
     Minimum is close to point  2 DX= -2.43D-02 DF= -3.53D-07 DXR=  2.07D-02 DFR=  5.84D-04 which will be used.
 Gradient too large for Newton-Raphson -- use scaled steepest descent instead.
 Gradient too large for Newton-Raphson -- use scaled steepest descent instead.
     Accept linear search using points  1 and  2.
     Minimum is close to point  2 DX= -2.78D-02 DF= -2.90D-07 DXR=  2.19D-02 DFR=  7.35D-04 which will be used.
 Gradient too large for Newton-Raphson -- use scaled steepest descent instead.
     Accept linear search using points  1 and  2.
     Minimum is close to point  2 DX= -2.03D-02 DF= -1.25D-07 DXR=  1.59D-02 DFR=  3.89D-04 which will be used.
 Gradient too large for Newton-Raphson -- use scaled steepest descent instead.
     Accept linear search using points  1 and  2.
     Minimum is close to point  2 DX= -9.19D-03 DF= -2.10D-08 DXR=  7.12D-03 DFR=  7.91D-05 which will be used.
 LinEq1:  Iter=  0 NonCon=     1 RMS=2.59D-04 Max=9.56D-03 NDo=     1
 AX will form     1 AO Fock derivatives at one time.
 LinEq1:  Iter=  1 NonCon=     1 RMS=1.71D-04 Max=4.64D-03 NDo=     1
 LinEq1:  Iter=  2 NonCon=     1 RMS=3.38D-05 Max=1.06D-03 NDo=     1
 LinEq1:  Iter=  3 NonCon=     1 RMS=1.10D-05 Max=2.27D-04 NDo=     1
 LinEq1:  Iter=  4 NonCon=     1 RMS=3.21D-06 Max=7.75D-05 NDo=     1
 LinEq1:  Iter=  5 NonCon=     1 RMS=1.17D-06 Max=3.62D-05 NDo=     1
 LinEq1:  Iter=  6 NonCon=     1 RMS=4.52D-07 Max=1.47D-05 NDo=     1
 LinEq1:  Iter=  7 NonCon=     1 RMS=1.72D-07 Max=3.86D-06 NDo=     1
 LinEq1:  Iter=  8 NonCon=     1 RMS=6.90D-08 Max=1.73D-06 NDo=     1
 LinEq1:  Iter=  9 NonCon=     1 RMS=2.38D-08 Max=3.52D-07 NDo=     1
 LinEq1:  Iter= 10 NonCon=     1 RMS=7.41D-09 Max=1.49D-07 NDo=     1
 LinEq1:  Iter= 11 NonCon=     0 RMS=2.29D-09 Max=5.23D-08 NDo=     1
 Linear equations converged to 1.039D-08 1.039D-07 after    11 iterations.
 LinEq1:  Iter=  0 NonCon=     1 RMS=1.82D-04 Max=5.46D-03 NDo=     1
 LinEq1:  Iter=  1 NonCon=     1 RMS=1.09D-04 Max=2.79D-03 NDo=     1
 LinEq1:  Iter=  2 NonCon=     1 RMS=3.61D-05 Max=1.17D-03 NDo=     1
 LinEq1:  Iter=  3 NonCon=     1 RMS=1.35D-05 Max=3.51D-04 NDo=     1
 LinEq1:  Iter=  4 NonCon=     1 RMS=4.67D-06 Max=1.49D-04 NDo=     1
 LinEq1:  Iter=  5 NonCon=     1 RMS=1.37D-06 Max=1.73D-05 NDo=     1
 LinEq1:  Iter=  6 NonCon=     1 RMS=3.11D-07 Max=8.77D-06 NDo=     1
 LinEq1:  Iter=  7 NonCon=     1 RMS=1.20D-07 Max=2.18D-06 NDo=     1
 LinEq1:  Iter=  8 NonCon=     1 RMS=3.78D-08 Max=6.83D-07 NDo=     1
 LinEq1:  Iter=  9 NonCon=     1 RMS=1.50D-08 Max=2.91D-07 NDo=     1
 LinEq1:  Iter= 10 NonCon=     1 RMS=5.92D-09 Max=1.68D-07 NDo=     1
 LinEq1:  Iter= 11 NonCon=     0 RMS=1.76D-09 Max=3.94D-08 NDo=     1
 Linear equations converged to 1.039D-08 1.039D-07 after    11 iterations.
 LinEq1:  Iter=  0 NonCon=     1 RMS=1.11D-04 Max=3.50D-03 NDo=     1
 LinEq1:  Iter=  1 NonCon=     1 RMS=6.15D-05 Max=2.17D-03 NDo=     1
 LinEq1:  Iter=  2 NonCon=     1 RMS=2.21D-05 Max=6.55D-04 NDo=     1
 LinEq1:  Iter=  3 NonCon=     1 RMS=7.87D-06 Max=1.59D-04 NDo=     1
 LinEq1:  Iter=  4 NonCon=     1 RMS=2.62D-06 Max=6.97D-05 NDo=     1
 LinEq1:  Iter=  5 NonCon=     1 RMS=8.29D-07 Max=1.14D-05 NDo=     1
 LinEq1:  Iter=  6 NonCon=     1 RMS=2.69D-07 Max=7.89D-06 NDo=     1
 LinEq1:  Iter=  7 NonCon=     1 RMS=1.15D-07 Max=2.74D-06 NDo=     1
 LinEq1:  Iter=  8 NonCon=     1 RMS=4.20D-08 Max=1.46D-06 NDo=     1
 LinEq1:  Iter=  9 NonCon=     1 RMS=1.50D-08 Max=3.59D-07 NDo=     1
 LinEq1:  Iter= 10 NonCon=     1 RMS=5.72D-09 Max=1.10D-07 NDo=     1
 LinEq1:  Iter= 11 NonCon=     0 RMS=1.51D-09 Max=2.76D-08 NDo=     1
 Linear equations converged to 1.039D-08 1.039D-07 after    11 iterations.
 LinEq1:  Iter=  0 NonCon=     1 RMS=8.77D-05 Max=1.44D-03 NDo=     1
 LinEq1:  Iter=  1 NonCon=     1 RMS=3.35D-05 Max=8.64D-04 NDo=     1
 LinEq1:  Iter=  2 NonCon=     1 RMS=1.31D-05 Max=3.65D-04 NDo=     1
 LinEq1:  Iter=  3 NonCon=     1 RMS=5.90D-06 Max=1.53D-04 NDo=     1
 LinEq1:  Iter=  4 NonCon=     1 RMS=2.91D-06 Max=1.16D-04 NDo=     1
 LinEq1:  Iter=  5 NonCon=     1 RMS=1.12D-06 Max=2.43D-05 NDo=     1
 LinEq1:  Iter=  6 NonCon=     1 RMS=3.44D-07 Max=7.77D-06 NDo=     1
 LinEq1:  Iter=  7 NonCon=     1 RMS=1.10D-07 Max=2.07D-06 NDo=     1
 LinEq1:  Iter=  8 NonCon=     1 RMS=4.59D-08 Max=9.51D-07 NDo=     1
 LinEq1:  Iter=  9 NonCon=     1 RMS=1.71D-08 Max=2.64D-07 NDo=     1
 LinEq1:  Iter= 10 NonCon=     1 RMS=6.09D-09 Max=1.15D-07 NDo=     1
 LinEq1:  Iter= 11 NonCon=     0 RMS=2.14D-09 Max=4.91D-08 NDo=     1
 Linear equations converged to 1.039D-08 1.039D-07 after    11 iterations.
     Minimum is close to point  2 DX= -6.05D-02 DF= -1.46D-07 DXR=  6.44D-02 DFR=  4.16D-03 which will be used.
 LinEq1:  Iter=  0 NonCon=     1 RMS=2.86D-05 Max=8.25D-04 NDo=     1
 LinEq1:  Iter=  1 NonCon=     1 RMS=1.09D-05 Max=2.86D-04 NDo=     1
 LinEq1:  Iter=  2 NonCon=     1 RMS=4.73D-06 Max=1.06D-04 NDo=     1
 LinEq1:  Iter=  3 NonCon=     1 RMS=2.11D-06 Max=4.67D-05 NDo=     1
 LinEq1:  Iter=  4 NonCon=     1 RMS=8.37D-07 Max=2.33D-05 NDo=     1
 LinEq1:  Iter=  5 NonCon=     1 RMS=3.18D-07 Max=7.51D-06 NDo=     1
 LinEq1:  Iter=  6 NonCon=     1 RMS=1.35D-07 Max=2.99D-06 NDo=     1
 LinEq1:  Iter=  7 NonCon=     1 RMS=5.34D-08 Max=1.62D-06 NDo=     1
 LinEq1:  Iter=  8 NonCon=     1 RMS=1.68D-08 Max=4.60D-07 NDo=     1
 LinEq1:  Iter=  9 NonCon=     0 RMS=5.00D-09 Max=9.38D-08 NDo=     1
 Linear equations converged to 1.039D-08 1.039D-07 after     9 iterations.
 Incorrect curvature in search direction -- initial direction reversed.
 LinEq1:  Iter=  0 NonCon=     1 RMS=4.44D-05 Max=1.46D-03 NDo=     1
 LinEq1:  Iter=  1 NonCon=     1 RMS=1.88D-05 Max=5.38D-04 NDo=     1
 LinEq1:  Iter=  2 NonCon=     1 RMS=7.30D-06 Max=2.15D-04 NDo=     1
 LinEq1:  Iter=  3 NonCon=     1 RMS=3.28D-06 Max=9.28D-05 NDo=     1
 LinEq1:  Iter=  4 NonCon=     1 RMS=1.48D-06 Max=4.32D-05 NDo=     1
 LinEq1:  Iter=  5 NonCon=     1 RMS=6.01D-07 Max=1.60D-05 NDo=     1
 LinEq1:  Iter=  6 NonCon=     1 RMS=1.94D-07 Max=3.91D-06 NDo=     1
 LinEq1:  Iter=  7 NonCon=     1 RMS=9.27D-08 Max=2.67D-06 NDo=     1
 LinEq1:  Iter=  8 NonCon=     1 RMS=2.54D-08 Max=5.88D-07 NDo=     1
 LinEq1:  Iter=  9 NonCon=     1 RMS=9.13D-09 Max=2.07D-07 NDo=     1
 LinEq1:  Iter= 10 NonCon=     0 RMS=2.48D-09 Max=8.23D-08 NDo=     1
 Linear equations converged to 1.039D-08 1.039D-07 after    10 iterations.
 Gradient too large for Newton-Raphson -- use scaled steepest descent instead.
 Gradient too large for Newton-Raphson -- use scaled steepest descent instead.
 Gradient too large for Newton-Raphson -- use scaled steepest descent instead.
     Accept linear search using points  1 and  2.
     Minimum is close to point  2 DX= -9.26D-02 DF= -2.59D-06 DXR=  5.76D-02 DFR=  6.83D-03 which will be used.
 Gradient too large for Newton-Raphson -- use scaled steepest descent instead.
     Accept linear search using points  1 and  2.
 Gradient too large for Newton-Raphson -- use scaled steepest descent instead.
     Accept linear search using points  1 and  2.
     Minimum is close to point  2 DX= -1.32D-01 DF= -4.66D-06 DXR=  9.63D-02 DFR=  1.57D-02 which will be used.
 Gradient too large for Newton-Raphson -- use scaled steepest descent instead.
     Accept linear search using points  1 and  2.
 LinEq1:  Iter=  0 NonCon=     1 RMS=2.31D-04 Max=8.02D-03 NDo=     1
 LinEq1:  Iter=  1 NonCon=     1 RMS=1.63D-04 Max=6.32D-03 NDo=     1
 LinEq1:  Iter=  2 NonCon=     1 RMS=1.73D-05 Max=4.72D-04 NDo=     1
 LinEq1:  Iter=  3 NonCon=     1 RMS=1.01D-05 Max=2.52D-04 NDo=     1
 LinEq1:  Iter=  4 NonCon=     1 RMS=3.15D-06 Max=7.72D-05 NDo=     1
 LinEq1:  Iter=  5 NonCon=     1 RMS=7.85D-07 Max=1.62D-05 NDo=     1
 LinEq1:  Iter=  6 NonCon=     1 RMS=1.89D-07 Max=4.69D-06 NDo=     1
 LinEq1:  Iter=  7 NonCon=     1 RMS=6.69D-08 Max=2.03D-06 NDo=     1
 LinEq1:  Iter=  8 NonCon=     1 RMS=1.93D-08 Max=5.70D-07 NDo=     1
 LinEq1:  Iter=  9 NonCon=     1 RMS=4.61D-09 Max=1.63D-07 NDo=     1
 LinEq1:  Iter= 10 NonCon=     0 RMS=1.17D-09 Max=2.66D-08 NDo=     1
 Linear equations converged to 1.039D-08 1.039D-07 after    10 iterations.
 Incorrect curvature in search direction -- initial direction reversed.
 Gradient too large for Newton-Raphson -- use scaled steepest descent instead.
     Accept linear search using points  1 and  2.
     Minimum is close to point  2 DX= -9.87D-02 DF= -2.95D-06 DXR=  8.21D-02 DFR=  9.87D-03 which will be used.
 LinEq1:  Iter=  0 NonCon=     1 RMS=2.35D-04 Max=9.92D-03 NDo=     1
 LinEq1:  Iter=  1 NonCon=     1 RMS=1.59D-04 Max=4.54D-03 NDo=     1
 LinEq1:  Iter=  2 NonCon=     1 RMS=1.75D-05 Max=3.93D-04 NDo=     1
 LinEq1:  Iter=  3 NonCon=     1 RMS=1.07D-05 Max=2.71D-04 NDo=     1
 LinEq1:  Iter=  4 NonCon=     1 RMS=2.64D-06 Max=6.00D-05 NDo=     1
 LinEq1:  Iter=  5 NonCon=     1 RMS=9.15D-07 Max=1.78D-05 NDo=     1
 LinEq1:  Iter=  6 NonCon=     1 RMS=2.16D-07 Max=3.91D-06 NDo=     1
 LinEq1:  Iter=  7 NonCon=     1 RMS=5.18D-08 Max=1.49D-06 NDo=     1
 LinEq1:  Iter=  8 NonCon=     1 RMS=1.84D-08 Max=4.60D-07 NDo=     1
 LinEq1:  Iter=  9 NonCon=     1 RMS=4.61D-09 Max=1.20D-07 NDo=     1
 LinEq1:  Iter= 10 NonCon=     0 RMS=1.15D-09 Max=2.78D-08 NDo=     1
 Linear equations converged to 1.039D-08 1.039D-07 after    10 iterations.
 LinEq1:  Iter=  0 NonCon=     1 RMS=1.85D-04 Max=6.50D-03 NDo=     1
 LinEq1:  Iter=  1 NonCon=     1 RMS=1.18D-04 Max=3.99D-03 NDo=     1
 LinEq1:  Iter=  2 NonCon=     1 RMS=1.82D-05 Max=4.33D-04 NDo=     1
 LinEq1:  Iter=  3 NonCon=     1 RMS=7.64D-06 Max=1.53D-04 NDo=     1
 LinEq1:  Iter=  4 NonCon=     1 RMS=2.83D-06 Max=5.29D-05 NDo=     1
 LinEq1:  Iter=  5 NonCon=     1 RMS=8.26D-07 Max=1.51D-05 NDo=     1
 LinEq1:  Iter=  6 NonCon=     1 RMS=2.71D-07 Max=4.31D-06 NDo=     1
 LinEq1:  Iter=  7 NonCon=     1 RMS=6.41D-08 Max=1.50D-06 NDo=     1
 LinEq1:  Iter=  8 NonCon=     1 RMS=1.82D-08 Max=3.89D-07 NDo=     1
 LinEq1:  Iter=  9 NonCon=     1 RMS=5.17D-09 Max=1.07D-07 NDo=     1
 LinEq1:  Iter= 10 NonCon=     0 RMS=1.33D-09 Max=2.81D-08 NDo=     1
 Linear equations converged to 1.039D-08 1.039D-07 after    10 iterations.
     Accept linear search using points  1 and  2.
 LinEq1:  Iter=  0 NonCon=     1 RMS=6.34D-05 Max=1.59D-03 NDo=     1
 LinEq1:  Iter=  1 NonCon=     1 RMS=3.37D-05 Max=6.83D-04 NDo=     1
 LinEq1:  Iter=  2 NonCon=     1 RMS=7.10D-06 Max=1.81D-04 NDo=     1
 LinEq1:  Iter=  3 NonCon=     1 RMS=2.21D-06 Max=4.40D-05 NDo=     1
 LinEq1:  Iter=  4 NonCon=     1 RMS=9.89D-07 Max=1.97D-05 NDo=     1
 LinEq1:  Iter=  5 NonCon=     1 RMS=3.03D-07 Max=4.82D-06 NDo=     1
 LinEq1:  Iter=  6 NonCon=     1 RMS=1.05D-07 Max=1.44D-06 NDo=     1
 LinEq1:  Iter=  7 NonCon=     1 RMS=3.00D-08 Max=8.26D-07 NDo=     1
 LinEq1:  Iter=  8 NonCon=     1 RMS=7.77D-09 Max=1.33D-07 NDo=     1
 LinEq1:  Iter=  9 NonCon=     0 RMS=2.16D-09 Max=5.81D-08 NDo=     1
 Linear equations converged to 1.039D-08 1.039D-07 after     9 iterations.
     Minimum is close to point  2 DX=  5.91D-03 DF= -1.09D-09 DXR=  5.88D-03 DFR=  3.46D-05 which will be used.
 LinEq1:  Iter=  0 NonCon=     1 RMS=7.89D-07 Max=1.61D-05 NDo=     1
 LinEq1:  Iter=  1 NonCon=     1 RMS=3.16D-07 Max=7.37D-06 NDo=     1
 LinEq1:  Iter=  2 NonCon=     1 RMS=9.59D-08 Max=2.27D-06 NDo=     1
 LinEq1:  Iter=  3 NonCon=     1 RMS=4.07D-08 Max=1.15D-06 NDo=     1
 LinEq1:  Iter=  4 NonCon=     1 RMS=1.47D-08 Max=2.81D-07 NDo=     1
 LinEq1:  Iter=  5 NonCon=     1 RMS=4.56D-09 Max=9.82D-08 NDo=     1
 LinEq1:  Iter=  6 NonCon=     1 RMS=1.38D-09 Max=2.82D-08 NDo=     1
 LinEq1:  Iter=  7 NonCon=     1 RMS=5.65D-10 Max=1.50D-08 NDo=     1
 LinEq1:  Iter=  8 NonCon=     1 RMS=2.03D-10 Max=4.19D-09 NDo=     1
 LinEq1:  Iter=  9 NonCon=     0 RMS=5.68D-11 Max=1.13D-09 NDo=     1
 Linear equations converged to 3.887D-10 3.887D-09 after     9 iterations.
 SCF Done:  E(UPM6) =   1.80558971359     a.u. after   51 cycles
            Convg  =    0.1000D-05                   223 Fock formations.
              S**2 =  4.4798                  -V/T =  1.0172
 <Sx>= 0.0000 <Sy>= 0.0000 <Sz>= 0.5000 <S**2>= 4.4798 S= 1.6748
 <L.S>= 0.000000000000E+00
 Annihilation of the first spin contaminant:
 S**2 before annihilation     4.4798,   after    15.5801

 **********************************************************************

            Population analysis using the SCF density.

 **********************************************************************

 Orbital symmetries:
 Alpha Orbitals:
       Occupied  (A) (A) (A) (A) (A) (A) (A) (A) (A) (A) (A) (A)
                 (A) (A) (A) (A) (A) (A) (A) (A) (A) (A) (A) (A)
                 (A) (A) (A) (A) (A) (A) (A) (A) (A) (A) (A) (A)
                 (A) (A) (A) (A) (A) (A) (A) (A) (A) (A) (A) (A)
                 (A) (A) (A) (A) (A) (A) (A) (A) (A) (A) (A) (A)
                 (A) (A) (A) (A) (A) (A) (A) (A) (A) (A) (A) (A)
                 (A) (A)
       Virtual   (A) (A) (A) (A) (A) (A) (A) (A) (A) (A) (A) (A)
                 (A) (A) (A) (A) (A) (A) (A) (A) (A) (A) (A) (A)
                 (A) (A) (A) (A) (A) (A) (A) (A) (A) (A) (A) (A)
                 (A) (A) (A) (A) (A) (A) (A) (A) (A) (A) (A) (A)
                 (A) (A) (A) (A) (A) (A) (A) (A) (A) (A) (A) (A)
                 (A) (A) (A) (A) (A) (A) (A) (A) (A) (A) (A) (A)
                 (A)
 Beta  Orbitals:
       Occupied  (A) (A) (A) (A) (A) (A) (A) (A) (A) (A) (A) (A)
                 (A) (A) (A) (A) (A) (A) (A) (A) (A) (A) (A) (A)
                 (A) (A) (A) (A) (A) (A) (A) (A) (A) (A) (A) (A)
                 (A) (A) (A) (A) (A) (A) (A) (A) (A) (A) (A) (A)
                 (A) (A) (A) (A) (A) (A) (A) (A) (A) (A) (A) (A)
                 (A) (A) (A) (A) (A) (A) (A) (A) (A) (A) (A) (A)
                 (A)
       Virtual   (A) (A) (A) (A) (A) (A) (A) (A) (A) (A) (A) (A)
                 (A) (A) (A) (A) (A) (A) (A) (A) (A) (A) (A) (A)
                 (A) (A) (A) (A) (A) (A) (A) (A) (A) (A) (A) (A)
                 (A) (A) (A) (A) (A) (A) (A) (A) (A) (A) (A) (A)
                 (A) (A) (A) (A) (A) (A) (A) (A) (A) (A) (A) (A)
                 (A) (A) (A) (A) (A) (A) (A) (A) (A) (A) (A) (A)
                 (A) (A)
 The electronic state is 2-A.
 Alpha  occ. eigenvalues --   -1.61674  -1.21901  -1.14273  -1.10135  -1.08923
 Alpha  occ. eigenvalues --   -1.07305  -1.05892  -1.03411  -1.02495  -1.00406
 Alpha  occ. eigenvalues --   -0.98715  -0.96443  -0.94491  -0.92984  -0.89527
 Alpha  occ. eigenvalues --   -0.88725  -0.85451  -0.82303  -0.80834  -0.80036
 Alpha  occ. eigenvalues --   -0.79464  -0.78565  -0.74215  -0.73747  -0.71747
 Alpha  occ. eigenvalues --   -0.69295  -0.67660  -0.64276  -0.63777  -0.60887
 Alpha  occ. eigenvalues --   -0.59644  -0.59284  -0.58227  -0.58062  -0.57247
 Alpha  occ. eigenvalues --   -0.56240  -0.55744  -0.55282  -0.54486  -0.52957
 Alpha  occ. eigenvalues --   -0.52583  -0.51886  -0.51361  -0.50666  -0.50433
 Alpha  occ. eigenvalues --   -0.50096  -0.49372  -0.48524  -0.48426  -0.48038
 Alpha  occ. eigenvalues --   -0.47048  -0.46828  -0.46217  -0.45538  -0.45116
 Alpha  occ. eigenvalues --   -0.44407  -0.43842  -0.43073  -0.42804  -0.40826
 Alpha  occ. eigenvalues --   -0.40572  -0.40192  -0.39226  -0.38456  -0.37600
 Alpha  occ. eigenvalues --   -0.36083  -0.35167  -0.33924  -0.33077  -0.32118
 Alpha  occ. eigenvalues --   -0.30728  -0.29524  -0.26964  -0.25157
 Alpha virt. eigenvalues --   -0.02180  -0.01406  -0.00468   0.00583   0.00870
 Alpha virt. eigenvalues --    0.02894   0.03869   0.04540   0.05110   0.05429
 Alpha virt. eigenvalues --    0.05852   0.06880   0.07368   0.07510   0.08572
 Alpha virt. eigenvalues --    0.10151   0.10816   0.11060   0.11946   0.12184
 Alpha virt. eigenvalues --    0.12478   0.12977   0.13528   0.14569   0.14896
[...]
 0.02528216,0.01258972,0.01133103,-0.00022370,0.00001370,-0.00002833,-0
 .00000325,0.00000244,-0.00000514,0.00033491,0.00054807,-0.00027343,0.0
 0004000,0.00007613,0.00002402,0.00001451,0.00003414,-0.00001259,-0.000
 01074,0.00002944,-0.00001232,-0.00001390,0.00002188,-0.00000772,-0.000
 01288,0.00001768,-0.00000475,-0.00002458,-0.00000121,-0.00000841,-0.00
 001197,-0.00001757,-0.00000279,-0.00001471,-0.00002175,-0.00000077,-0.
 00001563,-0.00003389,-0.00000610,0.00001435,-0.00003566,-0.00001032,0.
 00004560,-0.00007632,-0.00000215,0.00035953,-0.00036888,-0.00048413,0.
 25270446,-0.00000477,-0.00000773,-0.00000422,-0.00002509,0.00000284,0.
 00000608,0.00001823,-0.00011310,0.00000097,-0.00111107,-0.00214262,-0.
 00104500,-0.01255069,-0.03434313,0.00452309,-0.00050761,-0.00011562,0.
 00022645,-0.02954128,-0.01049687,0.00577178,0.00000640,-0.00000043,0.0
 0000336,0.00000431,0.00000090,0.00000161,-0.00000969,-0.00000479,-0.00
 000244,-0.00000078,-0.00000074,0.00000028,0.00000192,0.00000508,0.0000
 0084,-0.00000284,0.00001365,-0.00000145,0.00001439,0.00000746,-0.00000
 482,-0.00000187,0.00000122,-0.00000021,-0.00001484,-0.00000254,0.00008
 307,0.00001761,0.00000885,0.00000753,0.00000305,-0.00000388,0.00000232
 ,0.00058477,-0.00210267,-0.00123192,0.00003727,-0.00008541,0.00007727,
 0.00001173,-0.00001114,0.00000472,0.00000868,0.00002584,0.00000242,-0.
 00000187,-0.00000717,0.00000202,0.00007172,-0.00004743,-0.00006834,-0.
 00001244,-0.00000609,-0.00000483,-0.00000383,0.00000593,0.00000251,0.0
 2569472,-0.00435945,-0.00954569,0.00043602,-0.00000167,-0.00009990,0.0
 0001926,0.00000388,-0.00000145,0.00096976,-0.00028661,-0.00014906,0.00
 003266,0.00006432,-0.00004538,0.00000825,0.00001131,-0.00000804,0.0000
 0080,0.00000623,-0.00000338,-0.00000168,0.00000319,-0.00000186,-0.0000
 0107,0.00000153,-0.00000101,-0.00000165,0.00000018,-0.00000089,-0.0000
 0046,-0.00000106,-0.00000005,0.00000005,-0.00000016,-0.00000071,-0.000
 00166,0.00000196,0.00000044,-0.00000247,0.00000579,0.00000112,-0.00002
 555,0.00005060,0.00000354,-0.00072064,-0.00044937,0.00031862,0.0166254
 2,0.05440963,-0.00001903,-0.00000904,0.00000637,0.00000006,0.00001370,
 -0.00000660,-0.00018628,0.00006903,-0.00016097,0.00110474,-0.00145823,
 0.00412002,0.04637510,0.00367013,-0.05284297,0.00007221,0.00020644,-0.
 00013922,0.00340610,0.00232039,0.00520045,-0.00000934,-0.00000699,-0.0
 0000761,0.00000312,-0.00000448,-0.00000078,0.00001654,0.00000242,0.000
 00956,-0.00000878,-0.00000117,-0.00000719,-0.00000689,0.00000386,-0.00
 000454,0.00000689,-0.00002886,-0.00000418,-0.00000743,0.00000172,0.000
 00286,-0.00000402,0.00000618,-0.00000430,0.00002615,0.00015541,-0.0003
 8832,-0.00002101,0.00002000,-0.00000589,-0.00000788,0.00000558,-0.0000
 1008,0.00189203,-0.00096341,0.00384288,-0.00006011,-0.00005257,-0.0001
 8244,-0.00000695,0.00001159,0.00000060,-0.00002529,-0.00014087,-0.0000
 1047,-0.00000383,-0.00000655,-0.00000071,-0.00028728,-0.00016776,0.000
 17315,0.00002367,0.00003712,-0.00000560,0.00001044,-0.00000069,0.00000
 971,0.01321194,-0.00493114,0.00092685,0.00026364,-0.00009775,-0.000253
 31,-0.00000278,0.00000244,-0.00001061,-0.00025362,-0.00001862,-0.00098
 628,0.00000485,0.00000499,0.00010156,-0.00000999,-0.00000882,0.0000135
 0,0.00000244,-0.00000762,0.00000714,0.00000276,-0.00000594,0.00000539,
 0.00000280,-0.00000551,0.00000320,0.00000661,0.00000045,0.00000385,0.0
 0000259,0.00000470,0.00000266,0.00000401,0.00000604,0.00000385,0.00000
 488,0.00001052,0.00000561,-0.00000415,0.00001023,0.00001037,0.00000628
 ,0.00000840,0.00009465,-0.00062991,0.00022835,-0.00080576,-0.06497504,
 0.00117573,0.04126885,0.00037912,-0.00140514,-0.00007455,-0.00006039,0
 .00111152,0.00027209,-0.00354632,-0.00171060,0.00067324,-0.00011615,-0
 .00070679,-0.00025140,0.00005489,-0.00007181,-0.00004159,0.00064296,0.
 00054427,0.00007954,0.00007485,-0.00001914,-0.00001483,-0.00798186,0.0
 0325083,-0.00170197,-0.00166541,-0.00127711,-0.00115731,0.01669651,0.0
 0543497,0.00310006,-0.01692987,-0.03691284,-0.01102866,-0.00104634,-0.
 00246332,-0.00022455,-0.06418781,0.07811133,0.01007104,-0.12023431,0.0
 0394374,-0.08634551,0.00219193,0.00232615,0.00044631,-0.00068481,0.002
 22629,-0.00031644,-0.02391238,-0.08936022,0.02418332,-0.00393613,-0.00
 154622,-0.00069465,0.00009403,0.00021371,0.00008168,-0.00166681,0.0000
 7142,-0.00227279,-0.00353150,-0.00045907,0.00038668,-0.02086135,0.0116
 2366,0.00687590,-0.01571993,0.03082768,-0.01138801,-0.00186031,0.00002
 329,0.00079509,-0.02077642,-0.02296584,0.00767148,0.00257773,0.0033695
 9,-0.00843048,0.00000476,0.00011357,-0.00003737,-0.00074836,0.00015760
 ,-0.00000200,0.00276374,-0.00062375,0.00045598,-0.00004003,-0.00005006
 ,0.00002053,-0.00002609,-0.00006478,0.00010581,-0.00002686,0.00008796,
 -0.00000069,0.00001533,0.00006944,-0.00005139,-0.00019915,0.00001518,0
 .00012658,0.00007349,0.00017769,-0.00053100,-0.00025079,-0.00001696,-0
 .00013866,-0.00000350,-0.00022359,-0.00034081,-0.00024707,-0.00007661,
 0.00027689,0.00019510,-0.00018736,-0.00004407,-0.00012759,0.00012292,-
 0.00005992,-0.00006525,0.00007430,0.00008779,-0.00002961,0.00005054,0.
 00002959,-0.00007600,0.00000750,0.00003226,0.29371644,-0.00242584,-0.0
 0072092,-0.00018482,0.00042307,-0.00107659,-0.00031488,0.00092925,0.00
 249192,-0.00051154,-0.00015444,0.00079494,0.00037406,-0.00007482,-0.00
 022548,-0.00000244,-0.00076760,-0.00014406,0.00033205,0.00029732,-0.00
 004171,-0.00013887,0.00315464,-0.00397897,0.00051390,-0.00109373,-0.00
 307404,-0.00016811,-0.01478523,-0.03309647,-0.01612415,-0.01356038,0.0
 0510253,-0.00654637,0.00006185,0.00071061,-0.00000375,0.08242201,-0.15
 238346,-0.02538532,-0.00549731,0.00370570,-0.00308859,-0.00041180,0.00
 046160,-0.00011905,-0.00288908,-0.00370798,0.00036580,-0.05769402,-0.1
 6651787,0.03783166,-0.00322411,-0.00253831,0.00029001,-0.00011849,-0.0
 0001537,-0.00007241,-0.00211288,0.00394910,0.00005658,-0.00070333,-0.0
 0068539,-0.00001689,0.02332353,0.00200200,-0.00577130,0.00710730,-0.00
 472730,0.00289725,0.00166153,-0.00045014,-0.00072257,-0.03859117,-0.00
 838140,0.00039984,0.01523263,-0.02124742,0.01315746,-0.00016077,-0.000
 28315,0.00004052,0.00013867,0.00004864,-0.00008047,0.00114664,-0.00161
 281,0.00072864,-0.00003852,0.00004273,0.00001678,-0.00005856,-0.000069
 69,-0.00003026,-0.00018972,-0.00026678,0.00002362,0.00027376,-0.000084
 51,0.00021131,-0.00018935,0.00003064,0.00065950,0.00003445,-0.00002970
 ,0.00007889,-0.00000231,-0.00003227,-0.00000047,-0.00041909,0.00025306
 ,0.00003199,0.00003844,-0.00027465,-0.00017235,-0.00007254,-0.00018363
 ,-0.00003681,0.00010902,-0.00024704,0.00001868,0.00000703,-0.00005755,
 -0.00001896,0.00000120,0.00005829,-0.00000521,0.00000165,-0.00002072,-
 0.00000588,0.01134906,0.38499751,-0.00116611,-0.00100053,0.00156290,-0
 .00011181,-0.00031428,-0.00010724,0.00103128,-0.00006092,0.00191252,-0
 .00022728,0.00006437,0.00018250,-0.00003387,-0.00010110,-0.00002150,-0
 .00008442,0.00011475,-0.00016443,0.00013515,0.00014664,-0.00007364,-0.
 00192588,-0.00063338,-0.00207276,0.00071698,-0.00098755,0.00196400,0.0
 0113396,-0.01186816,-0.00162590,-0.01421055,-0.01556287,-0.00521815,-0
 .00052380,0.00019831,-0.00018213,0.02730158,-0.03875933,-0.03168523,-0
 .09591854,0.00972258,-0.07931173,-0.00021516,0.00131426,0.00205549,-0.
 00136392,-0.00055753,-0.00083165,0.00829035,0.03895472,-0.02541183,-0.
 00134015,-0.00112080,-0.00141239,0.00004547,-0.00000812,0.00002391,-0.
 00106389,-0.00052765,0.00294547,0.00032992,0.00172982,0.00016610,0.007
 88133,-0.00389454,0.00043245,-0.00998000,0.01122415,-0.00719354,0.0004
 4522,-0.00025938,-0.00005497,0.00901993,0.00136381,0.00293753,0.000699
 51,0.00696588,0.00090128,-0.00003157,0.00006428,-0.00003617,0.00037789
 ,-0.00038453,0.00008551,-0.00116157,0.00088195,-0.00060937,0.00003261,
 0.00002694,0.00002314,-0.00000114,0.00007395,0.00003706,0.00006087,0.0
 0002249,-0.00007081,0.00009869,0.00014295,-0.00010706,-0.00007258,0.00
 006431,0.00014549,-0.00017424,0.00001937,-0.00002042,0.00005624,-0.000
 03206,-0.00019967,-0.00002749,-0.00010679,-0.00004680,-0.00009100,-0.0
 0006723,0.00021592,0.00009058,-0.00015262,-0.00002563,-0.00005686,0.00
 007713,-0.00013530,0.00003477,-0.00003142,0.00002489,0.00003016,-0.000
 03962,0.00001565,0.00004096,0.00000726,0.00001171,0.06892048,0.0034467
 8,0.14063761,0.00036135,-0.00026911,-0.00017544,-0.00017910,-0.0005857
 9,-0.00035205,-0.00129756,-0.00169005,0.00139829,-0.00127292,-0.002072
 03,0.00220980,0.00022210,-0.00006956,-0.00012623,0.00035968,0.00032090
 ,-0.00020751,-0.00000413,0.00018381,-0.00018507,0.00013670,-0.00002790
 ,0.00016626,0.00014222,0.00025026,0.00018196,-0.00059732,0.00107311,0.
 00068104,0.00055790,-0.00013048,0.00039467,0.00009514,0.00011553,0.000
 03331,-0.00112499,-0.00110016,-0.00073588,-0.00063239,0.00189256,-0.00
 185917,-0.00019361,-0.00006925,0.00007050,-0.08123052,0.03831784,0.035
 92448,-0.03075610,0.02504761,-0.02032302,-0.00013016,0.00018308,-0.000
 13132,-0.00232461,0.00050196,0.00149790,0.00925852,-0.00745931,0.00475
 201,-0.00031930,-0.00053619,0.00032897,0.01281244,-0.00620862,-0.00632
 329,0.00006958,-0.00004059,0.00005145,-0.02477765,0.01348807,0.0264227
 7,-0.08819345,0.05732869,-0.03790683,-0.00275313,-0.00009775,-0.000722
 12,0.00003332,0.00071804,-0.00020908,0.00029869,-0.00219045,0.00066375
 ,-0.00121850,-0.00230839,0.00163804,0.00009692,-0.00011142,0.00009289,
 0.00002100,0.00011729,0.00026775,0.00039086,-0.00021139,0.00008959,-0.
 00010346,0.00013090,-0.00013380,-0.00012373,0.00004675,-0.00005509,-0.
 00002644,0.00005061,-0.00002724,-0.00007700,-0.00000363,-0.00005797,0.
 00000988,-0.00009158,-0.00000176,-0.00001904,-0.00005030,-0.00004640,-
 0.00000455,0.00010892,0.00004003,-0.00008166,-0.00014564,0.00003058,-0
 .00014930,0.00020029,-0.00008436,-0.00005474,0.00002852,0.00005802,-0.
 00007521,-0.00001149,0.00008608,-0.00396788,-0.00699293,0.00254065,0.2
 7200094,-0.00034847,0.00055733,0.00006224,0.00073193,0.00005997,0.0001
 9106,-0.00134154,-0.00059733,-0.00179209,-0.00159632,0.00058052,-0.000
 61437,-0.00027613,-0.00005220,0.00014915,-0.00067732,-0.00005386,0.000
 46244,-0.00023723,0.00052079,0.00029256,0.00039664,0.00015628,0.000140
 31,-0.00014303,-0.00004824,-0.00011211,-0.00035688,-0.00157087,-0.0002
 8415,0.00015760,0.00099662,0.00007398,-0.00000422,-0.00007560,-0.00000
 122,0.00004717,0.00040778,0.00166771,-0.00572017,-0.00027038,-0.000764
 88,0.00020750,-0.00035349,0.00016423,0.04244198,-0.14287797,-0.0723262
 6,0.02304599,0.00018153,0.00502088,-0.00055766,0.00037995,-0.00065089,
 -0.00094735,0.00083086,0.00101696,-0.00612787,-0.02943582,0.02691940,0
 .00136148,0.00084305,-0.00059847,-0.00546244,-0.03699765,-0.02310929,0
 .00086172,-0.00073598,-0.00057812,0.01441714,0.00677858,-0.01022780,0.
 04570064,-0.15776448,0.06697886,-0.00120984,-0.00172309,0.00572963,0.0
 0013645,-0.00115925,-0.00001384,-0.00092038,-0.00064598,0.00038054,-0.
 00194494,0.00168723,0.00094396,-0.00011685,0.00019013,0.00005750,0.000
 19180,-0.00005719,0.00008288,-0.00018769,-0.00021915,0.00004126,0.0001
 4564,-0.00044475,-0.00003951,-0.00000208,-0.00012181,-0.00005216,0.000
 02611,0.00001273,0.00009143,0.00007379,-0.00001716,0.00002774,0.000018
 50,0.00007526,0.00002897,-0.00002540,-0.00003429,-0.00002592,-0.000103
 79,-0.00012175,-0.00007726,0.00000058,-0.00004894,-0.00006492,0.000222
 23,-0.00030998,-0.00001350,-0.00012997,-0.00004106,-0.00004443,0.00014
 730,-0.00000568,-0.00007616,0.00497963,0.00496171,-0.00200727,-0.10368
 105,0.40645704,0.00043897,0.00028121,-0.00016349,-0.00047259,0.0003584
 4,-0.00023528,0.00147665,-0.00119364,0.00179792,0.00181814,-0.00081197
 ,0.00225709,-0.00033102,-0.00040867,-0.00001573,-0.00089715,0.00126181
 ,0.00040298,0.00008760,0.00038946,-0.00029204,0.00014939,0.00051322,-0
 .00006407,0.00043033,0.00004173,0.00007903,0.00044145,-0.00073335,0.00
 021137,-0.00023295,0.00054968,-0.00030264,0.00019635,0.00031074,-0.000
 01439,-0.00360023,0.00001115,-0.00197469,-0.00108200,-0.00041295,-0.00
 112809,-0.00018278,-0.00028160,-0.00005075,0.04206643,-0.07952245,-0.1
 1040527,-0.01790857,0.00916177,-0.00169685,0.00019165,-0.00110832,-0.0
 0008889,0.00286448,0.00235865,-0.00182451,0.00055662,0.02511112,-0.013
 36559,0.00081535,-0.00111993,0.00034579,-0.00167412,-0.02058816,-0.003
 25142,0.00128591,-0.00042956,0.00030975,0.02156343,-0.01215050,-0.0144
 7467,-0.03673420,0.07726627,-0.09506220,-0.00036132,0.00252365,0.00475
 145,-0.00089529,-0.00033804,0.00002823,0.00137779,-0.00008837,-0.00210
 856,0.00105741,0.00111177,0.00196702,0.00011582,0.00033406,0.00024211,
 0.00017341,0.00050504,0.00044561,0.00009103,0.00038543,-0.00007615,-0.
 00012534,0.00014246,-0.00045148,0.00001715,0.00018376,-0.00007738,-0.0
 0011739,0.00010311,0.00010441,-0.00010412,-0.00000466,-0.00000510,-0.0
 0009638,-0.00011141,0.00005458,-0.00007981,-0.00015716,0.00009807,-0.0
 0011708,-0.00023957,0.00008073,0.00013946,-0.00017807,0.00006759,0.000
 15013,-0.00027884,-0.00035108,0.00016288,-0.00023824,-0.00002568,0.000
 35342,0.00002555,0.00001971,0.00652153,-0.00108167,0.00601962,-0.00009
 565,-0.04500315,0.98075188,-0.00004685,0.00008588,0.00004728,0.0000730
 4,0.00009246,0.00007179,0.00022935,0.00031320,-0.00042372,0.00006007,0
 .00031738,-0.00034982,-0.00004196,0.00002967,0.00005079,-0.00008331,-0
 .00003820,0.00010248,-0.00003287,-0.00000114,0.00009847,-0.00004719,0.
 00003187,-0.00008256,-0.00001777,-0.00007641,-0.00004744,0.00020137,-0
 .00036976,-0.00009822,-0.00025614,0.00010839,-0.00012432,-0.00002426,0
 .00000882,-0.00002102,-0.00028296,-0.00071186,-0.00109555,0.00047735,-
 0.00088477,0.00019866,0.00003540,-0.00003841,-0.00000637,0.01276766,0.
 00905386,0.01738808,0.00026585,-0.00071133,0.00036215,0.00009186,-0.00
 001868,-0.00003083,-0.00003071,-0.00027765,0.00015394,-0.00175071,0.00
 127562,-0.00135230,0.00015642,0.00000449,-0.00003201,-0.00213676,0.000
 23495,0.00127578,0.00014839,-0.00011915,0.00008840,0.00108993,0.000154
 20,-0.00110406,0.01390078,0.00981098,-0.01775076,-0.00000172,0.0002328
 6,0.00025303,0.00007518,-0.00015646,0.00007897,-0.00042265,0.00014496,
 0.00027042,0.00058457,0.00072897,-0.00015058,-0.00002491,0.00001707,-0
 .00006847,-0.00001243,-0.00003648,-0.00012007,-0.00014752,0.00005294,-
 0.00001081,0.00001584,-0.00003620,-0.00000263,0.00002691,-0.00002977,0
 .00002022,0.00000983,-0.00002335,0.00002190,0.00003978,0.00000045,0.00
 002665,-0.00000264,0.00003483,0.00000724,0.00000672,0.00002409,0.00002
 855,-0.00000539,-0.00003658,-0.00001024,0.00000430,0.00004828,-0.00000
 377,0.00002875,-0.00004749,-0.00000601,-0.00000456,-0.00000426,-0.0000
 3769,0.00001335,0.00000558,-0.00004203,-0.00028970,0.00168182,0.000731
 74,-0.05555258,-0.00355168,-0.01719251,0.03106408,0.00009455,-0.000138
 74,-0.00005849,-0.00017163,-0.00005829,-0.00012203,0.00004707,-0.00009
 808,0.00046290,0.00063054,-0.00002338,0.00030440,0.00005825,0.00001029
 ,-0.00003775,0.00010588,0.00006436,-0.00013564,0.00007117,-0.00012728,
 -0.00009892,-0.00009135,0.00000663,-0.00004205,0.00011449,0.00002423,0
 .00005842,0.00016568,0.00027803,0.00016957,-0.00008345,-0.00020210,-0.
 00007864,0.00000750,0.00008606,-0.00000706,-0.00089726,-0.00077651,-0.
 00143744,0.00120678,0.00011411,0.00002391,-0.00012056,0.00005600,-0.00
 004872,0.00766009,0.00417680,-0.02983730,-0.00031686,-0.00138000,0.001
 60792,0.00012387,-0.00014950,0.00017343,-0.00011621,-0.00014193,-0.000
 06357,0.00227953,0.00013768,-0.00074503,-0.00029720,-0.00012215,0.0001
 1273,0.00102675,0.00024982,0.00027957,-0.00003693,0.00007508,0.0001605
 8,-0.00049788,-0.00266472,-0.00074470,0.01038548,-0.00336414,0.0360561
 4,0.00047270,0.00012068,-0.00116337,-0.00002182,0.00029101,0.00001291,
 0.00001266,0.00011606,0.00026855,-0.00004754,-0.00081358,-0.00001317,0
 .00002064,-0.00006417,-0.00002518,-0.00002159,-0.00000245,-0.00007364,
 0.00011288,-0.00004085,-0.00002684,-0.00004120,0.00011699,-0.00000156,
 0.00000149,0.00002638,-0.00000118,-0.00000959,-0.00001341,-0.00001261,
 -0.00001090,0.00000460,-0.00000498,-0.00000609,-0.00002492,-0.00000039
 ,0.00000858,0.00000126,0.00002381,0.00002651,0.00003278,0.00004126,-0.
 00001009,0.00000240,0.00004256,-0.00004532,0.00005664,0.00001769,0.000
 04283,0.00000305,0.00002108,-0.00003488,0.00000235,0.00002358,0.000107
 56,-0.00115585,0.00125761,-0.00474802,-0.05001982,0.04351153,-0.017038
 83,0.05585518,0.00000339,-0.00029927,-0.00005815,0.00001729,-0.0003718
 7,-0.00004851,-0.00032728,-0.00020505,0.00044520,0.00070996,0.00001496
 ,0.00010922,0.00026563,-0.00000062,-0.00004083,0.00031886,-0.00018343,
 -0.00004014,0.00026103,-0.00047293,-0.00005759,-0.00017156,-0.00029554
 ,0.00009834,-0.00020139,-0.00002731,-0.00006372,0.00010121,0.00072608,
 0.00004299,-0.00003452,-0.00011935,-0.00004178,-0.00012264,-0.00006985
 ,-0.00000213,-0.00053345,-0.00116328,0.00012650,-0.00128385,-0.0005501
 5,0.00065432,0.00006800,-0.00002105,0.00002977,0.01609859,-0.02784342,
 -0.06160481,0.00277582,-0.00031523,-0.00124877,-0.00015645,0.00049675,
 -0.00003868,-0.00039500,0.00018582,-0.00018348,-0.00464277,-0.00149924
 ,0.00125771,-0.00013348,0.00018625,-0.00002141,0.00348839,0.00253488,-
 0.00122097,-0.00021494,-0.00021688,-0.00013722,-0.00356188,-0.00343274
 ,0.00093577,-0.01550222,0.03211687,-0.05107495,-0.00057456,0.00056145,
 -0.00035633,0.00021008,0.00026608,0.00014909,0.00069611,0.00021771,0.0
 0012456,0.00071645,0.00123487,-0.00007569,-0.00009670,-0.00019679,-0.0
 0013051,-0.00013896,-0.00029110,-0.00014879,-0.00029041,-0.00006121,-0
 .00007397,0.00008569,-0.00025243,-0.00002231,0.00005369,-0.00016404,-0
 .00005890,0.00008896,-0.00007606,-0.00003596,0.00009720,0.00000200,0.0
 0001790,0.00007013,0.00008793,-0.00002343,0.00005661,0.00010983,-0.000
 05228,0.00007978,0.00016622,-0.00002091,-0.00011306,0.00010627,-0.0000
 1482,-0.00016206,0.00022966,-0.00006485,-0.00005405,0.00019346,-0.0000
 1521,-0.00022755,-0.00001045,-0.00000542,-0.00814737,0.00008570,-0.005
 56040,-0.01005439,0.04826745,-0.75166173,0.01898570,-0.04985091,0.8698
 4336||-0.00002330,0.00000548,0.00000023,0.00003148,0.00000519,-0.00000
 671,-0.00002192,-0.00000530,0.00000337,-0.00000632,-0.00001622,-0.0000
 0583,0.00000110,0.00001607,0.00000070,0.00001224,0.00001091,-0.0000025
 7,-0.00000764,-0.00000890,0.00000440,-0.00000191,-0.00000001,0.0000053
 0,0.00000133,-0.00000815,0.00000032,0.00001818,-0.00000231,-0.00001433
 ,0.00000724,0.00000542,-0.00000078,-0.00000437,-0.00000009,-0.00000225
 ,-0.00002235,-0.00003644,0.00001407,-0.00001941,0.00003558,-0.00000328
 ,-0.00000416,-0.00000436,-0.00000070,0.00002907,-0.00003559,-0.0000254
 5,-0.00001713,-0.00006967,0.00001267,-0.00001950,0.00000510,-0.0000008
 1,-0.00001911,0.00001671,0.00000501,-0.00002435,-0.00000333,0.00001668
 ,-0.00005402,-0.00002085,-0.00000099,0.00000557,0.00002807,0.00002703,
 -0.00000526,-0.00000684,0.00000055,-0.00001545,0.00001901,0.00000797,0
 .00000021,0.00006607,-0.00001321,0.00005151,0.00004990,-0.00000081,0.0
 0001085,-0.00001940,-0.00000548,0.00002645,-0.00000866,-0.00001001,0.0
 0005414,0.00000599,-0.00000177,0.00000003,0.00000451,0.00000423,-0.000
 00633,-0.00000165,-0.00000023,-0.00001046,-0.00000334,0.00000229,0.000
 00620,0.00000523,-0.00000072,0.00000314,0.00000182,-0.00000116,-0.0000
 0265,0.00000212,-0.00000178,0.00000042,0.00000081,0.00000171,0.0000011
 5,0.00000162,-0.00000159,0.00000053,0.00000095,0.00000212,0.00000494,0
 .00000246,0.00000139,-0.00000542,0.00000337,0.00000313,-0.00000484,-0.
 00000004,0.00000017,-0.00000054,0.00000216,-0.00000202,-0.00000067,-0.
 00000173,0.00000077,0.00000783,-0.00004358,-0.00000292,0.00006439,-0.0
 0004180,0.00001653,-0.00004090,0.00004368,-0.00002523|||@


 "TIGER, TIGER BURNING BRIGHT
 IN THE FOREST OF THE NIGHT.
 WHAT IMMORTAL HAND OR EYE
 CAN FRAME THY FEARFUL SYMMETRYE?"
                     - WILLIAM BLAKE
 Job cpu time:       0 days  0 hours  0 minutes 26.0 seconds.
 File lengths (MBytes):  RWF=    881 Int=      0 D2E=      0 Chk=      6 Scr=      1
 Normal termination of Gaussian 09 at Thu Mar 12 11:34:32 2026.
