 Entering Link 1 = C:\Gaussian\G09W\l1.exe PID=     11576.
  
 Copyright (c) 1988,1990,1992,1993,1995,1998,2003,2009,2013,
            Gaussian, Inc.  All Rights Reserved.
  
 This is part of the Gaussian(R) 09 program.  It is based on
 the Gaussian(R) 03 system (copyright 2003, Gaussian, Inc.),
 the Gaussian(R) 98 system (copyright 1998, Gaussian, Inc.),
 the Gaussian(R) 94 system (copyright 1995, Gaussian, Inc.),
 the Gaussian 92(TM) system (copyright 1992, Gaussian, Inc.),
 the Gaussian 90(TM) system (copyright 1990, Gaussian, Inc.),
 the Gaussian 88(TM) system (copyright 1988, Gaussian, Inc.),
 the Gaussian 86(TM) system (copyright 1986, Carnegie Mellon
 University), and the Gaussian 82(TM) system (copyright 1983,
 Carnegie Mellon University). Gaussian is a federally registered
 trademark of Gaussian, Inc.
  
 This software contains proprietary and confidential information,
 including trade secrets, belonging to Gaussian, Inc.
  
 This software is provided under written license and may be
 used, copied, transmitted, or stored only in accord with that
 written license.
  
 The following legend is applicable only to US Government
 contracts under FAR:
  
                    RESTRICTED RIGHTS LEGEND
  
 Use, reproduction and disclosure by the US Government is
 subject to restrictions as set forth in subparagraphs (a)
 and (c) of the Commercial Computer Software - Restricted
 Rights clause in FAR 52.227-19.
  
 Gaussian, Inc.
 340 Quinnipiac St., Bldg. 40, Wallingford CT 06492
  
  
 ---------------------------------------------------------------
 Warning -- This program may not be used in any manner that
 competes with the business of Gaussian, Inc. or will provide
 assistance to any competitor of Gaussian, Inc.  The licensee
 of this program is prohibited from giving any competitor of
 Gaussian, Inc. access to this program.  By using this program,
 the user acknowledges that Gaussian, Inc. is engaged in the
 business of creating and licensing software in the field of
 computational chemistry and represents and warrants to the
 licensee that it is not a competitor of Gaussian, Inc. and that
 it will not use this program in any manner prohibited above.
 ---------------------------------------------------------------
  

 Cite this work as:
 Gaussian 09, Revision D.01,
 M. J. Frisch, G. W. Trucks, H. B. Schlegel, G. E. Scuseria, 
 M. A. Robb, J. R. Cheeseman, G. Scalmani, V. Barone, B. Mennucci, 
 G. A. Petersson, H. Nakatsuji, M. Caricato, X. Li, H. P. Hratchian, 
 A. F. Izmaylov, J. Bloino, G. Zheng, J. L. Sonnenberg, M. Hada, 
 M. Ehara, K. Toyota, R. Fukuda, J. Hasegawa, M. Ishida, T. Nakajima, 
 Y. Honda, O. Kitao, H. Nakai, T. Vreven, J. A. Montgomery, Jr., 
 J. E. Peralta, F. Ogliaro, M. Bearpark, J. J. Heyd, E. Brothers, 
 K. N. Kudin, V. N. Staroverov, T. Keith, R. Kobayashi, J. Normand, 
 K. Raghavachari, A. Rendell, J. C. Burant, S. S. Iyengar, J. Tomasi, 
 M. Cossi, N. Rega, J. M. Millam, M. Klene, J. E. Knox, J. B. Cross, 
 V. Bakken, C. Adamo, J. Jaramillo, R. Gomperts, R. E. Stratmann, 
 O. Yazyev, A. J. Austin, R. Cammi, C. Pomelli, J. W. Ochterski, 
 R. L. Martin, K. Morokuma, V. G. Zakrzewski, G. A. Voth, 
 P. Salvador, J. J. Dannenberg, S. Dapprich, A. D. Daniels, 
 O. Farkas, J. B. Foresman, J. V. Ortiz, J. Cioslowski, 
 and D. J. Fox, Gaussian, Inc., Wallingford CT, 2013.
 
 ******************************************
 Gaussian 09:  IA32W-G09RevD.01 24-Apr-2013
                11-Mar-2026 
 ******************************************
 %chk=C:\Users\User\Desktop\IMRG\ECE+ML\Mn_Gr_NS.chk
 ---------------------------------------
 # opt freq pm6 scf=qc geom=connectivity
 ---------------------------------------
 1/14=-1,18=20,19=15,26=1,38=1,57=2/1,3;
 2/9=110,12=2,17=6,18=5,40=1/2;
 3/5=2,16=1,25=1,41=3900000,71=1/1,2,3;
 4/35=1/1;
 5/5=2,8=3,35=1,38=5/8;
 6/7=2,8=2,9=2,10=2,28=1/1;
 7//1,2,3,16;
 1/14=-1,18=20,19=15,26=1/3(2);
 2/9=110/2;
 99//99;
 2/9=110/2;
 3/5=2,16=1,25=1,41=3900000,71=1,135=20/1,2,3;
 4/5=5,16=3,35=1/1;
 5/5=2,8=3,35=1,38=5/8;
 7//1,2,3,16;
 1/14=-1,18=20,19=15,26=1/3(-5);
 2/9=110/2;
 6/7=2,8=2,9=2,10=2,19=2,28=1/1;
 99/9=1/99;
 --------
 Mn_Gr_NS
 --------
 Symbolic Z-matrix:
 Charge =  0 Multiplicity = 2
 C                    -1.48734   1.25527   0. 
 C                    -0.11458   1.26757   0.00021 
 C                     0.63784   2.49562   0.00024 
 C                     2.76155   3.73782  -0.0001 
 C                     4.87637   4.98541  -0.00058 
 C                     2.0603    2.51615  -0.00001 
 C                     4.19236   3.77104  -0.00038 
 C                    -3.68033   2.52318  -0.00036 
 C                    -5.85442   3.76459  -0.00032 
 C                    -2.22717   2.49171  -0.00016 
 C                    -4.4314    3.73294  -0.00038 
 C                    -6.52317   4.98925  -0.00022 
 C                    -1.49723   3.66543   0.00004 
 C                    -3.77063   4.98776  -0.00006 
 C                    -5.83173   6.21539  -0.00016 
 C                     0.61876   4.98443   0.00024 
 C                    -1.48853   6.30241   0.00019 
 C                    -3.64606   7.47395  -0.00004 
 C                     2.76334   6.23383  -0.00007 
 C                     0.64426   7.4887    0.0001 
 C                    -1.48605   8.7395   -0.00011 
 C                    -0.07268   3.72258   0.00025 
 C                    -4.42338   6.2256   -0.00018 
 C                     2.03942   4.98572   0.00009 
 C                    -0.08682   6.24592   0.00026 
 C                    -2.24783   7.50962   0.00012 
 C                     4.18329   6.20584  -0.00024 
 C                     2.05117   7.46407  -0.0001 
 C                    -0.10808   8.71832  -0.00011 
 H                     4.73683   7.14171  -0.00013 
 H                     2.60821   8.39816  -0.00027 
 H                     0.45062   9.65387  -0.00038 
 H                    -2.02415   9.68484  -0.0001 
 H                    -4.21082   8.4023   -0.00019 
 H                    -6.39162   7.1481   -0.0001 
 H                    -7.61353   5.00188  -0.00006 
 H                    -6.41745   2.83421  -0.00027 
 H                    -4.20834   1.57407  -0.00036 
 H                    -2.035     0.31468   0.00008 
 H                     0.44259   0.33017   0.00001 
 H                     2.60785   1.57708  -0.00018 
 H                     4.74181   2.8329   -0.00058 
 H                     5.96597   4.99136  -0.0008 
 Mn                   -2.25175   4.98582   0.00002 
 

 GradGradGradGradGradGradGradGradGradGradGradGradGradGradGradGradGradGrad
 Berny optimization.
 Initialization pass.
                           ----------------------------
                           !    Initial Parameters    !
                           ! (Angstroms and Degrees)  !
 --------------------------                            --------------------------
 ! Name  Definition              Value          Derivative Info.                !
 --------------------------------------------------------------------------------
 ! R1    R(1,2)                  1.3728         estimate D2E/DX2                !
 ! R2    R(1,10)                 1.4409         estimate D2E/DX2                !
 ! R3    R(1,39)                 1.0884         estimate D2E/DX2                !
 ! R4    R(2,3)                  1.4402         estimate D2E/DX2                !
 ! R5    R(2,40)                 1.0905         estimate D2E/DX2                !
 ! R6    R(3,6)                  1.4226         estimate D2E/DX2                !
 ! R7    R(3,22)                 1.4178         estimate D2E/DX2                !
 ! R8    R(4,6)                  1.4086         estimate D2E/DX2                !
 ! R9    R(4,7)                  1.4312         estimate D2E/DX2                !
 ! R10   R(4,24)                 1.4418         estimate D2E/DX2                !
 ! R11   R(5,7)                  1.3938         estimate D2E/DX2                !
 ! R12   R(5,27)                 1.4035         estimate D2E/DX2                !
 ! R13   R(5,43)                 1.0896         estimate D2E/DX2                !
 ! R14   R(6,41)                 1.087          estimate D2E/DX2                !
 ! R15   R(7,42)                 1.0872         estimate D2E/DX2                !
 ! R16   R(8,10)                 1.4535         estimate D2E/DX2                !
 ! R17   R(8,11)                 1.4239         estimate D2E/DX2                !
 ! R18   R(8,38)                 1.0861         estimate D2E/DX2                !
 ! R19   R(9,11)                 1.4234         estimate D2E/DX2                !
 ! R20   R(9,12)                 1.3954         estimate D2E/DX2                !
 ! R21   R(9,37)                 1.0875         estimate D2E/DX2                !
 ! R22   R(10,13)                1.3822         estimate D2E/DX2                !
 ! R23   R(11,14)                1.4182         estimate D2E/DX2                !
 ! R24   R(12,15)                1.4077         estimate D2E/DX2                !
 ! R25   R(12,36)                1.0904         estimate D2E/DX2                !
 ! R26   R(13,22)                1.4257         estimate D2E/DX2                !
 ! R27   R(13,44)                1.5208         estimate D2E/DX2                !
 ! R28   R(14,23)                1.3994         estimate D2E/DX2                !
 ! R29   R(14,44)                1.5189         estimate D2E/DX2                !
 ! R30   R(15,23)                1.4084         estimate D2E/DX2                !
 ! R31   R(15,35)                1.0879         estimate D2E/DX2                !
 ! R32   R(16,22)                1.4389         estimate D2E/DX2                !
 ! R33   R(16,24)                1.4207         estimate D2E/DX2                !
 ! R34   R(16,25)                1.4454         estimate D2E/DX2                !
 ! R35   R(17,25)                1.4028         estimate D2E/DX2                !
 ! R36   R(17,26)                1.4261         estimate D2E/DX2                !
 ! R37   R(17,44)                1.5218         estimate D2E/DX2                !
 ! R38   R(18,23)                1.4706         estimate D2E/DX2                !
 ! R39   R(18,26)                1.3987         estimate D2E/DX2                !
 ! R40   R(18,34)                1.0866         estimate D2E/DX2                !
 ! R41   R(19,24)                1.4429         estimate D2E/DX2                !
 ! R42   R(19,27)                1.4202         estimate D2E/DX2                !
 ! R43   R(19,28)                1.4215         estimate D2E/DX2                !
 ! R44   R(20,25)                1.4419         estimate D2E/DX2                !
 ! R45   R(20,28)                1.4071         estimate D2E/DX2                !
 ! R46   R(20,29)                1.4415         estimate D2E/DX2                !
 ! R47   R(21,26)                1.4467         estimate D2E/DX2                !
 ! R48   R(21,29)                1.3781         estimate D2E/DX2                !
 ! R49   R(21,33)                1.0878         estimate D2E/DX2                !
 ! R50   R(27,30)                1.0873         estimate D2E/DX2                !
 ! R51   R(28,31)                1.0876         estimate D2E/DX2                !
 ! R52   R(29,32)                1.0897         estimate D2E/DX2                !
 ! A1    A(2,1,10)             120.3811         estimate D2E/DX2                !
 ! A2    A(2,1,39)             120.7234         estimate D2E/DX2                !
 ! A3    A(10,1,39)            118.8954         estimate D2E/DX2                !
 ! A4    A(1,2,3)              122.0091         estimate D2E/DX2                !
 ! A5    A(1,2,40)             120.2126         estimate D2E/DX2                !
 ! A6    A(3,2,40)             117.7783         estimate D2E/DX2                !
 ! A7    A(2,3,6)              122.323          estimate D2E/DX2                !
 ! A8    A(2,3,22)             118.4295         estimate D2E/DX2                !
 ! A9    A(6,3,22)             119.2474         estimate D2E/DX2                !
 ! A10   A(6,4,7)              121.1867         estimate D2E/DX2                !
 ! A11   A(6,4,24)             120.0864         estimate D2E/DX2                !
 ! A12   A(7,4,24)             118.7269         estimate D2E/DX2                !
 ! A13   A(7,5,27)             121.017          estimate D2E/DX2                !
 ! A14   A(7,5,43)             119.7036         estimate D2E/DX2                !
 ! A15   A(27,5,43)            119.2794         estimate D2E/DX2                !
 ! A16   A(3,6,4)              120.6839         estimate D2E/DX2                !
 ! A17   A(3,6,41)             119.4183         estimate D2E/DX2                !
 ! A18   A(4,6,41)             119.8978         estimate D2E/DX2                !
 ! A19   A(4,7,5)              120.7208         estimate D2E/DX2                !
 ! A20   A(4,7,42)             119.0266         estimate D2E/DX2                !
 ! A21   A(5,7,42)             120.2526         estimate D2E/DX2                !
 ! A22   A(10,8,11)            123.0746         estimate D2E/DX2                !
 ! A23   A(10,8,38)            117.8469         estimate D2E/DX2                !
 ! A24   A(11,8,38)            119.0785         estimate D2E/DX2                !
 ! A25   A(11,9,12)            119.9113         estimate D2E/DX2                !
 ! A26   A(11,9,37)            119.9067         estimate D2E/DX2                !
 ! A27   A(12,9,37)            120.182          estimate D2E/DX2                !
 ! A28   A(1,10,8)             122.1353         estimate D2E/DX2                !
 ! A29   A(1,10,13)            117.2279         estimate D2E/DX2                !
 ! A30   A(8,10,13)            120.6368         estimate D2E/DX2                !
 ! A31   A(8,11,9)             123.1078         estimate D2E/DX2                !
 ! A32   A(8,11,14)            120.3955         estimate D2E/DX2                !
 ! A33   A(9,11,14)            116.4967         estimate D2E/DX2                !
 ! A34   A(9,12,15)            121.9432         estimate D2E/DX2                !
 ! A35   A(9,12,36)            119.3009         estimate D2E/DX2                !
 ! A36   A(15,12,36)           118.7559         estimate D2E/DX2                !
 ! A37   A(10,13,22)           124.1752         estimate D2E/DX2                !
 ! A38   A(10,13,44)           118.3771         estimate D2E/DX2                !
 ! A39   A(22,13,44)           117.4477         estimate D2E/DX2                !
 ! A40   A(11,14,23)           124.4256         estimate D2E/DX2                !
 ! A41   A(11,14,44)           117.6975         estimate D2E/DX2                !
 ! A42   A(23,14,44)           117.8769         estimate D2E/DX2                !
 ! A43   A(12,15,23)           119.8349         estimate D2E/DX2                !
 ! A44   A(12,15,35)           119.6049         estimate D2E/DX2                !
 ! A45   A(23,15,35)           120.5602         estimate D2E/DX2                !
 ! A46   A(22,16,24)           118.7733         estimate D2E/DX2                !
 ! A47   A(22,16,25)           122.0594         estimate D2E/DX2                !
 ! A48   A(24,16,25)           119.1674         estimate D2E/DX2                !
 ! A49   A(25,17,26)           124.4765         estimate D2E/DX2                !
 ! A50   A(25,17,44)           117.7927         estimate D2E/DX2                !
 ! A51   A(26,17,44)           117.7308         estimate D2E/DX2                !
 ! A52   A(23,18,26)           123.3713         estimate D2E/DX2                !
 ! A53   A(23,18,34)           116.7761         estimate D2E/DX2                !
 ! A54   A(26,18,34)           119.8525         estimate D2E/DX2                !
 ! A55   A(24,19,27)           118.9848         estimate D2E/DX2                !
 ! A56   A(24,19,28)           119.8195         estimate D2E/DX2                !
 ! A57   A(27,19,28)           121.1957         estimate D2E/DX2                !
 ! A58   A(25,20,28)           119.4641         estimate D2E/DX2                !
 ! A59   A(25,20,29)           118.073          estimate D2E/DX2                !
 ! A60   A(28,20,29)           122.4629         estimate D2E/DX2                !
 ! A61   A(26,21,29)           120.8936         estimate D2E/DX2                !
 ! A62   A(26,21,33)           118.5771         estimate D2E/DX2                !
 ! A63   A(29,21,33)           120.5293         estimate D2E/DX2                !
 ! A64   A(3,22,13)            117.777          estimate D2E/DX2                !
 ! A65   A(3,22,16)            121.2041         estimate D2E/DX2                !
 ! A66   A(13,22,16)           121.0189         estimate D2E/DX2                !
 ! A67   A(14,23,15)           117.3883         estimate D2E/DX2                !
 ! A68   A(14,23,18)           120.2865         estimate D2E/DX2                !
 ! A69   A(15,23,18)           122.3252         estimate D2E/DX2                !
 ! A70   A(4,24,16)            120.005          estimate D2E/DX2                !
 ! A71   A(4,24,19)            119.8289         estimate D2E/DX2                !
 ! A72   A(16,24,19)           120.1662         estimate D2E/DX2                !
 ! A73   A(16,25,17)           121.5273         estimate D2E/DX2                !
 ! A74   A(16,25,20)           120.3138         estimate D2E/DX2                !
 ! A75   A(17,25,20)           118.159          estimate D2E/DX2                !
 ! A76   A(17,26,18)           120.707          estimate D2E/DX2                !
 ! A77   A(17,26,21)           116.0575         estimate D2E/DX2                !
 ! A78   A(18,26,21)           123.2355         estimate D2E/DX2                !
 ! A79   A(5,27,19)            120.7216         estimate D2E/DX2                !
 ! A80   A(5,27,30)            119.8045         estimate D2E/DX2                !
 ! A81   A(19,27,30)           119.4739         estimate D2E/DX2                !
 ! A82   A(19,28,20)           121.0692         estimate D2E/DX2                !
 ! A83   A(19,28,31)           119.1239         estimate D2E/DX2                !
 ! A84   A(20,28,31)           119.8069         estimate D2E/DX2                !
 ! A85   A(20,29,21)           122.3405         estimate D2E/DX2                !
 ! A86   A(20,29,32)           117.6945         estimate D2E/DX2                !
 ! A87   A(21,29,32)           119.965          estimate D2E/DX2                !
 ! A88   A(13,44,14)           119.8184         estimate D2E/DX2                !
 ! A89   A(13,44,17)           120.1541         estimate D2E/DX2                !
 ! A90   A(14,44,17)           120.0275         estimate D2E/DX2                !
 ! D1    D(10,1,2,3)            -0.0025         estimate D2E/DX2                !
 ! D2    D(10,1,2,40)         -179.9806         estimate D2E/DX2                !
 ! D3    D(39,1,2,3)          -179.9941         estimate D2E/DX2                !
 ! D4    D(39,1,2,40)            0.0278         estimate D2E/DX2                !
 ! D5    D(2,1,10,8)          -179.9988         estimate D2E/DX2                !
 ! D6    D(2,1,10,13)           -0.0059         estimate D2E/DX2                !
 ! D7    D(39,1,10,8)           -0.0071         estimate D2E/DX2                !
 ! D8    D(39,1,10,13)         179.9859         estimate D2E/DX2                !
 ! D9    D(1,2,3,6)           -179.9775         estimate D2E/DX2                !
 ! D10   D(1,2,3,22)             0.0102         estimate D2E/DX2                !
 ! D11   D(40,2,3,6)             0.0012         estimate D2E/DX2                !
 ! D12   D(40,2,3,22)          179.9889         estimate D2E/DX2                !
 ! D13   D(2,3,6,4)            179.9947         estimate D2E/DX2                !
 ! D14   D(2,3,6,41)            -0.0032         estimate D2E/DX2                !
 ! D15   D(22,3,6,4)             0.0071         estimate D2E/DX2                !
 ! D16   D(22,3,6,41)         -179.9908         estimate D2E/DX2                !
 ! D17   D(2,3,22,13)           -0.0093         estimate D2E/DX2                !
 ! D18   D(2,3,22,16)         -179.9984         estimate D2E/DX2                !
 ! D19   D(6,3,22,13)          179.9788         estimate D2E/DX2                !
 ! D20   D(6,3,22,16)           -0.0104         estimate D2E/DX2                !
 ! D21   D(7,4,6,3)           -179.9983         estimate D2E/DX2                !
 ! D22   D(7,4,6,41)            -0.0004         estimate D2E/DX2                !
 ! D23   D(24,4,6,3)             0.0005         estimate D2E/DX2                !
 ! D24   D(24,4,6,41)          179.9984         estimate D2E/DX2                !
 ! D25   D(6,4,7,5)            179.9946         estimate D2E/DX2                !
 ! D26   D(6,4,7,42)             0.0023         estimate D2E/DX2                !
 ! D27   D(24,4,7,5)            -0.0043         estimate D2E/DX2                !
 ! D28   D(24,4,7,42)         -179.9966         estimate D2E/DX2                !
 ! D29   D(6,4,24,16)           -0.0051         estimate D2E/DX2                !
 ! D30   D(6,4,24,19)         -179.9968         estimate D2E/DX2                !
 ! D31   D(7,4,24,16)          179.9938         estimate D2E/DX2                !
 ! D32   D(7,4,24,19)            0.0021         estimate D2E/DX2                !
 ! D33   D(27,5,7,4)             0.0119         estimate D2E/DX2                !
 ! D34   D(27,5,7,42)         -179.9959         estimate D2E/DX2                !
 ! D35   D(43,5,7,4)          -179.9999         estimate D2E/DX2                !
 ! D36   D(43,5,7,42)           -0.0077         estimate D2E/DX2                !
 ! D37   D(7,5,27,19)           -0.0173         estimate D2E/DX2                !
 ! D38   D(7,5,27,30)          179.9838         estimate D2E/DX2                !
 ! D39   D(43,5,27,19)         179.9944         estimate D2E/DX2                !
 ! D40   D(43,5,27,30)          -0.0044         estimate D2E/DX2                !
 ! D41   D(11,8,10,1)          179.9932         estimate D2E/DX2                !
 ! D42   D(11,8,10,13)           0.0005         estimate D2E/DX2                !
 ! D43   D(38,8,10,1)            0.002          estimate D2E/DX2                !
 ! D44   D(38,8,10,13)        -179.9907         estimate D2E/DX2                !
 ! D45   D(10,8,11,9)         -179.9875         estimate D2E/DX2                !
 ! D46   D(10,8,11,14)          -0.0059         estimate D2E/DX2                !
 ! D47   D(38,8,11,9)            0.0036         estimate D2E/DX2                !
 ! D48   D(38,8,11,14)         179.9852         estimate D2E/DX2                !
 ! D49   D(12,9,11,8)          179.9943         estimate D2E/DX2                !
 ! D50   D(12,9,11,14)           0.012          estimate D2E/DX2                !
 ! D51   D(37,9,11,8)           -0.0011         estimate D2E/DX2                !
 ! D52   D(37,9,11,14)        -179.9834         estimate D2E/DX2                !
 ! D53   D(11,9,12,15)          -0.0008         estimate D2E/DX2                !
 ! D54   D(11,9,12,36)        -179.9935         estimate D2E/DX2                !
 ! D55   D(37,9,12,15)         179.9946         estimate D2E/DX2                !
 ! D56   D(37,9,12,36)           0.0019         estimate D2E/DX2                !
 ! D57   D(1,10,13,22)           0.0067         estimate D2E/DX2                !
 ! D58   D(1,10,13,44)        -179.9942         estimate D2E/DX2                !
 ! D59   D(8,10,13,22)         179.9997         estimate D2E/DX2                !
 ! D60   D(8,10,13,44)          -0.0012         estimate D2E/DX2                !
 ! D61   D(8,11,14,23)         179.9937         estimate D2E/DX2                !
 ! D62   D(8,11,14,44)           0.0113         estimate D2E/DX2                !
 ! D63   D(9,11,14,23)          -0.0235         estimate D2E/DX2                !
 ! D64   D(9,11,14,44)         179.9941         estimate D2E/DX2                !
 ! D65   D(9,12,15,23)          -0.0008         estimate D2E/DX2                !
 ! D66   D(9,12,15,35)         179.9989         estimate D2E/DX2                !
 ! D67   D(36,12,15,23)        179.9919         estimate D2E/DX2                !
 ! D68   D(36,12,15,35)         -0.0083         estimate D2E/DX2                !
 ! D69   D(10,13,22,3)           0.001          estimate D2E/DX2                !
 ! D70   D(10,13,22,16)        179.9902         estimate D2E/DX2                !
 ! D71   D(44,13,22,3)        -179.9981         estimate D2E/DX2                !
 ! D72   D(44,13,22,16)         -0.0089         estimate D2E/DX2                !
 ! D73   D(10,13,44,14)          0.0069         estimate D2E/DX2                !
 ! D74   D(10,13,44,17)       -179.9981         estimate D2E/DX2                !
 ! D75   D(22,13,44,14)       -179.9939         estimate D2E/DX2                !
 ! D76   D(22,13,44,17)          0.001          estimate D2E/DX2                !
 ! D77   D(11,14,23,15)          0.0221         estimate D2E/DX2                !
 ! D78   D(11,14,23,18)       -179.9904         estimate D2E/DX2                !
 ! D79   D(44,14,23,15)       -179.9955         estimate D2E/DX2                !
 ! D80   D(44,14,23,18)         -0.008          estimate D2E/DX2                !
 ! D81   D(11,14,44,13)         -0.012          estimate D2E/DX2                !
 ! D82   D(11,14,44,17)        179.993          estimate D2E/DX2                !
 ! D83   D(23,14,44,13)       -179.9956         estimate D2E/DX2                !
 ! D84   D(23,14,44,17)          0.0095         estimate D2E/DX2                !
 ! D85   D(12,15,23,14)         -0.0092         estimate D2E/DX2                !
 ! D86   D(12,15,23,18)       -179.9964         estimate D2E/DX2                !
 ! D87   D(35,15,23,14)        179.991          estimate D2E/DX2                !
 ! D88   D(35,15,23,18)          0.0039         estimate D2E/DX2                !
 ! D89   D(24,16,22,3)           0.0059         estimate D2E/DX2                !
 ! D90   D(24,16,22,13)       -179.9829         estimate D2E/DX2                !
 ! D91   D(25,16,22,3)        -179.9999         estimate D2E/DX2                !
 ! D92   D(25,16,22,13)          0.0113         estimate D2E/DX2                !
 ! D93   D(22,16,24,4)           0.0019         estimate D2E/DX2                !
 ! D94   D(22,16,24,19)        179.9936         estimate D2E/DX2                !
 ! D95   D(25,16,24,4)        -179.9925         estimate D2E/DX2                !
 ! D96   D(25,16,24,19)         -0.0008         estimate D2E/DX2                !
 ! D97   D(22,16,25,17)         -0.005          estimate D2E/DX2                !
 ! D98   D(22,16,25,20)       -179.9929         estimate D2E/DX2                !
 ! D99   D(24,16,25,17)        179.9893         estimate D2E/DX2                !
 ! D100  D(24,16,25,20)          0.0013         estimate D2E/DX2                !
 ! D101  D(26,17,25,16)       -179.9962         estimate D2E/DX2                !
 ! D102  D(26,17,25,20)         -0.008          estimate D2E/DX2                !
 ! D103  D(44,17,25,16)         -0.003          estimate D2E/DX2                !
 ! D104  D(44,17,25,20)        179.9852         estimate D2E/DX2                !
 ! D105  D(25,17,26,18)        179.9954         estimate D2E/DX2                !
 ! D106  D(25,17,26,21)          0.0108         estimate D2E/DX2                !
 ! D107  D(44,17,26,18)          0.0021         estimate D2E/DX2                !
 ! D108  D(44,17,26,21)       -179.9825         estimate D2E/DX2                !
 ! D109  D(25,17,44,13)          0.0049         estimate D2E/DX2                !
 ! D110  D(25,17,44,14)        179.9998         estimate D2E/DX2                !
 ! D111  D(26,17,44,13)        179.9986         estimate D2E/DX2                !
 ! D112  D(26,17,44,14)         -0.0065         estimate D2E/DX2                !
 ! D113  D(26,18,23,14)          0.0039         estimate D2E/DX2                !
 ! D114  D(26,18,23,15)        179.9907         estimate D2E/DX2                !
 ! D115  D(34,18,23,14)        179.9976         estimate D2E/DX2                !
 ! D116  D(34,18,23,15)         -0.0156         estimate D2E/DX2                !
 ! D117  D(23,18,26,17)         -0.0007         estimate D2E/DX2                !
 ! D118  D(23,18,26,21)        179.9827         estimate D2E/DX2                !
 ! D119  D(34,18,26,17)       -179.9942         estimate D2E/DX2                !
 ! D120  D(34,18,26,21)         -0.0107         estimate D2E/DX2                !
 ! D121  D(27,19,24,4)          -0.0072         estimate D2E/DX2                !
 ! D122  D(27,19,24,16)       -179.999          estimate D2E/DX2                !
 ! D123  D(28,19,24,4)         179.9902         estimate D2E/DX2                !
 ! D124  D(28,19,24,16)         -0.0015         estimate D2E/DX2                !
 ! D125  D(24,19,27,5)           0.0148         estimate D2E/DX2                !
 ! D126  D(24,19,27,30)       -179.9864         estimate D2E/DX2                !
 ! D127  D(28,19,27,5)        -179.9826         estimate D2E/DX2                !
 ! D128  D(28,19,27,30)          0.0163         estimate D2E/DX2                !
 ! D129  D(24,19,28,20)          0.0035         estimate D2E/DX2                !
 ! D130  D(24,19,28,31)       -179.9967         estimate D2E/DX2                !
 ! D131  D(27,19,28,20)       -179.9991         estimate D2E/DX2                !
 ! D132  D(27,19,28,31)          0.0007         estimate D2E/DX2                !
 ! D133  D(28,20,25,16)          0.0006         estimate D2E/DX2                !
 ! D134  D(28,20,25,17)       -179.9877         estimate D2E/DX2                !
 ! D135  D(29,20,25,16)        179.9894         estimate D2E/DX2                !
 ! D136  D(29,20,25,17)          0.0011         estimate D2E/DX2                !
 ! D137  D(25,20,28,19)         -0.003          estimate D2E/DX2                !
 ! D138  D(25,20,28,31)        179.9972         estimate D2E/DX2                !
 ! D139  D(29,20,28,19)       -179.9913         estimate D2E/DX2                !
 ! D140  D(29,20,28,31)          0.0089         estimate D2E/DX2                !
 ! D141  D(25,20,29,21)          0.0025         estimate D2E/DX2                !
 ! D142  D(25,20,29,32)       -179.9913         estimate D2E/DX2                !
 ! D143  D(28,20,29,21)        179.991          estimate D2E/DX2                !
 ! D144  D(28,20,29,32)         -0.0029         estimate D2E/DX2                !
 ! D145  D(29,21,26,17)         -0.0068         estimate D2E/DX2                !
 ! D146  D(29,21,26,18)       -179.9909         estimate D2E/DX2                !
 ! D147  D(33,21,26,17)       -179.9966         estimate D2E/DX2                !
 ! D148  D(33,21,26,18)          0.0193         estimate D2E/DX2                !
 ! D149  D(26,21,29,20)          0.0005         estimate D2E/DX2                !
 ! D150  D(26,21,29,32)        179.9942         estimate D2E/DX2                !
 ! D151  D(33,21,29,20)        179.9901         estimate D2E/DX2                !
 ! D152  D(33,21,29,32)         -0.0162         estimate D2E/DX2                !
 --------------------------------------------------------------------------------
 Trust Radius=3.00D-01 FncErr=1.00D-07 GrdErr=1.00D-07
 Number of steps in this run=    264 maximum allowed number of steps=    264.
 GradGradGradGradGradGradGradGradGradGradGradGradGradGradGradGradGradGrad

                          Input orientation:                          
 ---------------------------------------------------------------------
 Center     Atomic      Atomic             Coordinates (Angstroms)
 Number     Number       Type             X           Y           Z
 ---------------------------------------------------------------------
      1          6           0       -1.487342    1.255274    0.000000
      2          6           0       -0.114579    1.267573    0.000214
      3          6           0        0.637842    2.495615    0.000237
      4          6           0        2.761554    3.737816   -0.000096
      5          6           0        4.876369    4.985412   -0.000577
      6          6           0        2.060297    2.516154   -0.000014
      7          6           0        4.192364    3.771038   -0.000385
      8          6           0       -3.680332    2.523182   -0.000361
      9          6           0       -5.854424    3.764586   -0.000316
     10          6           0       -2.227169    2.491707   -0.000158
     11          6           0       -4.431403    3.732940   -0.000377
     12          6           0       -6.523170    4.989254   -0.000217
     13          6           0       -1.497229    3.665426    0.000042
     14          6           0       -3.770635    4.987756   -0.000065
     15          6           0       -5.831731    6.215386   -0.000158
     16          6           0        0.618765    4.984426    0.000243
     17          6           0       -1.488529    6.302410    0.000188
     18          6           0       -3.646057    7.473946   -0.000044
     19          6           0        2.763344    6.233835   -0.000066
     20          6           0        0.644264    7.488696    0.000097
     21          6           0       -1.486048    8.739497   -0.000106
     22          6           0       -0.072682    3.722583    0.000254
     23          6           0       -4.423380    6.225598   -0.000181
     24          6           0        2.039423    4.985716    0.000088
     25          6           0       -0.086819    6.245918    0.000262
     26          6           0       -2.247828    7.509622    0.000125
     27          6           0        4.183286    6.205843   -0.000242
     28          6           0        2.051167    7.464069   -0.000096
     29          6           0       -0.108077    8.718323   -0.000112
     30          1           0        4.736826    7.141709   -0.000134
     31          1           0        2.608212    8.398162   -0.000269
     32          1           0        0.450622    9.653867   -0.000382
     33          1           0       -2.024149    9.684844   -0.000104
     34          1           0       -4.210816    8.402296   -0.000186
     35          1           0       -6.391623    7.148101   -0.000098
     36          1           0       -7.613530    5.001882   -0.000063
     37          1           0       -6.417453    2.834207   -0.000272
     38          1           0       -4.208336    1.574068   -0.000359
     39          1           0       -2.035005    0.314677    0.000084
     40          1           0        0.442586    0.330166    0.000014
     41          1           0        2.607852    1.577080   -0.000179
     42          1           0        4.741811    2.832903   -0.000582
     43          1           0        5.965971    4.991361   -0.000799
     44         25           0       -2.251750    4.985817    0.000017
 ---------------------------------------------------------------------
                    Distance matrix (angstroms):
                    1          2          3          4          5
     1  C    0.000000
     2  C    1.372818   0.000000
     3  C    2.460661   1.440217   0.000000
     4  C    4.920988   3.791337   2.460328   0.000000
     5  C    7.376364   6.223494   4.915709   2.455390   0.000000
     6  C    3.765044   2.507795   1.422603   1.408623   3.745330
     7  C    6.211934   4.981675   3.776417   1.431196   1.393760
     8  C    2.533140   3.780364   4.318263   6.555397   8.903916
     9  C    5.036670   6.259464   6.615119   8.616019  10.800015
    10  C    1.440871   2.441627   2.865014   5.141998   7.528533
    11  C    3.847899   4.971218   5.218067   7.192959   9.391662
    12  C    6.269144   7.410867   7.582765   9.368681  11.399540
    13  C    2.410172   2.767927   2.434540   4.259398   6.508849
    14  C    4.375483   5.215986   5.064132   6.650702   8.647004
    15  C    6.593666   7.560866   7.462713   8.943316  10.778509
    16  C    4.282786   3.788507   2.488884   2.479028   4.257604
    17  C    5.047136   5.218939   4.360406   4.963904   6.499724
    18  C    6.582699   7.140757   6.567768   7.417287   8.878319
    19  C    6.546327   5.739878   4.300238   2.496019   2.454269
    20  C    6.587813   6.267233   4.993085   4.307204   4.917026
    21  C    7.484223   7.596748   6.595223   6.561930   7.387389
    22  C    2.844095   2.455367   1.417849   2.834277   5.107626
    23  C    5.772732   6.568697   6.287188   7.603442   9.382078
    24  C    5.133641   4.297012   2.857452   1.441779   2.836946
    25  C    5.183434   4.978422   3.819674   3.795234   5.120753
    26  C    6.300413   6.596509   5.785098   6.270600   7.558163
    27  C    7.527559   6.546613   5.131857   2.848241   1.403502
    28  C    7.146340   6.564070   5.165562   3.793364   3.758392
    29  C    7.589432   7.450753   6.267256   5.748063   6.227305
    30  H    8.566818   7.618504   6.195794   3.935503   2.160808
    31  H    8.233736   7.632751   6.222734   4.662868   4.097731
    32  H    8.619284   8.405318   7.160700   6.351382   6.432862
    33  H    8.446645   8.631159   7.666238   7.633485   8.348761
    34  H    7.648348   8.226994   7.641883   8.388761   9.708349
    35  H    7.666641   8.601273   8.429650   9.767839  11.473660
    36  H    7.181034   8.377311   8.623602  10.451805  12.489910
    37  H    5.176778   6.494657   7.063415   9.223376  11.496873
    38  H    2.739605   4.105214   4.933020   7.298025   9.704078
    39  H    1.088420   2.143839   3.449725   5.892780   8.341634
    40  H    2.140197   1.090488   2.174234   4.121855   6.428821
    41  H    4.107818   2.739967   2.173625   2.166196   4.094252
    42  H    6.425828   5.102429   4.117806   2.177221   2.156710
    43  H    8.337279   7.130195   5.883681   3.440881   1.089618
    44  Mn   3.808053   4.288687   3.814558   5.166306   7.128119
                    6          7          8          9         10
     6  C    0.000000
     7  C    2.473953   0.000000
     8  C    5.740633   7.970978   0.000000
     9  C    8.012576  10.046789   2.503549   0.000000
    10  C    4.287535   6.545768   1.453504   3.844112   0.000000
    11  C    6.604751   8.623851   1.423946   1.423372   2.529685
    12  C    8.932643  10.784559   3.763407   1.395361   4.969242
    13  C    3.738558   5.690573   2.463871   4.358323   1.382183
    14  C    6.333133   8.055417   2.466228   2.416262   2.934714
    15  C    8.715987  10.317816   4.273276   2.450906   5.182534
    16  C    2.858387   3.773979   4.953783   6.587123   3.783251
    17  C    5.189402   6.219356   4.368817   5.049910   3.881629
    18  C    7.559244   8.669047   4.950883   4.316971   5.180343
    19  C    3.783573   2.847361   7.435719   8.964548   6.237687
    20  C    5.170233   5.139065   6.584714   7.490123   5.763248
    21  C    7.162859   7.545194   6.592227   6.620608   6.291593
    22  C    2.450524   4.265321   3.801803   5.781894   2.481304
    23  C    7.469808   8.958565   3.776242   2.846835   4.331892
    24  C    2.469650   2.471962   6.227333   7.987739   4.942053
    25  C    4.303631   4.943322   5.174177   6.278716   4.321481
    26  C    6.595048   7.446683   5.188126   5.199311   5.017958
    27  C    4.256863   2.434822   8.683230  10.330312   7.408693
    28  C    4.947924   4.268865   7.567196   8.728376   6.559615
    29  C    6.570293   6.555106   7.151279   7.586832   6.577333
    30  H    5.344115   3.414361   9.601008  11.116633   8.373753
    31  H    5.907472   4.890788   8.605881   9.648121   7.633290
    32  H    7.316966   6.971965   8.240841   8.627702   7.646378
    33  H    8.250625   8.580101   7.350670   7.051274   7.196001
    34  H    8.600786   9.594894   5.902999   4.920346   6.234575
    35  H    9.637940  11.109695   5.361061   3.425895   6.246974
    36  H    9.988081  11.869882   4.649085   2.150664   5.942547
    37  H    8.483714  10.651096   2.754735   1.087477   4.204258
    38  H    6.339028   8.683227   1.086096   2.740068   2.183365
    39  H    4.649516   7.122257   2.754015   5.146827   2.185495
    40  H    2.719473   5.089246   4.669879   7.172696   3.435091
    41  H    1.087050   2.706313   6.358960   8.740440   4.920769
    42  H    2.700158   1.087194   8.427837  10.637116   6.977328
    43  H    4.623953   2.152875   9.957062  11.883884   8.565968
    44  Mn   4.969203   6.557613   2.847002   3.804032   2.494231
                   11         12         13         14         15
    11  C    0.000000
    12  C    2.440044   0.000000
    13  C    2.934951   5.197365   0.000000
    14  C    1.418161   2.752535   2.630006   0.000000
    15  C    2.850168   1.407654   5.028937   2.398999   0.000000
    16  C    5.202924   7.141937   2.493430   4.389401   6.566899
    17  C    3.906749   5.203075   2.636998   2.633690   4.344074
    18  C    3.822551   3.801510   4.372904   2.489309   2.522131
    19  C    7.617012   9.369543   4.974858   6.651736   8.595095
    20  C    6.314120   7.590740   4.382166   5.074055   6.599988
    21  C    5.808677   6.279882   5.074083   4.392596   5.025544
    22  C    4.358734   6.573679   1.425693   3.908391   6.275406
    23  C    2.492671   2.436733   3.888038   1.399403   1.408389
    24  C    6.590982   8.562594   3.775060   5.810059   7.966628
    25  C    5.019011   6.557882   2.940781   3.892746   5.744993
    26  C    4.362491   4.962943   3.916790   2.945972   3.810434
    27  C    8.962595  10.775355   6.222697   8.046651  10.015021
    28  C    7.479642   8.924347   5.198154   6.326571   7.981184
    29  C    6.598879   7.420201   5.240374   5.227950   6.246993
    30  H    9.781418  11.463882   7.137786   8.775899  10.609076
    31  H    8.445146   9.746938   6.265256   7.233295   8.717635
    32  H    7.674083   8.390018   6.297265   6.292186   7.161782
    33  H    6.420283   6.503057   6.042436   5.011272   5.151196
    34  H    4.674564   4.122601   5.459074   3.442796   2.722120
    35  H    3.937739   2.162852   6.007006   3.396567   1.087858
    36  H    3.425806   1.090433   6.260611   3.842921   2.155783
    37  H    2.179934   2.157638   4.989943   3.412245   3.431536
    38  H    2.170366   4.125767   3.424015   3.441635   4.917037
    39  H    4.174595   6.480378   3.393630   4.984985   7.016659
    40  H    5.944294   8.380265   3.858347   6.280475   8.602492
    41  H    7.361986   9.747743   4.605744   7.233105   9.630184
    42  H    9.217263  11.469510   6.294340   8.780953  11.101396
    43  H   10.473252  12.489141   7.580070   9.736606  11.861029
    44  Mn   2.514078   4.271421   1.520768   1.518886   3.785248
                   16         17         18         19         20
    16  C    0.000000
    17  C    2.485512   0.000000
    18  C    4.938261   2.455081   0.000000
    19  C    2.481984   4.252426   6.528269   0.000000
    20  C    2.504399   2.440509   4.290347   2.462758   0.000000
    21  C    4.304741   2.437089   2.503449   4.933121   2.470372
    22  C    1.438870   2.942810   5.180901   3.788064   3.833747
    23  C    5.192661   2.935855   1.470579   7.186729   5.222684
    24  C    1.420659   3.765651   6.206124   1.442866   2.865550
    25  C    1.445410   1.402848   3.765133   2.850189   1.441867
    26  C    3.820206   1.426147   1.398684   5.171023   2.892168
    27  C    3.767979   5.672637   7.931374   1.420217   3.764357
    28  C    2.863635   3.725440   5.697232   1.421504   1.407118
    29  C    3.803983   2.782497   3.750437   3.797070   1.441528
    30  H    4.648903   6.281678   8.389465   2.172295   4.107245
    31  H    3.951138   4.601681   6.322188   2.169880   2.164306
    32  H    4.672467   3.872024   4.640564   4.128595   2.173813
    33  H    5.392488   3.424580   2.742016   5.901657   3.455937
    34  H    5.916645   3.438077   1.086640   7.303502   4.940291
    35  H    7.336691   4.975492   2.764834   9.200506   7.044127
    36  H    8.232313   6.261550   4.674606  10.449748   8.624118
    37  H    7.357432   6.026833   5.404425   9.790021   8.457666
    38  H    5.910283   5.454775   5.926611   8.385568   7.650526
    39  H    5.371131   6.012618   7.338298   7.619749   7.658004
    40  H    4.657593   6.276695   8.231075   6.343439   7.161370
    41  H    3.945437   6.253725   8.595604   4.659350   6.229195
    42  H    4.650652   7.131243   9.586220   3.934548   6.202120
    43  H    5.347210   7.568911   9.927452   3.435194   5.878540
    44  Mn   2.870516   1.521816   2.852171   5.168048   3.827702
                   21         22         23         24         25
    21  C    0.000000
    22  C    5.212200   0.000000
    23  C    3.866213   5.019328   0.000000
    24  C    5.149740   2.460994   6.580663   0.000000
    25  C    2.859332   2.523375   4.336608   2.471643   0.000000
    26  C    1.446686   4.367256   2.526211   4.975000   2.503379
    27  C    6.209730   4.927458   8.606688   2.466750   4.270293
    28  C    3.760134   4.302262   6.591931   2.478382   2.460666
    29  C    1.378134   4.995866   4.983525   4.306288   2.472497
    30  H    6.424725   5.900999   9.205902   3.453156   4.906118
    31  H    4.108464   5.389641   7.359573   3.459524   3.448963
    32  H    2.141673   5.954324   5.958936   4.931118   3.450066
    33  H    1.087765   6.273498   4.209832   6.212441   3.947082
    34  H    2.745554   6.246909   2.187052   7.123097   4.653743
    35  H    5.157248   7.187711   2.173705   8.703933   6.369026
    36  H    7.177451   7.648594   3.416803   9.652967   7.628827
    37  H    7.693582   6.406663   3.934191   8.726267   7.191432
    38  H    7.665131   4.660445   4.656499   7.118556   6.230015
    39  H    8.442686   3.932497   6.375212   6.198352   6.243000
    40  H    8.627657   3.431325   7.644196   4.921791   5.939393
    41  H    8.249863   3.433431   8.428934   3.455707   5.390668
    42  H    8.583361   4.896006   9.772978   3.455069   5.913066
    43  H    8.341529   6.170505  10.462406   3.926552   6.181438
    44  Mn   3.830981   2.518749   2.500606   4.291174   2.504951
                   26         27         28         29         30
    26  C    0.000000
    27  C    6.561941   0.000000
    28  C    4.299236   2.475695   0.000000
    29  C    2.457539   4.972761   2.497095   0.000000
    30  H    6.994338   1.087314   2.704937   5.094978   0.000000
    31  H    4.936662   2.699466   1.087579   2.735092   2.471775
    32  H    3.446653   5.081500   2.712371   1.089672   4.968147
    33  H    2.186692   7.115876   4.641125   2.146042   7.223457
    34  H    2.156430   8.676713   6.331880   4.114893   9.036005
    35  H    4.159535  10.616805   8.448700   6.476770  11.128451
    36  H    5.922796  11.858093   9.973401   8.375188  12.534359
    37  H    6.264605  11.124009   9.651587   8.627343  11.957111
    38  H    6.250952   9.585022   8.594969   8.237264  10.536344
    39  H    7.198092   8.565802   8.234720   8.621736   9.615927
    40  H    7.667001   6.965372   7.313009   8.406212   8.052180
    41  H    7.666335   4.889524   5.913252   7.640264   5.957989
    42  H    8.409921   3.418871   5.356050   7.626243   4.308809
    43  H    8.591166   2.157066   4.630332   7.126310   2.476851
    44  Mn   2.523808   6.549668   4.965564   4.304293   7.313554
                   31         32         33         34         35
    31  H    0.000000
    32  H    2.496395   0.000000
    33  H    4.807736   2.474965   0.000000
    34  H    6.819030   4.826535   2.535043   0.000000
    35  H    9.086236   7.286644   5.050732   2.515735   0.000000
    36  H   10.771199   9.309754   7.291866   4.810538   2.469679
    37  H   10.602840   9.678750   8.138325   5.989395   4.313971
    38  H    9.645392   9.326792   8.399724   6.828229   5.986367
    39  H    9.322134   9.664306   9.370173   8.375186   8.104061
    40  H    8.353591   9.323704   9.674439   9.317372   9.653530
    41  H    6.821082   8.359912   9.337627   9.647684  10.584273
    42  H    5.960231   8.058527   9.629502  10.543609  11.940448
    43  H    4.783391   7.222051   9.266650  10.733195  12.544387
    44  Mn   5.938294   5.393840   4.704536   3.938308   4.670548
                   36         37         38         39         40
    36  H    0.000000
    37  H    2.475765   0.000000
    38  H    4.831693   2.543256   0.000000
    39  H    7.286277   5.055085   2.511858   0.000000
    40  H    9.312676   7.302763   4.814391   2.477639   0.000000
    41  H   10.779885   9.112436   6.816188   4.811421   2.498633
    42  H   12.544279  11.159264   9.038241   7.229571   4.974639
    43  H   13.579505  12.569904  10.732866   9.267523   7.227345
    44  Mn   5.361804   4.688550   3.932971   4.676166   5.379083
                   41         42         43         44
    41  H    0.000000
    42  H    2.476061   0.000000
    43  H    4.788975   2.481433   0.000000
    44  Mn   5.935926   7.317441   8.217723   0.000000
 Stoichiometry    C29H14Mn(2)
 Framework group  C1[X(C29H14Mn)]
 Deg. of freedom   126
 Full point group                 C1      NOp   1
 Largest Abelian subgroup         C1      NOp   1
 Largest concise Abelian subgroup C1      NOp   1
                         Standard orientation:                         
 ---------------------------------------------------------------------
 Center     Atomic      Atomic             Coordinates (Angstroms)
 Number     Number       Type             X           Y           Z
 ---------------------------------------------------------------------
      1          6           0        0.546214   -3.734010   -0.000065
      2          6           0       -0.826550   -3.721838   -0.000279
      3          6           0       -1.579084   -2.493865   -0.000302
      4          6           0       -3.702910   -1.251859    0.000031
      5          6           0       -5.817840   -0.004458    0.000512
      6          6           0       -3.001540   -2.473457   -0.000051
      7          6           0       -5.133723   -1.218769    0.000320
      8          6           0        2.739088   -2.465901    0.000296
      9          6           0        4.913065   -1.224298    0.000251
     10          6           0        1.285927   -2.497510    0.000093
     11          6           0        3.490048   -1.256074    0.000312
     12          6           0        5.581699    0.000432    0.000152
     13          6           0        0.555880   -1.323858   -0.000107
     14          6           0        2.829164   -0.001319    0.000000
     15          6           0        4.890147    1.226501    0.000093
     16          6           0       -1.560236   -0.005052   -0.000308
     17          6           0        0.546937    1.313125   -0.000253
     18          6           0        2.704358    2.484860   -0.000021
     19          6           0       -3.704930    1.244159    0.000001
     20          6           0       -1.585965    2.499215   -0.000162
     21          6           0        0.544232    3.750212    0.000041
     22          6           0       -0.868673   -1.266832   -0.000319
     23          6           0        3.481795    1.236583    0.000116
     24          6           0       -2.980894   -0.003893   -0.000153
     25          6           0       -0.854768    1.256505   -0.000327
     26          6           0        1.306125    2.520407   -0.000190
     27          6           0       -5.124869    1.216037    0.000177
     28          6           0       -2.992865    2.474459    0.000031
     29          6           0       -0.833737    3.728912    0.000047
     30          1           0       -5.678495    2.151851    0.000069
     31          1           0       -3.549997    3.408500    0.000204
     32          1           0       -1.392522    4.664404    0.000317
     33          1           0        1.082246    4.695608    0.000039
     34          1           0        3.269031    3.413262    0.000121
     35          1           0        5.449953    2.159267    0.000033
     36          1           0        6.672058    0.013160   -0.000002
     37          1           0        5.476180   -2.154624    0.000207
     38          1           0        3.267179   -3.414967    0.000294
     39          1           0        1.093963   -4.674557   -0.000149
     40          1           0       -1.383628   -4.659296   -0.000079
     41          1           0       -3.549009   -3.412582    0.000114
     42          1           0       -5.683084   -2.156955    0.000517
     43          1           0       -6.907442    0.001391    0.000734
     44         25           0        1.310279   -0.003398   -0.000082
 ---------------------------------------------------------------------
 Rotational constants (GHZ):      0.3074629      0.1348043      0.0937156
 Standard basis: VSTO-6G (5D, 7F)
 There are   140 symmetry adapted cartesian basis functions of A   symmetry.
 There are   139 symmetry adapted basis functions of A   symmetry.
   139 basis functions,   840 primitive gaussians,   140 cartesian basis functions
    69 alpha electrons       68 beta electrons
       nuclear repulsion energy      1309.0391751156 Hartrees.
 Integral buffers will be    262144 words long.
 Regular integral format.
 Two-electron integral symmetry is turned off.
 Do NDO integrals.
 One-electron integrals computed using PRISM.
 NBasis=   139 RedAO= F EigKep=  0.00D+00  NBF=   139
 NBsUse=   139 1.00D-04 EigRej=  0.00D+00 NBFU=   139
 Simple Huckel Guess.
 Initial guess <Sx>= 0.0000 <Sy>= 0.0000 <Sz>= 0.5000 <S**2>= 0.7500 S= 0.5000
 Keep J ints in memory in canonical form, NReq=2111950.
 Gradient too large for Newton-Raphson -- use scaled steepest descent instead.
     Minimum is close to point  5 DX=  8.60D-02 DF= -1.28D-02 DXR=  9.71D-02 DFR=  8.88D-03 which will be used.
 Gradient too large for Newton-Raphson -- use scaled steepest descent instead.
     Minimum is close to point  5 DX=  2.09D-02 DF= -5.97D-05 DXR=  1.37D-02 DFR=  1.94D-04 which will be used.
 Gradient too large for Newton-Raphson -- use scaled steepest descent instead.
 Gradient too large for Newton-Raphson -- use scaled steepest descent instead.
     Accept linear search using points  1 and  2.
     Minimum is close to point  2 DX= -3.96D-02 DF= -7.09D-05 DXR=  2.71D-02 DFR=  1.38D-03 which will be used.
 Gradient too large for Newton-Raphson -- use scaled steepest descent instead.
     Accept linear search using points  1 and  2.
     Minimum is close to point  2 DX= -1.09D-01 DF= -3.43D-04 DXR=  8.42D-02 DFR=  1.13D-02 which will be used.
 Gradient too large for Newton-Raphson -- use scaled steepest descent instead.
     Accept linear search using points  1 and  2.
 Gradient too large for Newton-Raphson -- use scaled steepest descent instead.
     Minimum is close to point  2 DX=  3.08D-02 DF= -7.69D-06 DXR=  2.32D-02 DFR=  5.37D-04 which will be used.
 Gradient too large for Newton-Raphson -- use scaled steepest descent instead.
     Minimum is close to point  2 DX=  9.05D-02 DF= -4.55D-05 DXR=  6.51D-02 DFR=  4.25D-03 which will be used.
 Gradient too large for Newton-Raphson -- use scaled steepest descent instead.
     Minimum is close to point  2 DX=  5.84D-02 DF= -1.37D-05 DXR=  4.01D-02 DFR=  1.61D-03 which will be used.
 Gradient too large for Newton-Raphson -- use scaled steepest descent instead.
     Accept linear search using points  1 and  2.
     Minimum is close to point  2 DX= -7.99D-02 DF= -3.85D-05 DXR=  6.05D-02 DFR=  5.97D-03 which will be used.
 Gradient too large for Newton-Raphson -- use scaled steepest descent instead.
     Accept linear search using points  1 and  2.
 Gradient too large for Newton-Raphson -- use scaled steepest descent instead.
     Accept linear search using points  1 and  2.
     Minimum is close to point  2 DX= -5.49D-02 DF= -1.15D-05 DXR=  4.41D-02 DFR=  2.93D-03 which will be used.
 Gradient too large for Newton-Raphson -- use scaled steepest descent instead.
     Accept linear search using points  1 and  2.
     Minimum is close to point  2 DX= -1.65D-02 DF= -8.26D-07 DXR=  1.40D-02 DFR=  2.67D-04 which will be used.
 Gradient too large for Newton-Raphson -- use scaled steepest descent instead.
 Gradient too large for Newton-Raphson -- use scaled steepest descent instead.
     Accept linear search using points  1 and  2.
     Minimum is close to point  2 DX= -1.39D-02 DF= -3.56D-07 DXR=  1.08D-02 DFR=  1.80D-04 which will be used.
 Gradient too large for Newton-Raphson -- use scaled steepest descent instead.
     Minimum is close to point  2 DX=  3.19D-02 DF= -1.01D-06 DXR=  2.40D-02 DFR=  5.75D-04 which will be used.
 Gradient too large for Newton-Raphson -- use scaled steepest descent instead.
 Gradient too large for Newton-Raphson -- use scaled steepest descent instead.
     Accept linear search using points  1 and  2.
     Minimum is close to point  2 DX= -2.81D-02 DF= -1.38D-06 DXR=  2.05D-02 DFR=  7.15D-04 which will be used.
 Gradient too large for Newton-Raphson -- use scaled steepest descent instead.
     Minimum is close to point  2 DX=  2.55D-02 DF= -7.49D-07 DXR=  1.79D-02 DFR=  3.19D-04 which will be used.
 Gradient too large for Newton-Raphson -- use scaled steepest descent instead.
 Gradient too large for Newton-Raphson -- use scaled steepest descent instead.
     Accept linear search using points  1 and  2.
     Minimum is close to point  2 DX= -5.84D-02 DF= -1.08D-05 DXR=  4.05D-02 DFR=  3.00D-03 which will be used.
 Gradient too large for Newton-Raphson -- use scaled steepest descent instead.
     Accept linear search using points  1 and  2.
     Minimum is close to point  2 DX= -9.98D-02 DF= -3.61D-05 DXR=  7.12D-02 DFR=  8.76D-03 which will be used.
 Gradient too large for Newton-Raphson -- use scaled steepest descent instead.
     Accept linear search using points  1 and  2.
     Minimum is close to point  2 DX= -1.18D-01 DF= -6.24D-05 DXR=  9.24D-02 DFR=  1.36D-02 which will be used.
 Gradient too large for Newton-Raphson -- use scaled steepest descent instead.
     Accept linear search using points  1 and  2.
     Minimum is close to point  2 DX= -5.29D-02 DF= -1.24D-05 DXR=  4.24D-02 DFR=  2.69D-03 which will be used.
 Gradient too large for Newton-Raphson -- use scaled steepest descent instead.
     Minimum is close to point  2 DX=  6.28D-02 DF= -8.98D-06 DXR=  4.61D-02 DFR=  2.13D-03 which will be used.
 Gradient too large for Newton-Raphson -- use scaled steepest descent instead.
 Gradient too large for Newton-Raphson -- use scaled steepest descent instead.
     Accept linear search using points  1 and  2.
     Minimum is close to point  2 DX= -1.34D-01 DF= -5.31D-05 DXR=  9.83D-02 DFR=  1.64D-02 which will be used.
 Gradient too large for Newton-Raphson -- use scaled steepest descent instead.
     Accept linear search using points  1 and  2.
 Gradient too large for Newton-Raphson -- use scaled steepest descent instead.
     Minimum is close to point  2 DX=  7.03D-02 DF= -7.44D-06 DXR=  5.13D-02 DFR=  2.64D-03 which will be used.
 Gradient too large for Newton-Raphson -- use scaled steepest descent instead.
 Gradient too large for Newton-Raphson -- use scaled steepest descent instead.
     Accept linear search using points  1 and  2.
     Minimum is close to point  2 DX= -1.08D-01 DF= -2.88D-05 DXR=  7.75D-02 DFR=  1.04D-02 which will be used.
 Gradient too large for Newton-Raphson -- use scaled steepest descent instead.
     Accept linear search using points  1 and  2.
 Gradient too large for Newton-Raphson -- use scaled steepest descent instead.
     Minimum is close to point  2 DX=  1.92D-02 DF= -5.66D-07 DXR=  1.35D-02 DFR=  1.82D-04 which will be used.
 Gradient too large for Newton-Raphson -- use scaled steepest descent instead.
 Gradient too large for Newton-Raphson -- use scaled steepest descent instead.
     Accept linear search using points  1 and  2.
     Minimum is close to point  2 DX= -4.66D-02 DF= -6.26D-06 DXR=  3.21D-02 DFR=  1.91D-03 which will be used.
 Gradient too large for Newton-Raphson -- use scaled steepest descent instead.
     Accept linear search using points  1 and  2.
     Minimum is close to point  2 DX= -8.28D-02 DF= -1.95D-05 DXR=  5.84D-02 DFR=  6.06D-03 which will be used.
 Gradient too large for Newton-Raphson -- use scaled steepest descent instead.
     Accept linear search using points  1 and  2.
     Minimum is close to point  2 DX= -7.86D-02 DF= -1.80D-05 DXR=  5.95D-02 DFR=  5.77D-03 which will be used.
 Gradient too large for Newton-Raphson -- use scaled steepest descent instead.
     Accept linear search using points  1 and  2.
     Minimum is close to point  2 DX= -3.36D-02 DF= -2.98D-06 DXR=  2.46D-02 DFR=  1.03D-03 which will be used.
 Gradient too large for Newton-Raphson -- use scaled steepest descent instead.
     Minimum is close to point  2 DX=  1.27D-01 DF= -2.14D-05 DXR=  8.93D-02 DFR=  8.04D-03 which will be used.
 Gradient too large for Newton-Raphson -- use scaled steepest descent instead.
 Gradient too large for Newton-Raphson -- use scaled steepest descent instead.
     Accept linear search using points  1 and  2.
 Gradient too large for Newton-Raphson -- use scaled steepest descent instead.
     Accept linear search using points  1 and  2.
     Minimum is close to point  2 DX= -9.14D-02 DF= -1.74D-05 DXR=  6.06D-02 DFR=  7.00D-03 which will be used.
 Gradient too large for Newton-Raphson -- use scaled steepest descent instead.
     Accept linear search using points  1 and  2.
     Minimum is close to point  2 DX= -1.23D-01 DF= -3.58D-05 DXR=  8.94D-02 DFR=  1.36D-02 which will be used.
 Gradient too large for Newton-Raphson -- use scaled steepest descent instead.
     Accept linear search using points  1 and  2.
     Minimum is close to point  2 DX= -6.51D-02 DF= -1.10D-05 DXR=  4.88D-02 DFR=  3.93D-03 which will be used.
 Gradient too large for Newton-Raphson -- use scaled steepest descent instead.
     Minimum is close to point  2 DX=  4.85D-02 DF= -3.13D-06 DXR=  3.35D-02 DFR=  1.12D-03 which will be used.
 Gradient too large for Newton-Raphson -- use scaled steepest descent instead.
 Gradient too large for Newton-Raphson -- use scaled steepest descent instead.
     Accept linear search using points  1 and  2.
     Minimum is close to point  2 DX= -1.09D-01 DF= -2.63D-05 DXR=  7.28D-02 DFR=  9.89D-03 which will be used.
 Gradient too large for Newton-Raphson -- use scaled steepest descent instead.
     Accept linear search using points  1 and  2.
 Gradient too large for Newton-Raphson -- use scaled steepest descent instead.
     Accept linear search using points  1 and  2.
     Minimum is close to point  2 DX= -2.97D-02 DF= -1.91D-06 DXR=  2.17D-02 DFR=  8.03D-04 which will be used.
 Gradient too large for Newton-Raphson -- use scaled steepest descent instead.
     Minimum is close to point  2 DX=  5.83D-02 DF= -3.35D-06 DXR=  4.00D-02 DFR=  1.60D-03 which will be used.
 Gradient too large for Newton-Raphson -- use scaled steepest descent instead.
 Gradient too large for Newton-Raphson -- use scaled steepest descent instead.
     Accept linear search using points  1 and  2.
     Minimum is close to point  2 DX= -6.24D-02 DF= -5.26D-06 DXR=  4.34D-02 DFR=  3.42D-03 which will be used.
 Gradient too large for Newton-Raphson -- use scaled steepest descent instead.
     Accept linear search using points  1 and  2.
     Minimum is close to point  2 DX= -1.01D-01 DF= -1.18D-05 DXR=  7.26D-02 DFR=  9.15D-03 which will be used.
 Gradient too large for Newton-Raphson -- use scaled steepest descent instead.
     Accept linear search using points  1 and  2.
     Minimum is close to point  2 DX= -8.91D-02 DF= -8.39D-06 DXR=  6.80D-02 DFR=  7.46D-03 which will be used.
 Gradient too large for Newton-Raphson -- use scaled steepest descent instead.
     Accept linear search using points  1 and  2.
     Minimum is close to point  2 DX= -3.59D-02 DF= -1.10D-06 DXR=  2.63D-02 DFR=  1.17D-03 which will be used.
 Gradient too large for Newton-Raphson -- use scaled steepest descent instead.
 Gradient too large for Newton-Raphson -- use scaled steepest descent instead.
     Minimum is close to point  2 DX=  1.01D-01 DF= -3.14D-06 DXR=  6.73D-02 DFR=  4.56D-03 which will be used.
 Gradient too large for Newton-Raphson -- use scaled steepest descent instead.
 Gradient too large for Newton-Raphson -- use scaled steepest descent instead.
     Accept linear search using points  1 and  2.
     Minimum is close to point  2 DX= -1.22D-01 DF= -6.50D-06 DXR=  8.24D-02 DFR=  1.25D-02 which will be used.
 Gradient too large for Newton-Raphson -- use scaled steepest descent instead.
     Accept linear search using points  1 and  2.
 Gradient too large for Newton-Raphson -- use scaled steepest descent instead.
     Accept linear search using points  1 and  2.
     Minimum is close to point  2 DX= -1.47D-02 DF= -8.54D-08 DXR=  1.06D-02 DFR=  1.97D-04 which will be used.
 Gradient too large for Newton-Raphson -- use scaled steepest descent instead.
     Minimum is close to point  2 DX=  1.42D-01 DF= -3.30D-06 DXR=  9.22D-02 DFR=  8.57D-03 which will be used.
 LinEq1:  Iter=  0 NonCon=     1 RMS=2.67D-04 Max=1.50D-02 NDo=     1
 AX will form     1 AO Fock derivatives at one time.
 LinEq1:  Iter=  1 NonCon=     1 RMS=1.42D-04 Max=4.74D-03 NDo=     1
 LinEq1:  Iter=  2 NonCon=     1 RMS=1.94D-05 Max=8.41D-04 NDo=     1
 LinEq1:  Iter=  3 NonCon=     1 RMS=5.32D-06 Max=1.87D-04 NDo=     1
 LinEq1:  Iter=  4 NonCon=     1 RMS=1.72D-06 Max=3.63D-05 NDo=     1
 LinEq1:  Iter=  5 NonCon=     1 RMS=4.91D-07 Max=8.75D-06 NDo=     1
 LinEq1:  Iter=  6 NonCon=     1 RMS=1.14D-07 Max=2.50D-06 NDo=     1
 LinEq1:  Iter=  7 NonCon=     1 RMS=3.42D-08 Max=5.76D-07 NDo=     1
 LinEq1:  Iter=  8 NonCon=     1 RMS=1.13D-08 Max=2.12D-07 NDo=     1
 LinEq1:  Iter=  9 NonCon=     0 RMS=3.75D-09 Max=7.08D-08 NDo=     1
 Linear equations converged to 9.828D-09 9.828D-08 after     9 iterations.
 LinEq1:  Iter=  0 NonCon=     1 RMS=1.26D-04 Max=3.45D-03 NDo=     1
 LinEq1:  Iter=  1 NonCon=     1 RMS=7.58D-05 Max=3.86D-03 NDo=     1
 LinEq1:  Iter=  2 NonCon=     1 RMS=2.04D-05 Max=7.28D-04 NDo=     1
 LinEq1:  Iter=  3 NonCon=     1 RMS=3.93D-06 Max=6.05D-05 NDo=     1
 LinEq1:  Iter=  4 NonCon=     1 RMS=1.41D-06 Max=3.17D-05 NDo=     1
 LinEq1:  Iter=  5 NonCon=     1 RMS=4.38D-07 Max=7.41D-06 NDo=     1
 LinEq1:  Iter=  6 NonCon=     1 RMS=1.23D-07 Max=1.91D-06 NDo=     1
 LinEq1:  Iter=  7 NonCon=     1 RMS=3.97D-08 Max=9.87D-07 NDo=     1
 LinEq1:  Iter=  8 NonCon=     1 RMS=1.31D-08 Max=3.32D-07 NDo=     1
 LinEq1:  Iter=  9 NonCon=     0 RMS=3.42D-09 Max=7.64D-08 NDo=     1
 Linear equations converged to 9.828D-09 9.828D-08 after     9 iterations.
     Minimum is close to point  2 DX=  2.22D-02 DF= -1.99D-07 DXR=  2.18D-02 DFR=  4.74D-04 which will be used.
 LinEq1:  Iter=  0 NonCon=     1 RMS=3.14D-05 Max=9.60D-04 NDo=     1
 LinEq1:  Iter=  1 NonCon=     1 RMS=7.71D-06 Max=2.10D-04 NDo=     1
 LinEq1:  Iter=  2 NonCon=     1 RMS=3.07D-06 Max=6.66D-05 NDo=     1
 LinEq1:  Iter=  3 NonCon=     1 RMS=9.25D-07 Max=2.27D-05 NDo=     1
 LinEq1:  Iter=  4 NonCon=     1 RMS=3.39D-07 Max=7.41D-06 NDo=     1
 LinEq1:  Iter=  5 NonCon=     1 RMS=1.12D-07 Max=2.03D-06 NDo=     1
 LinEq1:  Iter=  6 NonCon=     1 RMS=3.62D-08 Max=6.67D-07 NDo=     1
 LinEq1:  Iter=  7 NonCon=     1 RMS=9.29D-09 Max=1.68D-07 NDo=     1
 LinEq1:  Iter=  8 NonCon=     0 RMS=2.56D-09 Max=5.95D-08 NDo=     1
 Linear equations converged to 9.828D-09 9.828D-08 after     8 iterations.
     Minimum is close to point  2 DX=  3.86D-02 DF= -2.42D-08 DXR=  3.72D-02 DFR=  1.39D-03 which will be used.
 LinEq1:  Iter=  0 NonCon=     1 RMS=3.89D-06 Max=1.20D-04 NDo=     1
 LinEq1:  Iter=  1 NonCon=     1 RMS=1.89D-06 Max=8.05D-05 NDo=     1
 LinEq1:  Iter=  2 NonCon=     1 RMS=5.68D-07 Max=1.33D-05 NDo=     1
 LinEq1:  Iter=  3 NonCon=     1 RMS=1.59D-07 Max=3.68D-06 NDo=     1
 LinEq1:  Iter=  4 NonCon=     1 RMS=5.66D-08 Max=1.33D-06 NDo=     1
 LinEq1:  Iter=  5 NonCon=     1 RMS=1.93D-08 Max=3.61D-07 NDo=     1
 LinEq1:  Iter=  6 NonCon=     1 RMS=6.39D-09 Max=1.66D-07 NDo=     1
 LinEq1:  Iter=  7 NonCon=     1 RMS=2.17D-09 Max=3.82D-08 NDo=     1
 LinEq1:  Iter=  8 NonCon=     0 RMS=5.96D-10 Max=1.19D-08 NDo=     1
 Linear equations converged to 1.986D-09 1.986D-08 after     8 iterations.
     Accept linear search using points  1 and  2.
     Minimum is close to point  2 DX= -1.68D-02 DF= -8.78D-11 DXR=  1.71D-02 DFR=  2.91D-04 which will be used.
 LinEq1:  Iter=  0 NonCon=     1 RMS=7.32D-07 Max=1.48D-05 NDo=     1
 LinEq1:  Iter=  1 NonCon=     1 RMS=2.97D-07 Max=7.01D-06 NDo=     1
 LinEq1:  Iter=  2 NonCon=     1 RMS=8.38D-08 Max=2.00D-06 NDo=     1
 LinEq1:  Iter=  3 NonCon=     1 RMS=2.94D-08 Max=4.45D-07 NDo=     1
 LinEq1:  Iter=  4 NonCon=     1 RMS=9.37D-09 Max=2.13D-07 NDo=     1
 LinEq1:  Iter=  5 NonCon=     1 RMS=3.38D-09 Max=5.34D-08 NDo=     1
 LinEq1:  Iter=  6 NonCon=     1 RMS=1.03D-09 Max=1.52D-08 NDo=     1
 LinEq1:  Iter=  7 NonCon=     1 RMS=3.10D-10 Max=8.66D-09 NDo=     1
 LinEq1:  Iter=  8 NonCon=     0 RMS=1.18D-10 Max=3.02D-09 NDo=     1
 Linear equations converged to 3.940D-10 3.940D-09 after     8 iterations.
 LinEq1:  Iter=  0 NonCon=     1 RMS=7.26D-08 Max=1.86D-06 NDo=     1
 LinEq1:  Iter=  1 NonCon=     1 RMS=3.59D-08 Max=1.49D-06 NDo=     1
 LinEq1:  Iter=  2 NonCon=     1 RMS=1.05D-08 Max=1.97D-07 NDo=     1
 LinEq1:  Iter=  3 NonCon=     1 RMS=3.28D-09 Max=6.28D-08 NDo=     1
 LinEq1:  Iter=  4 NonCon=     1 RMS=1.17D-09 Max=2.65D-08 NDo=     1
 LinEq1:  Iter=  5 NonCon=     1 RMS=3.68D-10 Max=6.55D-09 NDo=     1
 LinEq1:  Iter=  6 NonCon=     1 RMS=1.25D-10 Max=2.66D-09 NDo=     1
 LinEq1:  Iter=  7 NonCon=     1 RMS=4.09D-11 Max=6.77D-10 NDo=     1
 LinEq1:  Iter=  8 NonCon=     0 RMS=1.40D-11 Max=3.00D-10 NDo=     1
 Linear equations converged to 3.893D-11 3.893D-10 after     8 iterations.
 SCF Done:  E(UPM6) =  0.569402856722     a.u. after   69 cycles
            Convg  =    0.9134D-06                   175 Fock formations.
              S**2 =  1.8642                  -V/T =  1.0059
 <Sx>= 0.0000 <Sy>= 0.0000 <Sz>= 0.5000 <S**2>= 1.8642 S= 0.9540
 <L.S>= 0.000000000000E+00
 Annihilation of the first spin contaminant:
 S**2 before annihilation     1.8642,   after     2.6602

 **********************************************************************

            Population analysis using the SCF density.

 **********************************************************************

 Orbital symmetries:
 Alpha Orbitals:
       Occupied  (A) (A) (A) (A) (A) (A) (A) (A) (A) (A) (A) (A)
                 (A) (A) (A) (A) (A) (A) (A) (A) (A) (A) (A) (A)
                 (A) (A) (A) (A) (A) (A) (A) (A) (A) (A) (A) (A)
                 (A) (A) (A) (A) (A) (A) (A) (A) (A) (A) (A) (A)
                 (A) (A) (A) (A) (A) (A) (A) (A) (A) (A) (A) (A)
                 (A) (A) (A) (A) (A) (A) (A) (A) (A)
       Virtual   (A) (A) (A) (A) (A) (A) (A) (A) (A) (A) (A) (A)
                 (A) (A) (A) (A) (A) (A) (A) (A) (A) (A) (A) (A)
                 (A) (A) (A) (A) (A) (A) (A) (A) (A) (A) (A) (A)
                 (A) (A) (A) (A) (A) (A) (A) (A) (A) (A) (A) (A)
                 (A) (A) (A) (A) (A) (A) (A) (A) (A) (A) (A) (A)
                 (A) (A) (A) (A) (A) (A) (A) (A) (A) (A)
 Beta  Orbitals:
       Occupied  (A) (A) (A) (A) (A) (A) (A) (A) (A) (A) (A) (A)
                 (A) (A) (A) (A) (A) (A) (A) (A) (A) (A) (A) (A)
                 (A) (A) (A) (A) (A) (A) (A) (A) (A) (A) (A) (A)
                 (A) (A) (A) (A) (A) (A) (A) (A) (A) (A) (A) (A)
                 (A) (A) (A) (A) (A) (A) (A) (A) (A) (A) (A) (A)
                 (A) (A) (A) (A) (A) (A) (A) (A)
       Virtual   (A) (A) (A) (A) (A) (A) (A) (A) (A) (A) (A) (A)
                 (A) (A) (A) (A) (A) (A) (A) (A) (A) (A) (A) (A)
                 (A) (A) (A) (A) (A) (A) (A) (A) (A) (A) (A) (A)
                 (A) (A) (A) (A) (A) (A) (A) (A) (A) (A) (A) (A)
                 (A) (A) (A) (A) (A) (A) (A) (A) (A) (A) (A) (A)
                 (A) (A) (A) (A) (A) (A) (A) (A) (A) (A) (A)
 The electronic state is 2-A.
 Alpha  occ. eigenvalues --   -1.12795  -1.11851  -1.10381  -1.08896  -1.05166
 Alpha  occ. eigenvalues --   -1.03954  -1.01076  -1.00201  -0.98027  -0.94221
 Alpha  occ. eigenvalues --   -0.94033  -0.93442  -0.90392  -0.87231  -0.85949
 Alpha  occ. eigenvalues --   -0.81683  -0.80860  -0.79481  -0.78718  -0.76494
 Alpha  occ. eigenvalues --   -0.75900  -0.72304  -0.69121  -0.67856  -0.67257
 Alpha  occ. eigenvalues --   -0.64008  -0.62839  -0.60365  -0.58756  -0.58301
 Alpha  occ. eigenvalues --   -0.57936  -0.56534  -0.56159  -0.54921  -0.54001
 Alpha  occ. eigenvalues --   -0.53739  -0.52619  -0.52301  -0.51124  -0.50701
 Alpha  occ. eigenvalues --   -0.49905  -0.49619  -0.49516  -0.48371  -0.48230
 Alpha  occ. eigenvalues --   -0.47782  -0.47451  -0.47258  -0.46855  -0.45663
 Alpha  occ. eigenvalues --   -0.43711  -0.43658  -0.43197  -0.43073  -0.42575
 Alpha  occ. eigenvalues --   -0.41814  -0.40587  -0.39052  -0.38715  -0.38629
 Alpha  occ. eigenvalues --   -0.37960  -0.37119  -0.35131  -0.34318  -0.34004
 Alpha  occ. eigenvalues --   -0.29757  -0.27317  -0.26638  -0.25754
 Alpha virt. eigenvalues --   -0.04269  -0.02958  -0.00602   0.00958   0.01443
 Alpha virt. eigenvalues --    0.03625   0.04091   0.06187   0.07049   0.07152
 Alpha virt. eigenvalues --    0.07207   0.07336   0.07411   0.09649   0.11676
 Alpha virt. eigenvalues --    0.11829   0.12415   0.13243   0.13290   0.14563
 Alpha virt. eigenvalues --    0.15240   0.15408   0.15627   0.15948   0.16147
 Alpha virt. eigenvalues --    0.16289   0.16425   0.16732   0.17244   0.17448
 Alpha virt. eigenvalues --    0.17744   0.17983   0.18217   0.18397   0.18439
 Alpha virt. eigenvalues --    0.18635   0.18789   0.18886   0.19250   0.19306
 Alpha virt. eigenvalues --    0.19657   0.19694   0.19834   0.20041   0.20501
 Alpha virt. eigenvalues --    0.20587   0.20680   0.20698   0.21046   0.21278
 Alpha virt. eigenvalues --    0.21436   0.21599   0.21851   0.22067   0.22193
 Alpha virt. eigenvalues --    0.22544   0.22559   0.22642   0.22792   0.22877
 Alpha virt. eigenvalues --    0.22945   0.23155   0.23570   0.24580   0.25236
 Alpha virt. eigenvalues --    0.25488   0.25583   0.26271   0.33705   0.34066
  Beta  occ. eigenvalues --   -1.12716  -1.11780  -1.10357  -1.08811  -1.05047
  Beta  occ. eigenvalues --   -1.03920  -1.00998  -1.00148  -0.97959  -0.94082
  Beta  occ. eigenvalues --   -0.93962  -0.93447  -0.90242  -0.86959  -0.85973
  Beta  occ. eigenvalues --   -0.81678  -0.80804  -0.79509  -0.78549  -0.76420
  Beta  occ. eigenvalues --   -0.75830  -0.72218  -0.69078  -0.67731  -0.67204
  Beta  occ. eigenvalues --   -0.63930  -0.62773  -0.60395  -0.58658  -0.58127
  Beta  occ. eigenvalues --   -0.57794  -0.56491  -0.56136  -0.54981  -0.53659
  Beta  occ. eigenvalues --   -0.53476  -0.52508  -0.52195  -0.50893  -0.50620
  Beta  occ. eigenvalues --   -0.49740  -0.49657  -0.49244  -0.48367  -0.47968
  Beta  occ. eigenvalues --   -0.47779  -0.47453  -0.46824  -0.46774  -0.45540
  Beta  occ. eigenvalues --   -0.43680  -0.43210  -0.42966  -0.42868  -0.42494
  Beta  occ. eigenvalues --   -0.41989  -0.39868  -0.39079  -0.38723  -0.38198
  Beta  occ. eigenvalues --   -0.37206  -0.37102  -0.35293  -0.33840  -0.33008
  Beta  occ. eigenvalues --   -0.29158  -0.27670  -0.26522
  Beta virt. eigenvalues --   -0.02839  -0.02362  -0.00668   0.00276   0.01856
  Beta virt. eigenvalues --    0.02357   0.04232   0.04374   0.06172   0.07191
  Beta virt. eigenvalues --    0.07308   0.07349   0.07457   0.08100   0.10131
  Beta virt. eigenvalues --    0.12169   0.12287   0.12781   0.13264   0.13411
  Beta virt. eigenvalues --    0.14499   0.15222   0.15544   0.15682   0.15970
  Beta virt. eigenvalues --    0.16122   0.16328   0.16489   0.16769   0.17246
  Beta virt. eigenvalues --    0.17541   0.17809   0.17995   0.18224   0.18484
  Beta virt. eigenvalues --    0.18554   0.18683   0.18811   0.19039   0.19316
  Beta virt. eigenvalues --    0.19423   0.19743   0.19772   0.19909   0.20102
  Beta virt. eigenvalues --    0.20551   0.20621   0.20761   0.20912   0.21107
  Beta virt. eigenvalues --    0.21362   0.21531   0.21795   0.22000   0.22214
  Beta virt. eigenvalues --    0.22371   0.22595   0.22674   0.22723   0.22807
  Beta virt. eigenvalues --    0.22942   0.23008   0.23310   0.23545   0.24544
  Beta virt. eigenvalues --    0.25196   0.25401   0.25835   0.26262   0.33729
  Beta virt. eigenvalues --    0.34265
          Condensed to atoms (all electrons):
               1          2          3          4          5          6
     1  C    4.311012   0.000000   0.000000   0.000000   0.000000   0.000000
     2  C    0.000000   4.031648   0.000000   0.000000   0.000000   0.000000
     3  C    0.000000   0.000000   4.104728   0.000000   0.000000   0.000000
     4  C    0.000000   0.000000   0.000000   4.001556   0.000000   0.000000
     5  C    0.000000   0.000000   0.000000   0.000000   4.138945   0.000000
     6  C    0.000000   0.000000   0.000000   0.000000   0.000000   4.159656
     7  C    0.000000   0.000000   0.000000   0.000000   0.000000   0.000000
     8  C    0.000000   0.000000   0.000000   0.000000   0.000000   0.000000
     9  C    0.000000   0.000000   0.000000   0.000000   0.000000   0.000000
    10  C    0.000000   0.000000   0.000000   0.000000   0.000000   0.000000
    11  C    0.000000   0.000000   0.000000   0.000000   0.000000   0.000000
    12  C    0.000000   0.000000   0.000000   0.000000   0.000000   0.000000
    13  C    0.000000   0.000000   0.000000   0.000000   0.000000   0.000000
    14  C    0.000000   0.000000   0.000000   0.000000   0.000000   0.000000
    15  C    0.000000   0.000000   0.000000   0.000000   0.000000   0.000000
    16  C    0.000000   0.000000   0.000000   0.000000   0.000000   0.000000
    17  C    0.000000   0.000000   0.000000   0.000000   0.000000   0.000000
    18  C    0.000000   0.000000   0.000000   0.000000   0.000000   0.000000
    19  C    0.000000   0.000000   0.000000   0.000000   0.000000   0.000000
    20  C    0.000000   0.000000   0.000000   0.000000   0.000000   0.000000
    21  C    0.000000   0.000000   0.000000   0.000000   0.000000   0.000000
    22  C    0.000000   0.000000   0.000000   0.000000   0.000000   0.000000
    23  C    0.000000   0.000000   0.000000   0.000000   0.000000   0.000000
    24  C    0.000000   0.000000   0.000000   0.000000   0.000000   0.000000
    25  C    0.000000   0.000000   0.000000   0.000000   0.000000   0.000000
    26  C    0.000000   0.000000   0.000000   0.000000   0.000000   0.000000
    27  C    0.000000   0.000000   0.000000   0.000000   0.000000   0.000000
    28  C    0.000000   0.000000   0.000000   0.000000   0.000000   0.000000
    29  C    0.000000   0.000000   0.000000   0.000000   0.000000   0.000000
    30  H    0.000000   0.000000   0.000000   0.000000   0.000000   0.000000
    31  H    0.000000   0.000000   0.000000   0.000000   0.000000   0.000000
    32  H    0.000000   0.000000   0.000000   0.000000   0.000000   0.000000
    33  H    0.000000   0.000000   0.000000   0.000000   0.000000   0.000000
    34  H    0.000000   0.000000   0.000000   0.000000   0.000000   0.000000
    35  H    0.000000   0.000000   0.000000   0.000000   0.000000   0.000000
    36  H    0.000000   0.000000   0.000000   0.000000   0.000000   0.000000
    37  H    0.000000   0.000000   0.000000   0.000000   0.000000   0.000000
    38  H    0.000000   0.000000   0.000000   0.000000   0.000000   0.000000
    39  H    0.000000   0.000000   0.000000   0.000000   0.000000   0.000000
    40  H    0.000000   0.000000   0.000000   0.000000   0.000000   0.000000
    41  H    0.000000   0.000000   0.000000   0.000000   0.000000   0.000000
    42  H    0.000000   0.000000   0.000000   0.000000   0.000000   0.000000
    43  H    0.000000   0.000000   0.000000   0.000000   0.000000   0.000000
    44  Mn   0.000000   0.000000   0.000000   0.000000   0.000000   0.000000
[...]
 .00003173,-0.00102475,-0.00000004,-0.00002636,0.00003614,0.,0.00023378
 ,0.00017763,0.,0.00018364,-0.00008051,0.00000001,-0.00334908,0.0002174
 9,0.00000027,-0.00034006,0.00031194,-0.00000002,-0.00002922,0.00015177
 ,0.,0.00013111,-0.00051006,0.00000002,-0.00014346,-0.00005931,0.,-0.00
 006357,-0.00009929,0.,0.00007713,-0.00035398,-0.00000003,-0.00007772,-
 0.00009100,0.00000008,-0.00001215,-0.00003473,0.,-0.00001658,-0.000038
 14,0.,0.00003570,0.00000578,0.,-0.00002746,-0.00000737,0.,-0.00108432,
 -0.00088796,0.00000008,0.00009175,0.00000821,0.00000001,0.00012496,0.0
 0005738,0.,-0.00003336,-0.00012191,0.00000001,-0.00000416,0.00002491,0
 .,-0.00000628,-0.00000370,0.,-0.00002971,0.00001484,0.,0.00001534,-0.0
 0000367,0.,0.00000528,0.00000695,0.,0.00000715,0.00000807,0.,0.0000051
 0,0.00000700,0.,-0.00000341,0.00000971,0.,-0.00000480,0.00001242,0.,-0
 .00001355,0.00001872,0.,-0.00001018,0.00000042,0.,-0.00001516,-0.00000
 888,0.,-0.00000087,0.00000505,0.00000001,-0.00083743,0.00009941,-0.000
 00004,0.11633145,0.01248423,-0.00205862,-0.00000054,0.08206046,-0.1667
 5019,-0.00000582,0.00357017,-0.03873310,-0.00000139,0.00021768,0.00009
 530,0.,0.00002794,0.00001263,0.,-0.00081813,-0.00089467,0.00000002,-0.
 00001737,-0.00000417,0.,-0.00095233,0.00077063,0.00000003,-0.00050307,
 0.00026944,-0.00000003,0.00051049,-0.00142978,-0.00000026,0.00060950,-
 0.00075168,0.00000003,0.00004201,-0.00038887,0.,0.00017284,0.00113698,
 0.00000014,0.00017001,0.00019557,0.00000008,0.00016510,0.00025193,0.00
 000002,0.00028705,-0.00049570,0.,0.00028776,0.00020471,0.00000017,0.00
 012134,0.00015996,0.,0.00001250,-0.00001231,0.,0.00004036,-0.00000688,
 0.,0.00004899,0.00003990,0.,-0.00164505,-0.00164495,-0.00000003,-0.000
 22637,-0.00012725,-0.00000002,0.00009006,-0.00002449,0.,-0.00026839,0.
 00002354,0.00000002,-0.00008315,-0.00008996,0.00000002,0.00000686,-0.0
 0000080,0.,0.,0.00001860,0.,-0.00001940,0.00000934,0.,-0.00001124,-0.0
 0001297,0.,-0.00001145,-0.00001499,0.,-0.00000703,-0.00001917,0.,0.000
 00691,-0.00001324,0.,0.00000805,-0.00002445,0.,0.00002981,-0.00004285,
 0.,0.00002658,0.00000506,0.,0.00004060,0.00003585,0.,0.00010431,0.0000
 9076,-0.00000001,-0.00024804,0.00104108,0.00000011,-0.09557545,0.20978
 512,0.00000123,-0.00000087,0.00630745,0.00000359,-0.00000575,-0.041537
 29,0.00000006,-0.00000107,0.00716041,0.,-0.00000001,-0.00008617,0.,0.,
 -0.00000183,0.,0.00000004,-0.00053691,0.,0.,-0.00001413,0.00000003,0.0
 0000001,-0.00045043,-0.00000002,0.00000001,0.00001840,0.00000023,-0.00
 000037,0.00800020,0.00000003,0.,-0.00049525,0.,0.,0.00004565,0.0000000
 4,0.00000010,-0.00068493,0.,0.,-0.00005066,0.,0.,-0.00001449,0.,0.0000
 0002,-0.00039177,0.00000001,0.00000002,-0.00003264,0.,0.,-0.00002813,0
 .,0.,0.00002413,0.,0.,0.00001175,0.,0.,-0.00000772,0.00000005,-0.00000
 010,0.00222930,0.,0.,0.00003434,0.,0.,0.00000480,-0.00000001,0.,0.0000
 4649,0.,0.,0.00002114,0.,0.,-0.00000797,0.,0.,-0.00000722,0.,0.,-0.000
 00349,0.,0.,0.00000406,0.,0.,0.00000253,0.,0.,0.00000352,0.,0.,0.00000
 349,0.,0.,0.00000564,0.,0.,0.00000045,0.,0.,-0.00000573,0.,0.,0.000009
 72,0.,0.,0.00021292,-0.00000004,0.00000011,-0.00250125,-0.00000521,0.0
 0000790,0.02233855,0.00032771,0.00011891,-0.00000001,-0.00113362,0.000
 04026,-0.00000002,-0.03188683,0.02545305,0.00000192,0.00754645,-0.0081
 5148,-0.00000019,-0.00011737,0.00009768,0.,-0.08574788,0.08386500,0.00
 000306,-0.00043840,-0.00136029,-0.00000003,0.00007142,-0.00001073,0.,0
 .00001743,0.00004050,0.,-0.00003890,0.00015122,-0.00000001,-0.00001482
 ,-0.00000571,0.,-0.00001254,-0.00006961,0.,-0.00014893,0.00029416,-0.0
 0000007,0.00005166,0.00002635,-0.00000008,0.00013412,0.00004437,0.,0.0
 0015459,0.00051159,-0.00000001,0.00005179,-0.00020868,-0.00000018,0.00
 026927,0.00009074,0.,0.00016826,-0.00031665,-0.00000001,0.00026228,0.0
 0010622,-0.00000003,0.00005046,0.00003691,0.,-0.00294443,-0.00121603,0
 .00000025,-0.00017755,-0.00012130,0.,-0.00097288,-0.00106169,0.0000001
 9,0.00000177,-0.00033206,-0.00000002,-0.00027348,0.00000201,-0.0000000
 2,0.00001076,-0.00001573,0.,-0.00023085,-0.00006886,0.00000001,-0.0000
 3604,0.00006426,0.,0.00001171,0.00002659,0.,0.00003262,0.00001328,0.,0
 .00000714,0.00001139,0.,-0.00000854,0.00002675,0.,-0.00001743,0.000023
 85,0.,-0.00001305,0.00001336,0.,-0.00001332,0.00000008,0.,-0.00001254,
 -0.00001662,0.,-0.00001548,-0.00001255,0.,0.00000348,-0.00005968,0.,-0
 .00047728,-0.00056319,0.00000001,0.11626380,-0.00038256,-0.00026382,0.
 ,0.00021206,0.00071713,0.00000004,0.01131915,-0.00149702,-0.00000056,0
 .00496649,-0.04005845,-0.00000077,0.00021419,-0.00016998,0.,0.08439837
 ,-0.16775636,-0.00000528,-0.00062204,-0.00132550,0.00000002,-0.0002415
 4,-0.00005707,0.,-0.00003510,-0.00007422,0.,0.00037648,0.00015924,0.,0
 .00006235,-0.00002869,0.,0.00002383,0.00010941,0.,-0.00071201,-0.00000
 479,0.00000006,-0.00005916,-0.00004239,0.00000002,-0.00021119,-0.00007
 246,-0.00000001,-0.00021131,-0.00053488,0.00000001,-0.00010472,0.00027
 379,0.00000005,-0.00043397,-0.00015327,0.,0.00025475,-0.00018648,0.,-0
 .00044720,-0.00015898,0.00000003,-0.00010075,-0.00005840,0.,0.00021863
 ,0.00061951,-0.00000006,0.00027624,0.00021352,0.,-0.00147807,-0.001946
 96,0.,0.00010656,0.00051751,0.,0.00043461,-0.00002279,0.,0.00005976,0.
 00011523,0.,0.00023833,-0.00010682,0.,0.00006128,-0.00010266,0.,-0.000
 03892,-0.00005088,0.,-0.00001335,-0.00005537,0.,-0.00000808,-0.0000149
 3,0.,0.00001317,-0.00003806,0.,0.00002663,-0.00003538,0.,0.00002006,-0
 .00002084,0.,0.00002068,-0.00000018,0.,0.00002109,0.00003190,0.,0.0000
 1567,0.00004521,0.,-0.00001829,0.00007261,0.,-0.00037436,0.00001927,0.
 ,-0.09719472,0.21202289,0.00000004,-0.00000003,-0.00013873,-0.00000008
 ,-0.00000001,-0.00114521,0.00000214,-0.00000115,0.00650648,0.00000016,
 -0.00000002,0.00594914,0.,0.00000002,-0.00002028,0.00000267,-0.0000054
 1,-0.03784283,-0.00000008,0.00000005,-0.00109535,0.00000003,-0.0000000
 2,-0.00005154,0.00000002,-0.00000001,-0.00001743,-0.00000003,0.0000000
 2,0.00009990,-0.00000001,0.00000002,0.00003571,0.,0.00000002,0.0000048
 0,-0.00000004,0.,-0.00061179,-0.00000001,0.,-0.00005092,-0.00000001,-0
 .00000001,-0.00001089,-0.00000009,-0.00000012,0.00000056,-0.00000002,0
 .00000002,-0.00008627,-0.00000002,-0.00000001,-0.00002903,0.,0.,-0.000
 22985,-0.00000002,0.,-0.00001740,0.,0.,-0.00001142,0.00000024,0.000000
 13,0.00428104,0.00000002,0.00000001,0.00002505,0.00000027,-0.00000007,
 0.00389224,-0.00000003,0.00000004,-0.00045684,0.00000002,0.,0.00003796
 ,0.,-0.00000001,-0.00002756,0.,0.,-0.00008008,0.,0.,0.00004023,0.,0.,0
 .00003019,0.,0.,0.00002559,0.,0.,0.00000255,0.,0.,0.00000016,0.,0.,0.0
 0000568,0.,0.,0.00000271,0.,0.,0.00000173,0.,0.,0.00000605,0.,0.,0.000
 01326,0.,0.,0.00014689,0.00000001,0.00000001,0.00028975,-0.00000523,0.
 00000656,0.01994346,0.00016587,0.00002870,0.,-0.00014412,-0.00009565,0
 .,0.00019842,0.00019123,0.,-0.03094222,0.02514524,0.00000137,0.0069474
 7,-0.00898970,0.00000003,-0.00220960,0.00010790,0.00000004,-0.08199251
 ,0.08217731,0.00000120,0.00019975,-0.00003026,0.,0.00007597,-0.0000036
 2,0.,-0.00021662,-0.00006578,0.,-0.00010526,0.00006094,0.,-0.00001206,
 0.00000496,0.,0.00029297,0.00004763,-0.00000005,0.00007231,-0.00000110
 ,-0.00000004,0.00006802,-0.00000243,0.,-0.00011454,0.00053074,0.,0.000
 15644,-0.00008492,-0.00000010,0.00016438,0.00002000,0.,-0.00003793,-0.
 00008980,0.,0.00010204,-0.00007113,0.,0.00011012,-0.00001354,0.,-0.000
 12515,-0.00008783,0.,-0.00009338,-0.00004373,0.,-0.00284381,-0.0005080
 4,0.00000027,-0.00019843,0.00002809,0.,-0.00017931,0.00007027,-0.00000
 001,-0.00083010,-0.00154797,0.00000025,-0.00006322,-0.00004635,-0.0000
 0001,-0.00011099,0.00005541,0.,0.00021402,-0.00016363,-0.00000002,0.00
 001172,0.00003885,0.,0.00000528,0.00001120,0.,-0.00000624,0.00001651,0
 .,-0.00001167,0.00001821,0.,-0.00001140,0.00001437,0.,-0.00001317,-0.0
 0000028,0.,-0.00001164,-0.00001516,0.,-0.00001365,-0.00002078,0.,-0.00
 000596,-0.00002491,0.,0.00000563,-0.00002433,0.,-0.00054916,-0.0007467
 9,0.00000002,0.11171094,-0.00013407,-0.00003603,0.,0.00018518,0.000093
 41,0.,-0.00034114,-0.00018964,0.,0.01151665,-0.00151264,-0.00000043,0.
 00499086,-0.04133621,0.00000017,-0.00020210,0.00027894,0.00000001,0.08
 188349,-0.17172407,-0.00000249,-0.00027246,0.00001921,0.,-0.00008300,-
 0.00001834,0.,0.00031242,0.00017645,0.,0.00011868,-0.00008002,0.,0.000
 01847,0.00002486,0.,-0.00029842,-0.00029802,0.,-0.00004325,-0.00001044
 ,0.,-0.00011458,-0.00001869,0.,-0.00014363,0.00020355,0.,-0.00038001,0
 .00009681,0.,-0.00028532,-0.00007714,0.,-0.00003895,0.00022853,0.,-0.0
 0014771,0.00011472,0.,-0.00017753,0.00000807,0.,0.00022261,-0.00007838
 ,0.,0.00015490,0.00012402,0.,-0.00019648,-0.00000594,0.00000003,0.0002
 1804,-0.00016216,0.,0.00029546,-0.00005934,0.,-0.00166090,-0.00176796,
 0.00000013,0.00011094,0.00004836,0.,0.00016924,-0.00009874,0.,0.000163
 03,-0.00040743,0.,-0.00002666,-0.00005087,0.,-0.00000696,-0.00001294,0
 .,0.00000994,-0.00002774,0.,0.00001796,-0.00002464,0.,0.00001570,-0.00
 001790,0.,0.00001682,0.,0.,0.00001682,0.00002304,0.,0.00001629,0.00003
 453,0.,0.00000338,0.00002971,0.,-0.00006554,0.00004949,0.,-0.00043585,
 0.00006834,0.00000001,-0.09506743,0.21661296,0.,0.,-0.00002372,0.,0.,0
 .00002926,0.00000002,-0.00000002,-0.00001488,0.00000179,-0.00000092,0.
 00600914,0.,0.00000106,0.00620702,-0.00000002,-0.00000008,-0.00089403,
 0.00000086,-0.00000269,-0.03805349,0.,0.,-0.00003192,0.,0.,-0.00000963
 ,0.,0.,0.00004279,0.,0.,0.00001640,0.,0.,0.00000307,-0.00000001,0.,-0.
 00006628,0.,0.,-0.00002173,0.,0.,-0.00000825,-0.00000001,0.,-0.0002059
 3,0.,0.,-0.00003880,0.,0.,-0.00002053,-0.00000006,-0.00000005,0.000043
 48,0.,0.,0.00000087,0.,0.,-0.00001090,0.,0.,0.00005751,0.,0.,0.0000129
 8,0.00000026,0.00000011,0.00356257,0.,-0.00000001,-0.00006942,0.,0.,0.
 00002229,0.00000032,0.,0.00460464,-0.00000003,0.,-0.00048123,0.,0.,0.0
 0004014,-0.00000002,0.,-0.00035464,0.,0.,0.00003020,0.,0.,0.00000406,0
 .,0.,-0.00000019,0.,0.,0.00000521,0.,0.,0.00000259,0.,0.,0.00000114,0.
 ,0.,0.00000327,0.,0.,0.00000681,0.,0.,0.00000644,0.,0.,0.00002355,0.00
 000002,0.00000002,0.00029051,-0.00000309,0.00000254,0.02027669,0.00015
 039,-0.00000415,0.,-0.00015501,-0.00009709,0.,0.00026743,-0.00001620,-
 0.00000002,-0.00026875,-0.00121979,0.00000020,-0.21925074,0.00012984,0
 .00000686,-0.00039631,0.00000249,0.00000001,-0.02694285,-0.01510959,0.
 00000144,0.00037398,-0.00009485,0.,0.00012681,-0.00000126,0.,-0.000400
 58,-0.00010728,0.,-0.00017748,0.00016583,0.,-0.00002751,-0.00000027,0.
 ,0.00039518,0.00022988,-0.00000001,0.00000359,-0.00000093,-0.00000002,
 0.00012732,0.00000132,0.,0.00011172,0.00000019,-0.00000002,0.00039677,
 -0.00022913,-0.00000002,0.00037264,0.00009376,0.,-0.00026676,0.0012169
 1,0.00000017,0.00026828,0.00001660,-0.00000003,0.00014971,0.00000352,0
 .,-0.00026820,0.00001272,0.,-0.00017741,-0.00016412,0.,0.00014451,0.00
 000019,0.,-0.00026946,-0.00001315,0.00000002,-0.00039920,0.00010796,0.
 ,-0.02688740,0.01512739,0.00000108,-0.00039611,-0.00000224,0.00000002,
 -0.00015437,0.00009707,0.,0.00045265,0.00046783,-0.00000007,0.00004003
 ,0.00006797,0.,0.00001396,0.00002273,0.,-0.00001166,0.00003645,0.,-0.0
 0002427,0.00003767,0.,-0.00002218,0.00002672,0.,-0.00002220,0.00000002
 ,0.,-0.00002213,-0.00002666,0.,-0.00002431,-0.00003761,0.,-0.00001170,
 -0.00003645,0.,0.00001395,-0.00002279,0.,0.00003996,-0.00006791,0.,0.0
 0045118,-0.00046877,-0.00000005,0.27277013,-0.00003304,-0.00001250,0.,
 0.00000045,0.00001177,0.,-0.00002707,-0.00011300,0.,-0.00087724,-0.002
 33433,0.00000011,0.00012503,-0.03359039,-0.00000005,-0.00051664,-0.000
 05588,0.00000002,-0.02933743,-0.00753631,0.00000132,-0.00002488,0.0000
 0521,0.,-0.00000826,0.00000447,0.,0.00003009,0.00000802,0.,0.00001012,
 -0.00001012,0.,0.00000001,-0.00000591,0.,-0.00008391,0.00002163,0.,0.0
 0000013,0.00000190,0.,0.00000809,0.00000446,0.,0.00000006,-0.00002327,
 0.,0.00008335,0.00002205,0.,0.00002421,0.00000485,0.,0.00087466,-0.002
 33625,0.00000006,0.00002657,-0.00011313,0.,0.00003300,-0.00001253,0.,0
 .00004985,0.00003631,0.,-0.00000990,-0.00000958,0.,-0.00000024,-0.0000
 6659,0.,-0.00004948,0.00003658,0.,-0.00002943,0.00000783,0.,0.02936093
 ,-0.00758558,-0.00000101,0.00051698,-0.00005659,-0.00000003,-0.0000003
 5,0.00001166,0.,0.00087682,-0.00033946,-0.00000004,0.00002641,0.000053
 54,0.,0.00000420,0.00000597,0.,0.00000111,0.00000343,0.,-0.00000076,0.
 00000134,0.,-0.00000039,0.00000025,0.,0.00000001,0.00000004,0.,0.00000
 042,0.00000028,0.,0.00000080,0.00000139,0.,-0.00000110,0.00000348,0.,-
 0.00000420,0.00000601,0.,-0.00002639,0.00005365,0.,-0.00087874,-0.0003
 3879,0.00000002,-0.00014386,0.05429736,0.,0.,-0.00000250,0.,0.,-0.0000
 0966,-0.00000002,0.,-0.00023299,0.00000028,0.00000010,0.00481061,0.000
 00677,0.00000016,-0.03984671,0.00000002,0.,-0.00014374,0.00000154,0.00
 000068,0.00553023,-0.00000002,0.,-0.00001986,0.,0.,-0.00000652,0.00000
 002,0.,0.00002082,0.,0.,0.00001045,0.,0.,0.00000229,-0.00000001,-0.000
 00001,-0.00000445,0.,0.,-0.00001408,0.,0.,-0.00000653,-0.00000003,0.00
 000001,-0.00047283,-0.00000002,0.,-0.00000442,-0.00000002,0.,-0.000019
 81,0.00000017,0.00000008,0.00481520,-0.00000003,-0.00000001,-0.0002331
 6,0.,0.,-0.00000249,0.,-0.00000001,0.00001766,0.,0.,0.00001042,0.,0.00
 000004,0.00009971,0.00000001,0.,0.00001763,0.00000002,0.,0.00002079,0.
 00000101,-0.00000061,0.00552810,0.,-0.00000002,-0.00014355,0.,0.,-0.00
 000970,-0.00000009,-0.00000003,-0.00108305,0.,0.,0.00009169,0.,0.,0.00
 000661,0.,0.,0.00000519,0.,0.,0.00000360,0.,0.,0.00000213,0.,0.,0.0000
 0084,0.,0.,0.00000213,0.,0.,0.00000360,0.,0.,0.00000519,0.,0.,0.000006
 60,0.,0.,0.00009163,-0.00000006,0.,-0.00108089,-0.00000960,-0.00000040
 ,0.02217911,-0.00574907,0.00534457,0.00000002,0.00323194,0.00580817,0.
 00000005,-0.00921877,-0.00328340,0.00000027,-0.00187046,-0.00435149,0.
 ,-0.00001534,0.00000856,0.,0.00482995,0.00334093,-0.00000016,0.0012317
 0,-0.00008511,-0.00000003,-0.05155721,0.02921682,0.00000005,-0.0022991
 7,-0.00186433,-0.00000036,0.06615782,0.01181800,0.00000102,-0.02017559
 ,-0.08445385,-0.00000446,0.00401308,-0.00013052,0.00000068,-0.10748578
 ,0.14333196,0.00000516,-0.34118893,0.00029233,0.00000831,-0.00207431,0
 .00198596,-0.00000054,0.00196513,0.00003298,0.00000019,-0.10799455,-0.
 14390318,-0.00000078,-0.05100075,-0.02880820,-0.00000016,-0.00187783,0
 .00433186,-0.00000002,-0.00907514,0.00321470,0.00000039,-0.00550672,-0
 .00520610,0.00000012,-0.04269924,0.01021763,0.00000220,-0.02034280,0.0
 8388930,-0.00000454,-0.00582176,0.00002281,0.00000025,-0.04278616,-0.0
 1019799,0.00000259,0.06563504,-0.01199327,0.00000164,0.00124193,0.0000
 7299,-0.00000005,0.00474713,-0.00334353,-0.00000016,0.00302094,-0.0057
 2566,0.00000015,-0.00011701,-0.00013464,0.,-0.00019772,-0.00016590,0.0
 0000003,0.00004506,0.00017615,0.,0.00025288,-0.00031785,-0.00000007,0.
 00078702,-0.00138896,-0.00000006,0.00079306,-0.00013560,0.00000012,-0.
 00131725,0.00000091,-0.00000020,0.00078689,0.00013217,0.00000013,0.000
 78539,0.00136930,-0.00000031,0.00025275,0.00031608,-0.00000002,0.00004
 519,-0.00017764,0.00000001,-0.00019781,0.00016696,0.00000002,-0.000116
 41,0.00013502,0.,-0.00010435,-0.00000007,0.,0.67109995,0.00212448,-0.0
 0700339,-0.00000019,-0.00485179,-0.00400407,0.00000007,0.00144150,0.00
 730468,0.00000020,0.00020087,0.00160100,0.,-0.00000099,0.00026355,0.,-
 0.00104605,-0.00105657,0.00000001,0.00022226,-0.00090792,-0.00000001,0
 .04663970,-0.02679755,0.00000045,0.02932666,-0.02462109,0.00000193,-0.
 05142882,-0.05976543,-0.00000304,-0.06186007,0.03081592,-0.00000317,0.
 00004173,0.03561670,-0.00000005,0.16215298,-0.28445214,-0.00000963,-0.
 00013982,-0.01705784,-0.00000004,-0.02933611,-0.02462536,-0.00000185,-
 0.00000220,-0.01123350,0.00000001,-0.16247706,-0.28436471,-0.00000167,
 -0.04629180,-0.02655846,-0.00000059,-0.00019817,0.00159529,-0.00000002
 ,-0.00135614,0.00722723,-0.00000021,-0.00195549,-0.00692383,0.00000060
 ,0.05438554,0.00857998,-0.00000214,0.06178994,0.03047262,0.00000293,0.
 00000053,-0.00095805,0.00000005,-0.05432999,0.00865060,0.00000267,0.05
 100880,-0.05988054,0.00000343,-0.00022291,-0.00091240,0.00000002,0.001
 00553,-0.00105514,0.00000002,0.00468018,-0.00395745,-0.00000010,-0.000
 06449,0.00012750,0.,-0.00017823,-0.00018444,0.00000002,-0.00023909,-0.
 00070805,0.00000002,0.00024139,-0.00068211,-0.00000007,0.00150561,-0.0
 0203286,0.00000004,0.00046679,0.00052449,0.00000020,-0.00000496,-0.000
 29521,0.,-0.00045816,0.00053019,-0.00000018,-0.00150835,-0.00202248,0.
 00000025,-0.00024231,-0.00068153,0.,0.00024132,-0.00071353,-0.00000003
 ,0.00017782,-0.00018348,-0.00000001,0.00006395,0.00012846,0.,-0.000001
 02,-0.00007475,0.,0.00045960,0.72026840,0.00000010,0.00000002,-0.00024
 237,-0.00000015,-0.00000014,0.00029743,0.00000014,0.00000025,0.0006529
 7,-0.00000002,0.00000010,0.00005329,0.,-0.00000002,-0.00004859,-0.0000
 0021,-0.00000007,-0.00027698,-0.00000002,-0.00000001,-0.00011592,0.000
 00086,-0.00000037,-0.00661233,0.00000046,-0.00000033,-0.00023319,-0.00
 000123,-0.00000190,0.00877092,-0.00000188,-0.00000038,0.00776004,-0.00
 000015,0.00000048,0.00111753,0.00000675,-0.00001149,-0.01838898,0.0000
 0089,-0.00000048,-0.01418060,-0.00000086,-0.00000032,-0.00024560,0.000
 00010,-0.00000041,-0.00127449,0.00000245,0.00000401,-0.01843463,-0.000
 00093,-0.00000043,-0.00659901,0.00000003,0.00000002,0.00005332,-0.0000
 0002,0.00000014,0.00065040,-0.00000011,0.00000007,-0.00024954,0.000002
 30,-0.00000041,0.00602998,-0.00000030,0.00000089,0.00777101,-0.0000000
 7,-0.00000002,-0.00003291,0.00000145,0.00000109,0.00603644,0.00000122,
 0.00000093,0.00879379,-0.00000005,0.00000003,-0.00011592,0.00000012,0.
 ,-0.00027598,0.00000019,-0.00000014,0.00029587,0.00000002,0.00000002,0
 .00008434,0.00000002,0.00000003,0.00019854,-0.00000003,0.00000002,0.00
 005181,-0.00000006,0.,0.00020433,-0.00000002,0.,0.00052809,0.00000003,
 0.00000006,-0.00002630,0.00000003,0.00000005,-0.00006854,-0.00000004,0
 .,-0.00002254,-0.00000013,-0.00000005,0.00053117,-0.00000001,-0.000000
 09,0.00020256,0.00000002,-0.00000006,0.00005072,0.00000007,-0.00000002
 ,0.00019868,0.00000003,0.,0.00008436,0.00000002,0.,0.00005570,-0.00001
 106,0.00000895,0.01698913||0.00014872,-0.00006791,0.00000004,-0.000167
 90,0.00000491,0.00000021,0.00020875,-0.00001527,-0.00000003,0.00009641
 ,0.00014375,0.00000005,0.00001934,0.00007028,-0.00000008,-0.00032102,-
 0.00016028,0.00000003,-0.00004663,-0.00008614,0.,0.00005891,-0.0002771
 0,0.00000020,-0.00019450,0.00013632,-0.00000009,0.00001000,0.00016074,
 0.00000033,-0.00002300,0.00035977,0.00000027,-0.00000108,-0.00030395,0
 .00000001,-0.00006544,-0.00007724,0.00000027,-0.00003802,-0.00023973,0
 .00000086,0.00031907,0.00013859,0.00000008,-0.00007938,-0.00004940,0.0
 0000012,0.00012387,0.00011665,0.00000074,0.00009912,0.00017642,0.00000
 026,0.00001114,-0.00012923,-0.00000001,0.00025968,-0.00002724,-0.00000
 004,0.00025266,0.00015718,-0.00000003,-0.00002367,0.00010452,0.0000003
 0,-0.00044466,-0.00010929,0.00000001,0.00022979,0.00002726,-0.00000003
 ,-0.00004471,-0.00005561,0.00000034,-0.00008385,-0.00018085,0.00000032
 ,0.00003112,-0.00000282,0.00000011,-0.00031078,0.00015547,0.00000009,-
 0.00022567,0.00001935,0.00000013,0.00000354,0.00000558,-0.00000025,0.0
 0004426,-0.00001306,0.,0.00003341,-0.00001104,0.00000002,-0.00006954,-
 0.00004579,-0.00000008,-0.00000573,0.00001058,-0.00000004,-0.00002951,
 0.00000345,0.,0.00001060,0.00004119,-0.00000002,0.00005209,-0.00003485
 ,0.00000008,0.00003089,0.00003798,0.00000005,-0.00005129,0.00002200,-0
 .00000010,0.00001248,0.00000022,-0.00000007,0.00005669,0.00000762,0.,0
 .00001857,0.00001145,-0.00000002,0.00000510,-0.00001213,0.00000016,0.0
 0009018,-0.00001231,-0.00000421|||@


 IF GOD HAD MEANT MAN TO SEE THE SUN RISE, HE
 WOULD HAVE SCHEDULED IT FOR A LATER HOUR.
 Job cpu time:       0 days  0 hours  0 minutes 12.0 seconds.
 File lengths (MBytes):  RWF=    735 Int=      0 D2E=      0 Chk=      5 Scr=      1
 Normal termination of Gaussian 09 at Wed Mar 11 11:26:58 2026.
