 Entering Link 1 = C:\G09W\l1.exe PID=     26504.
  
 Copyright (c) 1988,1990,1992,1993,1995,1998,2003,2009,2013,
            Gaussian, Inc.  All Rights Reserved.
  
 This is part of the Gaussian(R) 09 program.  It is based on
 the Gaussian(R) 03 system (copyright 2003, Gaussian, Inc.),
 the Gaussian(R) 98 system (copyright 1998, Gaussian, Inc.),
 the Gaussian(R) 94 system (copyright 1995, Gaussian, Inc.),
 the Gaussian 92(TM) system (copyright 1992, Gaussian, Inc.),
 the Gaussian 90(TM) system (copyright 1990, Gaussian, Inc.),
 the Gaussian 88(TM) system (copyright 1988, Gaussian, Inc.),
 the Gaussian 86(TM) system (copyright 1986, Carnegie Mellon
 University), and the Gaussian 82(TM) system (copyright 1983,
 Carnegie Mellon University). Gaussian is a federally registered
 trademark of Gaussian, Inc.
  
 This software contains proprietary and confidential information,
 including trade secrets, belonging to Gaussian, Inc.
  
 This software is provided under written license and may be
 used, copied, transmitted, or stored only in accord with that
 written license.
  
 The following legend is applicable only to US Government
 contracts under FAR:
  
                    RESTRICTED RIGHTS LEGEND
  
 Use, reproduction and disclosure by the US Government is
 subject to restrictions as set forth in subparagraphs (a)
 and (c) of the Commercial Computer Software - Restricted
 Rights clause in FAR 52.227-19.
  
 Gaussian, Inc.
 340 Quinnipiac St., Bldg. 40, Wallingford CT 06492
  
  
 ---------------------------------------------------------------
 Warning -- This program may not be used in any manner that
 competes with the business of Gaussian, Inc. or will provide
 assistance to any competitor of Gaussian, Inc.  The licensee
 of this program is prohibited from giving any competitor of
 Gaussian, Inc. access to this program.  By using this program,
 the user acknowledges that Gaussian, Inc. is engaged in the
 business of creating and licensing software in the field of
 computational chemistry and represents and warrants to the
 licensee that it is not a competitor of Gaussian, Inc. and that
 it will not use this program in any manner prohibited above.
 ---------------------------------------------------------------
  

 Cite this work as:
 Gaussian 09, Revision D.01,
 M. J. Frisch, G. W. Trucks, H. B. Schlegel, G. E. Scuseria, 
 M. A. Robb, J. R. Cheeseman, G. Scalmani, V. Barone, B. Mennucci, 
 G. A. Petersson, H. Nakatsuji, M. Caricato, X. Li, H. P. Hratchian, 
 A. F. Izmaylov, J. Bloino, G. Zheng, J. L. Sonnenberg, M. Hada, 
 M. Ehara, K. Toyota, R. Fukuda, J. Hasegawa, M. Ishida, T. Nakajima, 
 Y. Honda, O. Kitao, H. Nakai, T. Vreven, J. A. Montgomery, Jr., 
 J. E. Peralta, F. Ogliaro, M. Bearpark, J. J. Heyd, E. Brothers, 
 K. N. Kudin, V. N. Staroverov, T. Keith, R. Kobayashi, J. Normand, 
 K. Raghavachari, A. Rendell, J. C. Burant, S. S. Iyengar, J. Tomasi, 
 M. Cossi, N. Rega, J. M. Millam, M. Klene, J. E. Knox, J. B. Cross, 
 V. Bakken, C. Adamo, J. Jaramillo, R. Gomperts, R. E. Stratmann, 
 O. Yazyev, A. J. Austin, R. Cammi, C. Pomelli, J. W. Ochterski, 
 R. L. Martin, K. Morokuma, V. G. Zakrzewski, G. A. Voth, 
 P. Salvador, J. J. Dannenberg, S. Dapprich, A. D. Daniels, 
 O. Farkas, J. B. Foresman, J. V. Ortiz, J. Cioslowski, 
 and D. J. Fox, Gaussian, Inc., Wallingford CT, 2013.
 
 ******************************************
 Gaussian 09:  IA32W-G09RevD.01 24-Apr-2013
                05-Jan-2025 
 ******************************************
 %nprocshared=2
 Will use up to    2 processors via shared memory.
 %mem=1GB
 %chk=G:\My Drive\Boro Kaaz\Pristine MoS2\NH3\MoS2+NH3_freq.chk
 -----------------------------------
 # freq pm6 scf=qc geom=connectivity
 -----------------------------------
 1/10=4,30=1,38=1,57=2/1,3;
 2/12=2,17=6,18=5,40=1/2;
 3/5=2,16=1,25=1,41=3900000,71=2,140=1/1,2,3;
 4/35=1/1;
 5/5=2,8=3,35=1,38=5,98=1/8;
 8/6=4,10=90,11=11/1;
 11/6=1,8=1,9=11,15=111,16=1/1,2,10;
 10/6=1/2;
 6/7=2,8=2,9=2,10=2,18=1,28=1/1;
 7/8=1,10=1,25=1/1,2,3,16;
 1/10=4,30=1/3;
 99//99;
 ---------------------
 Pristine MoS2+NH3 gas
 ---------------------
 Symbolic Z-matrix:
 Charge =  0 Multiplicity = 1
 Mo                   -1   -0.56574   0.87419  -0.00056 
 S                    -1   -1.89628   1.92374   1.72271 
 S                    -1   -2.55147   1.36807  -1.28684 
 Mo                   -1    2.53053   1.13705  -0.72315 
 Mo                   -1    5.62679   1.39991  -1.44575 
 Mo                   -1    8.72306   1.66277  -2.16835 
 S                    -1    1.19998   2.1866    1.00012 
 S                    -1    4.29625   2.44947   0.27752 
 S                    -1    7.39252   2.71233  -0.44508 
 S                    -1    0.5448    1.63093  -2.00944 
 S                    -1    3.64106   1.89379  -2.73204 
 S                    -1    6.73733   2.15666  -3.45463 
 Mo                   -1   -2.44388   3.45221  -0.06768 
 Mo                   -1   -4.32202   6.03023  -0.1348 
 Mo                   -1   -6.20016   8.60825  -0.20192 
 S                    -1   -3.77442   4.50177   1.65559 
 S                    -1   -5.65256   7.07979   1.58847 
 S                    -1   -7.5307    9.65781   1.52135 
 S                    -1   -4.42961   3.94609  -1.35396 
 S                    -1   -6.30775   6.52412  -1.42108 
 S                    -1   -8.18589   9.10214  -1.4882 
 Mo                   -1    0.65239   3.71507  -0.79027 
 Mo                   -1   -1.22575   6.29309  -0.85739 
 Mo                   -1   -3.10389   8.87112  -0.92452 
 Mo                   -1    3.74865   3.97793  -1.51287 
 Mo                   -1   -0.00763   9.13398  -1.64711 
 Mo                   -1    6.84492   4.2408   -2.23547 
 Mo                   -1    4.96678   6.81882  -2.30259 
 Mo                   -1    3.08864   9.39684  -2.36971 
 S                    -1   -0.67816   4.76463   0.933 
 S                    -1   -2.5563    7.34265   0.86587 
 S                    -1   -4.43443   9.92067   0.79875 
 S                    -1    2.41811   5.02749   0.2104 
 S                    -1    0.53997   7.60551   0.14328 
 S                    -1   -1.33817   10.18353   0.07616 
 S                    -1    5.51438   5.29035  -0.5122 
 S                    -1    3.63624   7.86837  -0.57932 
 S                    -1    1.7581    10.4464  -0.64644 
 S                    -1   -1.33334   4.20896  -2.07656 
 S                    -1   -3.21148   6.78698  -2.14368 
 S                    -1   -5.08962   9.365    -2.2108 
 S                    -1    1.76293   4.47182  -2.79916 
 S                    -1   -0.11521   7.04984  -2.86628 
 S                    -1   -1.99335   9.62786  -2.9334 
 S                    -1    4.85919   4.73468  -3.52175 
 S                    -1    2.98105   7.3127   -3.58887 
 S                    -1    1.10291   9.89072  -3.656 
 N                    0     2.72497   5.47771   1.92595 
 H                    0     2.60178   4.48679   1.87211 
 H                    0     3.48444   5.75174   1.33594 
 H                    0     1.88773   5.93452   1.62537 
 Mo                   -1    1.87051   6.55596  -1.57999 
 

 GradGradGradGradGradGradGradGradGradGradGradGradGradGradGradGradGradGrad
 Berny optimization.
 Initialization pass.
 Trust Radius=3.00D-01 FncErr=1.00D-07 GrdErr=1.00D-07
 Number of steps in this run=      2 maximum allowed number of steps=      2.
 GradGradGradGradGradGradGradGradGradGradGradGradGradGradGradGradGradGrad

 Stoichiometry    H3Mo16NS32
 Framework group  C1[X(H3Mo16NS32)]
 Deg. of freedom   150
 Full point group                 C1      NOp   1
 Largest Abelian subgroup         C1      NOp   1
 Largest concise Abelian subgroup C1      NOp   1
                         Standard orientation:                         
 ---------------------------------------------------------------------
 Center     Atomic      Atomic             Coordinates (Angstroms)
 Number     Number       Type             X           Y           Z
 ---------------------------------------------------------------------
      1         42           0       -0.782587    4.786273   -0.027035
      2         16           0        1.055685    4.785431    1.542144
      3         16           0        1.062991    4.786795   -1.587616
      4         42           0       -3.545610    3.191355   -0.034180
      5         42           0       -6.308634    1.596437   -0.041325
      6         42           0       -9.071658    0.001519   -0.048470
      7         16           0       -1.707339    3.190513    1.534999
      8         16           0       -4.470362    1.595595    1.527854
      9         16           0       -7.233386    0.000677    1.520709
     10         16           0       -1.700033    3.191877   -1.594761
     11         16           0       -4.463057    1.596959   -1.601906
     12         16           0       -7.226080    0.002041   -1.609050
     13         42           0        1.980163    3.190875   -0.021282
     14         42           0        4.742913    1.595478   -0.015529
     15         42           0        7.505664    0.000081   -0.009776
     16         16           0        3.818435    3.190033    1.547897
     17         16           0        6.581185    1.594636    1.553650
     18         16           0        9.343936   -0.000761    1.559403
     19         16           0        3.825741    3.191398   -1.581863
     20         16           0        6.588491    1.596001   -1.576110
     21         16           0        9.351241    0.000603   -1.570356
     22         42           0       -0.782860    1.595957   -0.028427
     23         42           0        1.979890    0.000560   -0.022674
     24         42           0        4.742640   -1.594837   -0.016921
     25         42           0       -3.545884    0.001039   -0.035572
     26         42           0        1.979616   -3.189755   -0.024066
     27         42           0       -6.308908   -1.593879   -0.042717
     28         42           0       -3.546157   -3.189276   -0.036963
     29         42           0       -0.783407   -4.784673   -0.031210
     30         16           0        1.055412    1.595115    1.540752
     31         16           0        3.818162   -0.000282    1.546505
     32         16           0        6.580912   -1.595679    1.552259
     33         16           0       -1.707612    0.000197    1.533607
     34         16           0        1.055138   -1.595200    1.539361
     35         16           0        3.817888   -3.190597    1.545114
     36         16           0       -4.470636   -1.594721    1.526463
     37         16           0       -1.707886   -3.190118    1.532216
     38         16           0        1.054865   -4.785515    1.537969
     39         16           0        1.062717    1.596480   -1.589008
     40         16           0        3.825467    0.001083   -1.583254
     41         16           0        6.588217   -1.594315   -1.577501
     42         16           0       -1.700307    0.001562   -1.596152
     43         16           0        1.062443   -1.593835   -1.590399
     44         16           0        3.825194   -3.189233   -1.584646
     45         16           0       -4.463330   -1.593356   -1.603297
     46         16           0       -1.700580   -3.188753   -1.597544
     47         16           0        1.062170   -4.784151   -1.591791
     48          7           0       -1.595911   -0.094010    3.327667
     49          1           0       -1.905896    0.822223    3.073842
     50          1           0       -2.233991   -0.773843    2.966167
     51          1           0       -0.685597   -0.255425    2.946520
     52         42           0       -0.783134   -1.594358   -0.029819
 ---------------------------------------------------------------------
 Rotational constants (GHZ):      0.0263706      0.0093156      0.0074282
 Standard basis: VSTO-6G (5D, 7F)
 There are   487 symmetry adapted cartesian basis functions of A   symmetry.
 There are   439 symmetry adapted basis functions of A   symmetry.
   439 basis functions,  2922 primitive gaussians,   487 cartesian basis functions
   148 alpha electrons      148 beta electrons
       nuclear repulsion energy      4202.5293245569 Hartrees.
 Integral buffers will be    262144 words long.
 Regular integral format.
 Two-electron integral symmetry is turned off.
 Do NDO integrals.
 One-electron integrals computed using PRISM.
 NBasis=   439 RedAO= F EigKep=  0.00D+00  NBF=   439
 NBsUse=   439 1.00D-04 EigRej=  0.00D+00 NBFU=   439
 Nonelectrostatic core Hamiltonian diagonalized for initial guess.
 Keep J ints in memory in canonical form, NReq=6151171.
 Gradient too large for Newton-Raphson -- use scaled steepest descent instead.
     Accept linear search using points  1 and  2.
 Gradient too large for Newton-Raphson -- use scaled steepest descent instead.
     Minimum is close to point  2 DX= -5.17D-04 DF= -1.87D-05 DXR=  1.73D-03 DFR=  2.98D-06 which will be used.
 Gradient too large for Newton-Raphson -- use scaled steepest descent instead.
 Gradient too large for Newton-Raphson -- use scaled steepest descent instead.
     Accept linear search using points  1 and  2.
 Gradient too large for Newton-Raphson -- use scaled steepest descent instead.
 Gradient too large for Newton-Raphson -- use scaled steepest descent instead.
     Accept linear search using points  1 and  2.
 Gradient too large for Newton-Raphson -- use scaled steepest descent instead.
 Gradient too large for Newton-Raphson -- use scaled steepest descent instead.
     Accept linear search using points  1 and  2.
 Gradient too large for Newton-Raphson -- use scaled steepest descent instead.
 Gradient too large for Newton-Raphson -- use scaled steepest descent instead.
     Accept linear search using points  1 and  2.
 Gradient too large for Newton-Raphson -- use scaled steepest descent instead.
 Gradient too large for Newton-Raphson -- use scaled steepest descent instead.
 Gradient too large for Newton-Raphson -- use scaled steepest descent instead.
     Accept linear search using points  2 and  3.
 Gradient too large for Newton-Raphson -- use scaled steepest descent instead.
     Accept linear search using points  1 and  2.
 Gradient too large for Newton-Raphson -- use scaled steepest descent instead.
 Gradient too large for Newton-Raphson -- use scaled steepest descent instead.
     Minimum is close to point  3 DX= -2.30D-02 DF= -1.50D-04 DXR=  6.10D-02 DFR=  3.74D-03 which will be used.
 Gradient too large for Newton-Raphson -- use scaled steepest descent instead.
 Gradient too large for Newton-Raphson -- use scaled steepest descent instead.
     Accept linear search using points  1 and  2.
 Gradient too large for Newton-Raphson -- use scaled steepest descent instead.
 Gradient too large for Newton-Raphson -- use scaled steepest descent instead.
 Gradient too large for Newton-Raphson -- use scaled steepest descent instead.
 Gradient too large for Newton-Raphson -- use scaled steepest descent instead.
 Gradient too large for Newton-Raphson -- use scaled steepest descent instead.
 Gradient too large for Newton-Raphson -- use scaled steepest descent instead.
 Gradient too large for Newton-Raphson -- use scaled steepest descent instead.
     Minimum is close to point  3 DX=  1.28D-01 DF= -5.94D-05 DXR=  7.02D-02 DFR=  5.05D-03 which will be used.
 Gradient too large for Newton-Raphson -- use scaled steepest descent instead.
     Minimum is close to point  3 DX= -2.59D-02 DF= -4.71D-05 DXR=  6.93D-02 DFR=  4.83D-03 which will be used.
 Gradient too large for Newton-Raphson -- use scaled steepest descent instead.
 Gradient too large for Newton-Raphson -- use scaled steepest descent instead.
     Accept linear search using points  1 and  2.
 Gradient too large for Newton-Raphson -- use scaled steepest descent instead.
 Gradient too large for Newton-Raphson -- use scaled steepest descent instead.
     Minimum is close to point  3 DX=  2.84D-02 DF= -1.16D-04 DXR=  8.66D-02 DFR=  7.55D-03 which will be used.
 Gradient too large for Newton-Raphson -- use scaled steepest descent instead.
 Gradient too large for Newton-Raphson -- use scaled steepest descent instead.
 Gradient too large for Newton-Raphson -- use scaled steepest descent instead.
     Minimum is close to point  4 DX=  3.91D-02 DF= -1.62D-05 DXR=  7.24D-02 DFR=  5.26D-03 which will be used.
 Gradient too large for Newton-Raphson -- use scaled steepest descent instead.
 Gradient too large for Newton-Raphson -- use scaled steepest descent instead.
     Accept linear search using points  1 and  2.
 Gradient too large for Newton-Raphson -- use scaled steepest descent instead.
     Accept linear search using points  3 and  4.
     Minimum is close to point  4 DX= -5.75D-02 DF= -2.88D-06 DXR=  2.82D-02 DFR=  7.98D-04 which will be used.
 Gradient too large for Newton-Raphson -- use scaled steepest descent instead.
 Gradient too large for Newton-Raphson -- use scaled steepest descent instead.
 Gradient too large for Newton-Raphson -- use scaled steepest descent instead.
 Gradient too large for Newton-Raphson -- use scaled steepest descent instead.
 Gradient too large for Newton-Raphson -- use scaled steepest descent instead.
 Gradient too large for Newton-Raphson -- use scaled steepest descent instead.
 Gradient too large for Newton-Raphson -- use scaled steepest descent instead.
 Gradient too large for Newton-Raphson -- use scaled steepest descent instead.
 Gradient too large for Newton-Raphson -- use scaled steepest descent instead.
 Gradient too large for Newton-Raphson -- use scaled steepest descent instead.
 Gradient too large for Newton-Raphson -- use scaled steepest descent instead.
 Gradient too large for Newton-Raphson -- use scaled steepest descent instead.
 Gradient too large for Newton-Raphson -- use scaled steepest descent instead.
 Gradient too large for Newton-Raphson -- use scaled steepest descent instead.
 Gradient too large for Newton-Raphson -- use scaled steepest descent instead.
 Gradient too large for Newton-Raphson -- use scaled steepest descent instead.
 Gradient too large for Newton-Raphson -- use scaled steepest descent instead.
 Gradient too large for Newton-Raphson -- use scaled steepest descent instead.
 Gradient too large for Newton-Raphson -- use scaled steepest descent instead.
 Gradient too large for Newton-Raphson -- use scaled steepest descent instead.
 Gradient too large for Newton-Raphson -- use scaled steepest descent instead.
 Gradient too large for Newton-Raphson -- use scaled steepest descent instead.
 Gradient too large for Newton-Raphson -- use scaled steepest descent instead.
 Gradient too large for Newton-Raphson -- use scaled steepest descent instead.
 Gradient too large for Newton-Raphson -- use scaled steepest descent instead.
 Gradient too large for Newton-Raphson -- use scaled steepest descent instead.
 Gradient too large for Newton-Raphson -- use scaled steepest descent instead.
 Gradient too large for Newton-Raphson -- use scaled steepest descent instead.
 Gradient too large for Newton-Raphson -- use scaled steepest descent instead.
 Gradient too large for Newton-Raphson -- use scaled steepest descent instead.
 Gradient too large for Newton-Raphson -- use scaled steepest descent instead.
 Gradient too large for Newton-Raphson -- use scaled steepest descent instead.
 Gradient too large for Newton-Raphson -- use scaled steepest descent instead.
 Gradient too large for Newton-Raphson -- use scaled steepest descent instead.
 Gradient too large for Newton-Raphson -- use scaled steepest descent instead.
 Gradient too large for Newton-Raphson -- use scaled steepest descent instead.
 Gradient too large for Newton-Raphson -- use scaled steepest descent instead.
 Gradient too large for Newton-Raphson -- use scaled steepest descent instead.
 Gradient too large for Newton-Raphson -- use scaled steepest descent instead.
 Gradient too large for Newton-Raphson -- use scaled steepest descent instead.
 Gradient too large for Newton-Raphson -- use scaled steepest descent instead.
 Gradient too large for Newton-Raphson -- use scaled steepest descent instead.
 Gradient too large for Newton-Raphson -- use scaled steepest descent instead.
 Gradient too large for Newton-Raphson -- use scaled steepest descent instead.
 Gradient too large for Newton-Raphson -- use scaled steepest descent instead.
 Gradient too large for Newton-Raphson -- use scaled steepest descent instead.
 Gradient too large for Newton-Raphson -- use scaled steepest descent instead.
 Gradient too large for Newton-Raphson -- use scaled steepest descent instead.
 Gradient too large for Newton-Raphson -- use scaled steepest descent instead.
 LinEq1:  Iter=  0 NonCon=     1 RMS=1.72D-04 Max=1.25D-02 NDo=     1
 AX will form     1 AO Fock derivatives at one time.
 LinEq1:  Iter=  1 NonCon=     1 RMS=1.51D-04 Max=3.76D-03 NDo=     1
 LinEq1:  Iter=  2 NonCon=     1 RMS=6.52D-05 Max=2.66D-03 NDo=     1
 LinEq1:  Iter=  3 NonCon=     1 RMS=5.16D-05 Max=2.03D-03 NDo=     1
 LinEq1:  Iter=  4 NonCon=     1 RMS=6.14D-05 Max=4.02D-03 NDo=     1
 LinEq1:  Iter=  5 NonCon=     1 RMS=6.69D-05 Max=3.12D-03 NDo=     1
 LinEq1:  Iter=  6 NonCon=     1 RMS=5.16D-05 Max=2.28D-03 NDo=     1
 LinEq1:  Iter=  7 NonCon=     1 RMS=5.70D-05 Max=2.62D-03 NDo=     1
 LinEq1:  Iter=  8 NonCon=     1 RMS=5.20D-05 Max=2.61D-03 NDo=     1
 LinEq1:  Iter=  9 NonCon=     1 RMS=4.80D-05 Max=2.14D-03 NDo=     1
 LinEq1:  Iter= 10 NonCon=     1 RMS=6.07D-05 Max=2.24D-03 NDo=     1
 LinEq1:  Iter= 11 NonCon=     1 RMS=6.03D-05 Max=2.75D-03 NDo=     1
 LinEq1:  Iter= 12 NonCon=     1 RMS=4.60D-05 Max=2.06D-03 NDo=     1
 LinEq1:  Iter= 13 NonCon=     1 RMS=4.32D-05 Max=1.83D-03 NDo=     1
 LinEq1:  Iter= 14 NonCon=     1 RMS=3.86D-05 Max=1.59D-03 NDo=     1
 LinEq1:  Iter= 15 NonCon=     1 RMS=3.39D-05 Max=1.30D-03 NDo=     1
 LinEq1:  Iter= 16 NonCon=     1 RMS=3.25D-05 Max=1.38D-03 NDo=     1
 LinEq1:  Iter= 17 NonCon=     1 RMS=2.48D-05 Max=6.98D-04 NDo=     1
 LinEq1:  Iter= 18 NonCon=     1 RMS=1.81D-05 Max=5.59D-04 NDo=     1
 LinEq1:  Iter= 19 NonCon=     1 RMS=1.48D-05 Max=3.64D-04 NDo=     1
 LinEq1:  Iter= 20 NonCon=     1 RMS=1.01D-05 Max=3.14D-04 NDo=     1
 LinEq1:  Iter= 21 NonCon=     1 RMS=1.03D-05 Max=2.76D-04 NDo=     1
 LinEq1:  Iter= 22 NonCon=     1 RMS=7.52D-06 Max=3.25D-04 NDo=     1
 LinEq1:  Iter= 23 NonCon=     1 RMS=7.18D-06 Max=1.73D-04 NDo=     1
 LinEq1:  Iter= 24 NonCon=     1 RMS=5.07D-06 Max=1.26D-04 NDo=     1
 LinEq1:  Iter= 25 NonCon=     1 RMS=3.72D-06 Max=7.44D-05 NDo=     1
 LinEq1:  Iter= 26 NonCon=     1 RMS=2.38D-06 Max=4.54D-05 NDo=     1
 LinEq1:  Iter= 27 NonCon=     1 RMS=1.22D-06 Max=2.14D-05 NDo=     1
 LinEq1:  Iter= 28 NonCon=     1 RMS=6.97D-07 Max=1.40D-05 NDo=     1
 LinEq1:  Iter= 29 NonCon=     1 RMS=5.19D-07 Max=9.21D-06 NDo=     1
 LinEq1:  Iter= 30 NonCon=     1 RMS=2.50D-07 Max=6.56D-06 NDo=     1
 LinEq1:  Iter= 31 NonCon=     1 RMS=1.82D-07 Max=4.01D-06 NDo=     1
 LinEq1:  Iter= 32 NonCon=     1 RMS=1.16D-07 Max=2.70D-06 NDo=     1
 LinEq1:  Iter= 33 NonCon=     1 RMS=8.40D-08 Max=1.80D-06 NDo=     1
 LinEq1:  Iter= 34 NonCon=     1 RMS=5.03D-08 Max=1.57D-06 NDo=     1
 LinEq1:  Iter= 35 NonCon=     1 RMS=3.15D-08 Max=9.51D-07 NDo=     1
 LinEq1:  Iter= 36 NonCon=     1 RMS=1.96D-08 Max=6.57D-07 NDo=     1
 LinEq1:  Iter= 37 NonCon=     1 RMS=1.14D-08 Max=3.82D-07 NDo=     1
 LinEq1:  Iter= 38 NonCon=     0 RMS=6.00D-09 Max=1.29D-07 NDo=     1
 Linear equations converged to 2.935D-08 2.935D-07 after    38 iterations.
 LinEq1:  Iter=  0 NonCon=     1 RMS=1.70D-04 Max=1.17D-02 NDo=     1
 LinEq1:  Iter=  1 NonCon=     1 RMS=1.53D-04 Max=4.30D-03 NDo=     1
 LinEq1:  Iter=  2 NonCon=     1 RMS=9.07D-05 Max=2.78D-03 NDo=     1
 LinEq1:  Iter=  3 NonCon=     1 RMS=9.04D-05 Max=3.18D-03 NDo=     1
 LinEq1:  Iter=  4 NonCon=     1 RMS=8.33D-05 Max=4.45D-03 NDo=     1
 LinEq1:  Iter=  5 NonCon=     1 RMS=1.08D-04 Max=6.20D-03 NDo=     1
 LinEq1:  Iter=  6 NonCon=     1 RMS=8.93D-05 Max=4.39D-03 NDo=     1
 LinEq1:  Iter=  7 NonCon=     1 RMS=8.98D-05 Max=4.00D-03 NDo=     1
 LinEq1:  Iter=  8 NonCon=     1 RMS=8.91D-05 Max=4.72D-03 NDo=     1
 LinEq1:  Iter=  9 NonCon=     1 RMS=8.37D-05 Max=4.30D-03 NDo=     1
 LinEq1:  Iter= 10 NonCon=     1 RMS=9.27D-05 Max=3.49D-03 NDo=     1
 LinEq1:  Iter= 11 NonCon=     1 RMS=1.03D-04 Max=5.26D-03 NDo=     1
 LinEq1:  Iter= 12 NonCon=     1 RMS=1.03D-04 Max=4.40D-03 NDo=     1
 LinEq1:  Iter= 13 NonCon=     1 RMS=8.45D-05 Max=3.78D-03 NDo=     1
 LinEq1:  Iter= 14 NonCon=     1 RMS=6.83D-05 Max=3.04D-03 NDo=     1
 LinEq1:  Iter= 15 NonCon=     1 RMS=6.94D-05 Max=2.65D-03 NDo=     1
 LinEq1:  Iter= 16 NonCon=     1 RMS=5.44D-05 Max=1.83D-03 NDo=     1
 LinEq1:  Iter= 17 NonCon=     1 RMS=5.03D-05 Max=1.64D-03 NDo=     1
 LinEq1:  Iter= 18 NonCon=     1 RMS=3.86D-05 Max=8.62D-04 NDo=     1
 LinEq1:  Iter= 19 NonCon=     1 RMS=3.29D-05 Max=6.49D-04 NDo=     1
 LinEq1:  Iter= 20 NonCon=     1 RMS=2.63D-05 Max=8.92D-04 NDo=     1
 LinEq1:  Iter= 21 NonCon=     1 RMS=2.38D-05 Max=4.49D-04 NDo=     1
 LinEq1:  Iter= 22 NonCon=     1 RMS=2.12D-05 Max=7.94D-04 NDo=     1
 LinEq1:  Iter= 23 NonCon=     1 RMS=1.59D-05 Max=7.76D-04 NDo=     1
 LinEq1:  Iter= 24 NonCon=     1 RMS=1.21D-05 Max=4.81D-04 NDo=     1
 LinEq1:  Iter= 25 NonCon=     1 RMS=8.12D-06 Max=2.51D-04 NDo=     1
 LinEq1:  Iter= 26 NonCon=     1 RMS=4.97D-06 Max=1.22D-04 NDo=     1
 LinEq1:  Iter= 27 NonCon=     1 RMS=3.94D-06 Max=8.30D-05 NDo=     1
 LinEq1:  Iter= 28 NonCon=     1 RMS=1.89D-06 Max=6.07D-05 NDo=     1
 LinEq1:  Iter= 29 NonCon=     1 RMS=1.21D-06 Max=4.36D-05 NDo=     1
 LinEq1:  Iter= 30 NonCon=     1 RMS=9.31D-07 Max=4.30D-05 NDo=     1
 LinEq1:  Iter= 31 NonCon=     1 RMS=5.23D-07 Max=2.46D-05 NDo=     1
 LinEq1:  Iter= 32 NonCon=     1 RMS=2.93D-07 Max=1.05D-05 NDo=     1
 LinEq1:  Iter= 33 NonCon=     1 RMS=2.36D-07 Max=9.56D-06 NDo=     1
 LinEq1:  Iter= 34 NonCon=     1 RMS=1.31D-07 Max=3.38D-06 NDo=     1
 LinEq1:  Iter= 35 NonCon=     1 RMS=8.45D-08 Max=1.93D-06 NDo=     1
 LinEq1:  Iter= 36 NonCon=     1 RMS=5.35D-08 Max=1.33D-06 NDo=     1
 LinEq1:  Iter= 37 NonCon=     1 RMS=3.38D-08 Max=8.03D-07 NDo=     1
 LinEq1:  Iter= 38 NonCon=     1 RMS=2.32D-08 Max=4.90D-07 NDo=     1
 LinEq1:  Iter= 39 NonCon=     1 RMS=1.31D-08 Max=2.95D-07 NDo=     1
 LinEq1:  Iter= 40 NonCon=     0 RMS=9.11D-09 Max=1.79D-07 NDo=     1
 Linear equations converged to 2.935D-08 2.935D-07 after    40 iterations.
 Incorrect curvature in search direction -- initial direction reversed.
 Gradient too large for Newton-Raphson -- use scaled steepest descent instead.
     Accept linear search using points  2 and  3.
 Gradient too large for Newton-Raphson -- use scaled steepest descent instead.
     Accept linear search using points  1 and  2.
 Gradient too large for Newton-Raphson -- use scaled steepest descent instead.
 Gradient too large for Newton-Raphson -- use scaled steepest descent instead.
     Accept linear search using points  1 and  2.
 LinEq1:  Iter=  0 NonCon=     1 RMS=1.58D-04 Max=8.44D-03 NDo=     1
 LinEq1:  Iter=  1 NonCon=     1 RMS=9.78D-05 Max=4.45D-03 NDo=     1
 LinEq1:  Iter=  2 NonCon=     1 RMS=4.25D-05 Max=3.14D-03 NDo=     1
 LinEq1:  Iter=  3 NonCon=     1 RMS=3.97D-05 Max=1.78D-03 NDo=     1
 LinEq1:  Iter=  4 NonCon=     1 RMS=3.07D-05 Max=1.89D-03 NDo=     1
 LinEq1:  Iter=  5 NonCon=     1 RMS=3.94D-05 Max=3.06D-03 NDo=     1
 LinEq1:  Iter=  6 NonCon=     1 RMS=3.74D-05 Max=1.58D-03 NDo=     1
 LinEq1:  Iter=  7 NonCon=     1 RMS=3.66D-05 Max=2.17D-03 NDo=     1
 LinEq1:  Iter=  8 NonCon=     1 RMS=3.82D-05 Max=1.65D-03 NDo=     1
 LinEq1:  Iter=  9 NonCon=     1 RMS=2.22D-05 Max=7.98D-04 NDo=     1
 LinEq1:  Iter= 10 NonCon=     1 RMS=2.64D-05 Max=8.77D-04 NDo=     1
 LinEq1:  Iter= 11 NonCon=     1 RMS=3.00D-05 Max=1.07D-03 NDo=     1
 LinEq1:  Iter= 12 NonCon=     1 RMS=2.36D-05 Max=7.34D-04 NDo=     1
 LinEq1:  Iter= 13 NonCon=     1 RMS=1.99D-05 Max=5.36D-04 NDo=     1
 LinEq1:  Iter= 14 NonCon=     1 RMS=2.05D-05 Max=7.65D-04 NDo=     1
 LinEq1:  Iter= 15 NonCon=     1 RMS=1.58D-05 Max=5.36D-04 NDo=     1
 LinEq1:  Iter= 16 NonCon=     1 RMS=1.56D-05 Max=5.40D-04 NDo=     1
 LinEq1:  Iter= 17 NonCon=     1 RMS=1.25D-05 Max=4.81D-04 NDo=     1
 LinEq1:  Iter= 18 NonCon=     1 RMS=1.19D-05 Max=3.62D-04 NDo=     1
 LinEq1:  Iter= 19 NonCon=     1 RMS=8.60D-06 Max=2.38D-04 NDo=     1
 LinEq1:  Iter= 20 NonCon=     1 RMS=9.52D-06 Max=3.74D-04 NDo=     1
 LinEq1:  Iter= 21 NonCon=     1 RMS=6.55D-06 Max=2.00D-04 NDo=     1
 LinEq1:  Iter= 22 NonCon=     1 RMS=6.11D-06 Max=2.33D-04 NDo=     1
 LinEq1:  Iter= 23 NonCon=     1 RMS=4.33D-06 Max=1.59D-04 NDo=     1
 LinEq1:  Iter= 24 NonCon=     1 RMS=3.32D-06 Max=1.32D-04 NDo=     1
 LinEq1:  Iter= 25 NonCon=     1 RMS=2.25D-06 Max=1.05D-04 NDo=     1
 LinEq1:  Iter= 26 NonCon=     1 RMS=1.39D-06 Max=6.23D-05 NDo=     1
 LinEq1:  Iter= 27 NonCon=     1 RMS=1.07D-06 Max=4.92D-05 NDo=     1
 LinEq1:  Iter= 28 NonCon=     1 RMS=5.84D-07 Max=2.18D-05 NDo=     1
 LinEq1:  Iter= 29 NonCon=     1 RMS=4.22D-07 Max=1.22D-05 NDo=     1
 LinEq1:  Iter= 30 NonCon=     1 RMS=2.80D-07 Max=8.53D-06 NDo=     1
 LinEq1:  Iter= 31 NonCon=     1 RMS=1.56D-07 Max=4.48D-06 NDo=     1
 LinEq1:  Iter= 32 NonCon=     1 RMS=1.16D-07 Max=2.87D-06 NDo=     1
 LinEq1:  Iter= 33 NonCon=     1 RMS=8.18D-08 Max=3.11D-06 NDo=     1
 LinEq1:  Iter= 34 NonCon=     1 RMS=5.33D-08 Max=1.40D-06 NDo=     1
 LinEq1:  Iter= 35 NonCon=     1 RMS=3.18D-08 Max=5.91D-07 NDo=     1
 LinEq1:  Iter= 36 NonCon=     1 RMS=1.82D-08 Max=4.46D-07 NDo=     1
 LinEq1:  Iter= 37 NonCon=     1 RMS=1.26D-08 Max=3.40D-07 NDo=     1
 LinEq1:  Iter= 38 NonCon=     0 RMS=6.01D-09 Max=1.64D-07 NDo=     1
 Linear equations converged to 2.935D-08 2.935D-07 after    38 iterations.
     Minimum is close to point  3 DX=  3.93D-04 DF= -4.77D-08 DXR=  3.91D-03 DFR=  1.53D-05 which will be used.
 LinEq1:  Iter=  0 NonCon=     1 RMS=1.43D-04 Max=7.46D-03 NDo=     1
 LinEq1:  Iter=  1 NonCon=     1 RMS=1.19D-04 Max=5.11D-03 NDo=     1
 LinEq1:  Iter=  2 NonCon=     1 RMS=8.31D-05 Max=2.75D-03 NDo=     1
 LinEq1:  Iter=  3 NonCon=     1 RMS=9.10D-05 Max=4.95D-03 NDo=     1
 LinEq1:  Iter=  4 NonCon=     1 RMS=7.36D-05 Max=3.87D-03 NDo=     1
 LinEq1:  Iter=  5 NonCon=     1 RMS=9.14D-05 Max=5.39D-03 NDo=     1
 LinEq1:  Iter=  6 NonCon=     1 RMS=7.79D-05 Max=4.62D-03 NDo=     1
 LinEq1:  Iter=  7 NonCon=     1 RMS=8.99D-05 Max=4.45D-03 NDo=     1
 LinEq1:  Iter=  8 NonCon=     1 RMS=8.09D-05 Max=4.85D-03 NDo=     1
 LinEq1:  Iter=  9 NonCon=     1 RMS=7.98D-05 Max=3.74D-03 NDo=     1
 LinEq1:  Iter= 10 NonCon=     1 RMS=7.89D-05 Max=3.48D-03 NDo=     1
 LinEq1:  Iter= 11 NonCon=     1 RMS=9.43D-05 Max=3.50D-03 NDo=     1
 LinEq1:  Iter= 12 NonCon=     1 RMS=7.86D-05 Max=2.50D-03 NDo=     1
 LinEq1:  Iter= 13 NonCon=     1 RMS=6.21D-05 Max=2.45D-03 NDo=     1
 LinEq1:  Iter= 14 NonCon=     1 RMS=6.36D-05 Max=2.05D-03 NDo=     1
 LinEq1:  Iter= 15 NonCon=     1 RMS=5.61D-05 Max=1.97D-03 NDo=     1
 LinEq1:  Iter= 16 NonCon=     1 RMS=5.56D-05 Max=2.18D-03 NDo=     1
 LinEq1:  Iter= 17 NonCon=     1 RMS=3.90D-05 Max=1.70D-03 NDo=     1
 LinEq1:  Iter= 18 NonCon=     1 RMS=2.78D-05 Max=7.43D-04 NDo=     1
 LinEq1:  Iter= 19 NonCon=     1 RMS=2.76D-05 Max=8.36D-04 NDo=     1
 LinEq1:  Iter= 20 NonCon=     1 RMS=2.51D-05 Max=7.11D-04 NDo=     1
 LinEq1:  Iter= 21 NonCon=     1 RMS=1.99D-05 Max=5.89D-04 NDo=     1
 LinEq1:  Iter= 22 NonCon=     1 RMS=1.36D-05 Max=4.74D-04 NDo=     1
 LinEq1:  Iter= 23 NonCon=     1 RMS=1.15D-05 Max=5.13D-04 NDo=     1
 LinEq1:  Iter= 24 NonCon=     1 RMS=8.24D-06 Max=3.91D-04 NDo=     1
 LinEq1:  Iter= 25 NonCon=     1 RMS=7.44D-06 Max=2.97D-04 NDo=     1
 LinEq1:  Iter= 26 NonCon=     1 RMS=4.82D-06 Max=2.48D-04 NDo=     1
 LinEq1:  Iter= 27 NonCon=     1 RMS=3.16D-06 Max=1.30D-04 NDo=     1
 LinEq1:  Iter= 28 NonCon=     1 RMS=2.43D-06 Max=1.16D-04 NDo=     1
 LinEq1:  Iter= 29 NonCon=     1 RMS=1.35D-06 Max=5.46D-05 NDo=     1
 LinEq1:  Iter= 30 NonCon=     1 RMS=9.55D-07 Max=2.53D-05 NDo=     1
 LinEq1:  Iter= 31 NonCon=     1 RMS=6.32D-07 Max=1.41D-05 NDo=     1
 LinEq1:  Iter= 32 NonCon=     1 RMS=3.80D-07 Max=7.98D-06 NDo=     1
 LinEq1:  Iter= 33 NonCon=     1 RMS=2.56D-07 Max=7.26D-06 NDo=     1
 LinEq1:  Iter= 34 NonCon=     1 RMS=1.47D-07 Max=3.26D-06 NDo=     1
 LinEq1:  Iter= 35 NonCon=     1 RMS=1.06D-07 Max=2.21D-06 NDo=     1
 LinEq1:  Iter= 36 NonCon=     1 RMS=6.10D-08 Max=1.78D-06 NDo=     1
 LinEq1:  Iter= 37 NonCon=     1 RMS=3.94D-08 Max=9.66D-07 NDo=     1
 LinEq1:  Iter= 38 NonCon=     1 RMS=2.39D-08 Max=4.43D-07 NDo=     1
 LinEq1:  Iter= 39 NonCon=     1 RMS=1.24D-08 Max=3.33D-07 NDo=     1
 LinEq1:  Iter= 40 NonCon=     0 RMS=7.26D-09 Max=2.03D-07 NDo=     1
 Linear equations converged to 2.935D-08 2.935D-07 after    40 iterations.
     Minimum is close to point  5 DX= -3.29D-03 DF= -9.03D-06 DXR=  3.09D-02 DFR=  2.48D-03 which will be used.
 Gradient too large for Newton-Raphson -- use scaled steepest descent instead.
     Accept linear search using points  1 and  2.
 Gradient too large for Newton-Raphson -- use scaled steepest descent instead.
 Gradient too large for Newton-Raphson -- use scaled steepest descent instead.
     Accept linear search using points  1 and  2.
 Gradient too large for Newton-Raphson -- use scaled steepest descent instead.
     Accept linear search using points  2 and  3.
 Gradient too large for Newton-Raphson -- use scaled steepest descent instead.
     Accept linear search using points  1 and  2.
 LinEq1:  Iter=  0 NonCon=     1 RMS=1.18D-04 Max=7.12D-03 NDo=     1
 LinEq1:  Iter=  1 NonCon=     1 RMS=1.38D-04 Max=4.94D-03 NDo=     1
 LinEq1:  Iter=  2 NonCon=     1 RMS=4.94D-05 Max=1.94D-03 NDo=     1
 LinEq1:  Iter=  3 NonCon=     1 RMS=2.95D-05 Max=7.55D-04 NDo=     1
 LinEq1:  Iter=  4 NonCon=     1 RMS=2.69D-05 Max=1.81D-03 NDo=     1
 LinEq1:  Iter=  5 NonCon=     1 RMS=1.74D-05 Max=4.97D-04 NDo=     1
 LinEq1:  Iter=  6 NonCon=     1 RMS=2.07D-05 Max=1.33D-03 NDo=     1
 LinEq1:  Iter=  7 NonCon=     1 RMS=1.44D-05 Max=8.28D-04 NDo=     1
 LinEq1:  Iter=  8 NonCon=     1 RMS=1.44D-05 Max=6.11D-04 NDo=     1
 LinEq1:  Iter=  9 NonCon=     1 RMS=1.65D-05 Max=7.07D-04 NDo=     1
 LinEq1:  Iter= 10 NonCon=     1 RMS=1.69D-05 Max=6.51D-04 NDo=     1
 LinEq1:  Iter= 11 NonCon=     1 RMS=1.84D-05 Max=5.82D-04 NDo=     1
 LinEq1:  Iter= 12 NonCon=     1 RMS=1.86D-05 Max=6.32D-04 NDo=     1
 LinEq1:  Iter= 13 NonCon=     1 RMS=1.75D-05 Max=4.61D-04 NDo=     1
 LinEq1:  Iter= 14 NonCon=     1 RMS=1.35D-05 Max=5.08D-04 NDo=     1
 LinEq1:  Iter= 15 NonCon=     1 RMS=1.14D-05 Max=3.05D-04 NDo=     1
 LinEq1:  Iter= 16 NonCon=     1 RMS=7.85D-06 Max=2.69D-04 NDo=     1
 LinEq1:  Iter= 17 NonCon=     1 RMS=7.25D-06 Max=2.31D-04 NDo=     1
 LinEq1:  Iter= 18 NonCon=     1 RMS=6.89D-06 Max=2.14D-04 NDo=     1
 LinEq1:  Iter= 19 NonCon=     1 RMS=5.72D-06 Max=1.62D-04 NDo=     1
 LinEq1:  Iter= 20 NonCon=     1 RMS=4.69D-06 Max=1.29D-04 NDo=     1
 LinEq1:  Iter= 21 NonCon=     1 RMS=3.59D-06 Max=9.21D-05 NDo=     1
 LinEq1:  Iter= 22 NonCon=     1 RMS=2.64D-06 Max=7.26D-05 NDo=     1
 LinEq1:  Iter= 23 NonCon=     1 RMS=1.81D-06 Max=3.53D-05 NDo=     1
 LinEq1:  Iter= 24 NonCon=     1 RMS=1.33D-06 Max=3.88D-05 NDo=     1
 LinEq1:  Iter= 25 NonCon=     1 RMS=6.29D-07 Max=1.80D-05 NDo=     1
 LinEq1:  Iter= 26 NonCon=     1 RMS=5.31D-07 Max=1.63D-05 NDo=     1
 LinEq1:  Iter= 27 NonCon=     1 RMS=3.00D-07 Max=9.43D-06 NDo=     1
 LinEq1:  Iter= 28 NonCon=     1 RMS=1.75D-07 Max=6.39D-06 NDo=     1
 LinEq1:  Iter= 29 NonCon=     1 RMS=1.32D-07 Max=3.55D-06 NDo=     1
 LinEq1:  Iter= 30 NonCon=     1 RMS=8.78D-08 Max=2.85D-06 NDo=     1
 LinEq1:  Iter= 31 NonCon=     1 RMS=4.31D-08 Max=1.07D-06 NDo=     1
 LinEq1:  Iter= 32 NonCon=     1 RMS=3.03D-08 Max=6.68D-07 NDo=     1
 LinEq1:  Iter= 33 NonCon=     1 RMS=1.77D-08 Max=4.72D-07 NDo=     1
 LinEq1:  Iter= 34 NonCon=     1 RMS=1.41D-08 Max=3.76D-07 NDo=     1
 LinEq1:  Iter= 35 NonCon=     0 RMS=8.02D-09 Max=2.55D-07 NDo=     1
 Linear equations converged to 2.935D-08 2.935D-07 after    35 iterations.
 LinEq1:  Iter=  0 NonCon=     1 RMS=1.16D-04 Max=6.06D-03 NDo=     1
 LinEq1:  Iter=  1 NonCon=     1 RMS=1.36D-04 Max=4.55D-03 NDo=     1
 LinEq1:  Iter=  2 NonCon=     1 RMS=5.53D-05 Max=1.97D-03 NDo=     1
 LinEq1:  Iter=  3 NonCon=     1 RMS=4.30D-05 Max=1.35D-03 NDo=     1
 LinEq1:  Iter=  4 NonCon=     1 RMS=4.13D-05 Max=1.62D-03 NDo=     1
 LinEq1:  Iter=  5 NonCon=     1 RMS=4.86D-05 Max=2.45D-03 NDo=     1
 LinEq1:  Iter=  6 NonCon=     1 RMS=4.96D-05 Max=2.81D-03 NDo=     1
 LinEq1:  Iter=  7 NonCon=     1 RMS=5.24D-05 Max=2.12D-03 NDo=     1
 LinEq1:  Iter=  8 NonCon=     1 RMS=4.51D-05 Max=2.57D-03 NDo=     1
 LinEq1:  Iter=  9 NonCon=     1 RMS=3.92D-05 Max=1.76D-03 NDo=     1
 LinEq1:  Iter= 10 NonCon=     1 RMS=2.93D-05 Max=1.03D-03 NDo=     1
 LinEq1:  Iter= 11 NonCon=     1 RMS=4.01D-05 Max=1.60D-03 NDo=     1
 LinEq1:  Iter= 12 NonCon=     1 RMS=3.67D-05 Max=1.11D-03 NDo=     1
 LinEq1:  Iter= 13 NonCon=     1 RMS=4.24D-05 Max=1.09D-03 NDo=     1
 LinEq1:  Iter= 14 NonCon=     1 RMS=3.47D-05 Max=1.04D-03 NDo=     1
 LinEq1:  Iter= 15 NonCon=     1 RMS=3.88D-05 Max=9.94D-04 NDo=     1
 LinEq1:  Iter= 16 NonCon=     1 RMS=2.89D-05 Max=8.49D-04 NDo=     1
 LinEq1:  Iter= 17 NonCon=     1 RMS=2.54D-05 Max=5.95D-04 NDo=     1
 LinEq1:  Iter= 18 NonCon=     1 RMS=1.78D-05 Max=6.68D-04 NDo=     1
 LinEq1:  Iter= 19 NonCon=     1 RMS=1.65D-05 Max=4.65D-04 NDo=     1
 LinEq1:  Iter= 20 NonCon=     1 RMS=1.48D-05 Max=3.71D-04 NDo=     1
 LinEq1:  Iter= 21 NonCon=     1 RMS=1.27D-05 Max=3.27D-04 NDo=     1
 LinEq1:  Iter= 22 NonCon=     1 RMS=1.06D-05 Max=3.29D-04 NDo=     1
 LinEq1:  Iter= 23 NonCon=     1 RMS=8.28D-06 Max=1.83D-04 NDo=     1
 LinEq1:  Iter= 24 NonCon=     1 RMS=5.68D-06 Max=1.23D-04 NDo=     1
 LinEq1:  Iter= 25 NonCon=     1 RMS=4.29D-06 Max=1.10D-04 NDo=     1
 LinEq1:  Iter= 26 NonCon=     1 RMS=2.55D-06 Max=5.93D-05 NDo=     1
 LinEq1:  Iter= 27 NonCon=     1 RMS=1.70D-06 Max=5.00D-05 NDo=     1
 LinEq1:  Iter= 28 NonCon=     1 RMS=1.27D-06 Max=3.99D-05 NDo=     1
 LinEq1:  Iter= 29 NonCon=     1 RMS=6.83D-07 Max=2.51D-05 NDo=     1
 LinEq1:  Iter= 30 NonCon=     1 RMS=4.58D-07 Max=1.46D-05 NDo=     1
 LinEq1:  Iter= 31 NonCon=     1 RMS=3.57D-07 Max=1.14D-05 NDo=     1
 LinEq1:  Iter= 32 NonCon=     1 RMS=1.74D-07 Max=5.78D-06 NDo=     1
 LinEq1:  Iter= 33 NonCon=     1 RMS=1.23D-07 Max=3.02D-06 NDo=     1
 LinEq1:  Iter= 34 NonCon=     1 RMS=8.39D-08 Max=1.83D-06 NDo=     1
 LinEq1:  Iter= 35 NonCon=     1 RMS=4.14D-08 Max=9.65D-07 NDo=     1
 LinEq1:  Iter= 36 NonCon=     1 RMS=2.37D-08 Max=5.86D-07 NDo=     1
 LinEq1:  Iter= 37 NonCon=     1 RMS=1.73D-08 Max=5.24D-07 NDo=     1
 LinEq1:  Iter= 38 NonCon=     0 RMS=8.07D-09 Max=2.39D-07 NDo=     1
 Linear equations converged to 2.935D-08 2.935D-07 after    38 iterations.
 Incorrect curvature in search direction -- initial direction reversed.
 Gradient too large for Newton-Raphson -- use scaled steepest descent instead.
     Accept linear search using points  2 and  3.
 Gradient too large for Newton-Raphson -- use scaled steepest descent instead.
     Accept linear search using points  1 and  2.
 LinEq1:  Iter=  0 NonCon=     1 RMS=1.28D-04 Max=5.09D-03 NDo=     1
 LinEq1:  Iter=  1 NonCon=     1 RMS=8.36D-05 Max=1.66D-03 NDo=     1
 LinEq1:  Iter=  2 NonCon=     1 RMS=8.77D-05 Max=2.50D-03 NDo=     1
 LinEq1:  Iter=  3 NonCon=     1 RMS=7.53D-05 Max=1.38D-03 NDo=     1
 LinEq1:  Iter=  4 NonCon=     1 RMS=5.44D-05 Max=1.88D-03 NDo=     1
 LinEq1:  Iter=  5 NonCon=     1 RMS=7.47D-05 Max=1.43D-03 NDo=     1
 LinEq1:  Iter=  6 NonCon=     1 RMS=5.05D-05 Max=1.97D-03 NDo=     1
 LinEq1:  Iter=  7 NonCon=     1 RMS=4.29D-05 Max=1.49D-03 NDo=     1
 LinEq1:  Iter=  8 NonCon=     1 RMS=3.97D-05 Max=1.50D-03 NDo=     1
 LinEq1:  Iter=  9 NonCon=     1 RMS=3.34D-05 Max=8.87D-04 NDo=     1
 LinEq1:  Iter= 10 NonCon=     1 RMS=3.95D-05 Max=1.61D-03 NDo=     1
 LinEq1:  Iter= 11 NonCon=     1 RMS=4.08D-05 Max=1.48D-03 NDo=     1
 LinEq1:  Iter= 12 NonCon=     1 RMS=4.15D-05 Max=1.04D-03 NDo=     1
 LinEq1:  Iter= 13 NonCon=     1 RMS=4.10D-05 Max=1.16D-03 NDo=     1
 LinEq1:  Iter= 14 NonCon=     1 RMS=3.65D-05 Max=7.58D-04 NDo=     1
 LinEq1:  Iter= 15 NonCon=     1 RMS=2.30D-05 Max=4.76D-04 NDo=     1
 LinEq1:  Iter= 16 NonCon=     1 RMS=2.07D-05 Max=4.08D-04 NDo=     1
 LinEq1:  Iter= 17 NonCon=     1 RMS=1.48D-05 Max=3.02D-04 NDo=     1
 LinEq1:  Iter= 18 NonCon=     1 RMS=1.08D-05 Max=3.16D-04 NDo=     1
 LinEq1:  Iter= 19 NonCon=     1 RMS=1.16D-05 Max=2.38D-04 NDo=     1
 LinEq1:  Iter= 20 NonCon=     1 RMS=9.56D-06 Max=2.19D-04 NDo=     1
 LinEq1:  Iter= 21 NonCon=     1 RMS=7.79D-06 Max=1.42D-04 NDo=     1
 LinEq1:  Iter= 22 NonCon=     1 RMS=5.34D-06 Max=9.58D-05 NDo=     1
 LinEq1:  Iter= 23 NonCon=     1 RMS=4.87D-06 Max=1.12D-04 NDo=     1
 LinEq1:  Iter= 24 NonCon=     1 RMS=4.69D-06 Max=1.66D-04 NDo=     1
 LinEq1:  Iter= 25 NonCon=     1 RMS=4.63D-06 Max=1.69D-04 NDo=     1
 LinEq1:  Iter= 26 NonCon=     1 RMS=2.64D-06 Max=1.13D-04 NDo=     1
 LinEq1:  Iter= 27 NonCon=     1 RMS=1.97D-06 Max=7.42D-05 NDo=     1
 LinEq1:  Iter= 28 NonCon=     1 RMS=1.23D-06 Max=4.22D-05 NDo=     1
 LinEq1:  Iter= 29 NonCon=     1 RMS=8.48D-07 Max=2.50D-05 NDo=     1
 LinEq1:  Iter= 30 NonCon=     1 RMS=4.91D-07 Max=1.08D-05 NDo=     1
 LinEq1:  Iter= 31 NonCon=     1 RMS=3.10D-07 Max=6.77D-06 NDo=     1
 LinEq1:  Iter= 32 NonCon=     1 RMS=2.11D-07 Max=4.55D-06 NDo=     1
 LinEq1:  Iter= 33 NonCon=     1 RMS=1.42D-07 Max=3.62D-06 NDo=     1
 LinEq1:  Iter= 34 NonCon=     1 RMS=6.26D-08 Max=1.24D-06 NDo=     1
 LinEq1:  Iter= 35 NonCon=     1 RMS=5.10D-08 Max=1.05D-06 NDo=     1
 LinEq1:  Iter= 36 NonCon=     1 RMS=3.06D-08 Max=6.18D-07 NDo=     1
 LinEq1:  Iter= 37 NonCon=     0 RMS=1.52D-08 Max=2.60D-07 NDo=     1
 Linear equations converged to 2.935D-08 2.935D-07 after    37 iterations.
 LinEq1:  Iter=  0 NonCon=     1 RMS=1.18D-04 Max=5.18D-03 NDo=     1
 LinEq1:  Iter=  1 NonCon=     1 RMS=1.58D-04 Max=4.04D-03 NDo=     1
 LinEq1:  Iter=  2 NonCon=     1 RMS=1.15D-04 Max=3.38D-03 NDo=     1
 LinEq1:  Iter=  3 NonCon=     1 RMS=1.28D-04 Max=3.49D-03 NDo=     1
 LinEq1:  Iter=  4 NonCon=     1 RMS=9.15D-05 Max=1.54D-03 NDo=     1
 LinEq1:  Iter=  5 NonCon=     1 RMS=9.45D-05 Max=3.02D-03 NDo=     1
 LinEq1:  Iter=  6 NonCon=     1 RMS=8.65D-05 Max=1.97D-03 NDo=     1
 LinEq1:  Iter=  7 NonCon=     1 RMS=8.13D-05 Max=2.26D-03 NDo=     1
 LinEq1:  Iter=  8 NonCon=     1 RMS=7.58D-05 Max=2.64D-03 NDo=     1
 LinEq1:  Iter=  9 NonCon=     1 RMS=9.03D-05 Max=3.65D-03 NDo=     1
 LinEq1:  Iter= 10 NonCon=     1 RMS=6.78D-05 Max=2.93D-03 NDo=     1
 LinEq1:  Iter= 11 NonCon=     1 RMS=7.57D-05 Max=1.84D-03 NDo=     1
 LinEq1:  Iter= 12 NonCon=     1 RMS=8.76D-05 Max=4.19D-03 NDo=     1
 LinEq1:  Iter= 13 NonCon=     1 RMS=8.34D-05 Max=2.41D-03 NDo=     1
 LinEq1:  Iter= 14 NonCon=     1 RMS=5.69D-05 Max=1.88D-03 NDo=     1
 LinEq1:  Iter= 15 NonCon=     1 RMS=5.12D-05 Max=1.22D-03 NDo=     1
 LinEq1:  Iter= 16 NonCon=     1 RMS=4.75D-05 Max=1.30D-03 NDo=     1
 LinEq1:  Iter= 17 NonCon=     1 RMS=4.08D-05 Max=1.46D-03 NDo=     1
 LinEq1:  Iter= 18 NonCon=     1 RMS=3.63D-05 Max=1.09D-03 NDo=     1
 LinEq1:  Iter= 19 NonCon=     1 RMS=3.19D-05 Max=1.20D-03 NDo=     1
 LinEq1:  Iter= 20 NonCon=     1 RMS=2.68D-05 Max=9.73D-04 NDo=     1
 LinEq1:  Iter= 21 NonCon=     1 RMS=2.45D-05 Max=6.45D-04 NDo=     1
 LinEq1:  Iter= 22 NonCon=     1 RMS=2.14D-05 Max=6.80D-04 NDo=     1
 LinEq1:  Iter= 23 NonCon=     1 RMS=1.70D-05 Max=6.36D-04 NDo=     1
 LinEq1:  Iter= 24 NonCon=     1 RMS=9.64D-06 Max=3.71D-04 NDo=     1
 LinEq1:  Iter= 25 NonCon=     1 RMS=6.52D-06 Max=2.57D-04 NDo=     1
 LinEq1:  Iter= 26 NonCon=     1 RMS=4.69D-06 Max=1.98D-04 NDo=     1
 LinEq1:  Iter= 27 NonCon=     1 RMS=2.35D-06 Max=8.40D-05 NDo=     1
 LinEq1:  Iter= 28 NonCon=     1 RMS=2.03D-06 Max=6.20D-05 NDo=     1
 LinEq1:  Iter= 29 NonCon=     1 RMS=1.07D-06 Max=3.20D-05 NDo=     1
 LinEq1:  Iter= 30 NonCon=     1 RMS=7.04D-07 Max=1.71D-05 NDo=     1
 LinEq1:  Iter= 31 NonCon=     1 RMS=5.08D-07 Max=9.88D-06 NDo=     1
 LinEq1:  Iter= 32 NonCon=     1 RMS=2.94D-07 Max=6.62D-06 NDo=     1
 LinEq1:  Iter= 33 NonCon=     1 RMS=1.65D-07 Max=4.19D-06 NDo=     1
 LinEq1:  Iter= 34 NonCon=     1 RMS=1.13D-07 Max=1.80D-06 NDo=     1
 LinEq1:  Iter= 35 NonCon=     1 RMS=6.83D-08 Max=1.56D-06 NDo=     1
 LinEq1:  Iter= 36 NonCon=     1 RMS=4.91D-08 Max=8.84D-07 NDo=     1
 LinEq1:  Iter= 37 NonCon=     1 RMS=2.79D-08 Max=4.66D-07 NDo=     1
 LinEq1:  Iter= 38 NonCon=     0 RMS=1.86D-08 Max=2.75D-07 NDo=     1
 Linear equations converged to 2.935D-08 2.935D-07 after    38 iterations.
     Accept linear search using points  1 and  2.
 Gradient too large for Newton-Raphson -- use scaled steepest descent instead.
     Accept linear search using points  1 and  2.
 LinEq1:  Iter=  0 NonCon=     1 RMS=8.32D-05 Max=2.67D-03 NDo=     1
 LinEq1:  Iter=  1 NonCon=     1 RMS=1.04D-04 Max=2.83D-03 NDo=     1
 LinEq1:  Iter=  2 NonCon=     1 RMS=8.05D-05 Max=5.60D-03 NDo=     1
 LinEq1:  Iter=  3 NonCon=     1 RMS=7.69D-05 Max=3.61D-03 NDo=     1
 LinEq1:  Iter=  4 NonCon=     1 RMS=8.22D-05 Max=3.62D-03 NDo=     1
 LinEq1:  Iter=  5 NonCon=     1 RMS=6.30D-05 Max=3.86D-03 NDo=     1
 LinEq1:  Iter=  6 NonCon=     1 RMS=4.55D-05 Max=2.67D-03 NDo=     1
 LinEq1:  Iter=  7 NonCon=     1 RMS=4.95D-05 Max=2.09D-03 NDo=     1
 LinEq1:  Iter=  8 NonCon=     1 RMS=5.64D-05 Max=3.31D-03 NDo=     1
 LinEq1:  Iter=  9 NonCon=     1 RMS=4.23D-05 Max=2.17D-03 NDo=     1
 LinEq1:  Iter= 10 NonCon=     1 RMS=3.99D-05 Max=1.66D-03 NDo=     1
 LinEq1:  Iter= 11 NonCon=     1 RMS=4.07D-05 Max=1.70D-03 NDo=     1
 LinEq1:  Iter= 12 NonCon=     1 RMS=4.24D-05 Max=1.22D-03 NDo=     1
 LinEq1:  Iter= 13 NonCon=     1 RMS=3.94D-05 Max=1.65D-03 NDo=     1
 LinEq1:  Iter= 14 NonCon=     1 RMS=3.65D-05 Max=1.14D-03 NDo=     1
 LinEq1:  Iter= 15 NonCon=     1 RMS=3.41D-05 Max=1.34D-03 NDo=     1
 LinEq1:  Iter= 16 NonCon=     1 RMS=2.76D-05 Max=7.72D-04 NDo=     1
 LinEq1:  Iter= 17 NonCon=     1 RMS=2.69D-05 Max=1.08D-03 NDo=     1
 LinEq1:  Iter= 18 NonCon=     1 RMS=2.14D-05 Max=5.49D-04 NDo=     1
 LinEq1:  Iter= 19 NonCon=     1 RMS=2.13D-05 Max=6.49D-04 NDo=     1
 LinEq1:  Iter= 20 NonCon=     1 RMS=1.77D-05 Max=5.14D-04 NDo=     1
 LinEq1:  Iter= 21 NonCon=     1 RMS=1.46D-05 Max=2.91D-04 NDo=     1
 LinEq1:  Iter= 22 NonCon=     1 RMS=8.81D-06 Max=1.90D-04 NDo=     1
 LinEq1:  Iter= 23 NonCon=     1 RMS=7.60D-06 Max=1.34D-04 NDo=     1
 LinEq1:  Iter= 24 NonCon=     1 RMS=4.66D-06 Max=9.91D-05 NDo=     1
 LinEq1:  Iter= 25 NonCon=     1 RMS=3.39D-06 Max=1.00D-04 NDo=     1
 LinEq1:  Iter= 26 NonCon=     1 RMS=2.47D-06 Max=7.06D-05 NDo=     1
 LinEq1:  Iter= 27 NonCon=     1 RMS=1.42D-06 Max=4.02D-05 NDo=     1
 LinEq1:  Iter= 28 NonCon=     1 RMS=9.76D-07 Max=1.89D-05 NDo=     1
 LinEq1:  Iter= 29 NonCon=     1 RMS=6.82D-07 Max=1.35D-05 NDo=     1
 LinEq1:  Iter= 30 NonCon=     1 RMS=4.64D-07 Max=7.28D-06 NDo=     1
 LinEq1:  Iter= 31 NonCon=     1 RMS=2.98D-07 Max=4.46D-06 NDo=     1
 LinEq1:  Iter= 32 NonCon=     1 RMS=1.78D-07 Max=2.90D-06 NDo=     1
 LinEq1:  Iter= 33 NonCon=     1 RMS=1.37D-07 Max=2.15D-06 NDo=     1
 LinEq1:  Iter= 34 NonCon=     1 RMS=7.37D-08 Max=1.33D-06 NDo=     1
 LinEq1:  Iter= 35 NonCon=     1 RMS=3.66D-08 Max=9.06D-07 NDo=     1
 LinEq1:  Iter= 36 NonCon=     1 RMS=2.62D-08 Max=5.91D-07 NDo=     1
 LinEq1:  Iter= 37 NonCon=     1 RMS=1.48D-08 Max=4.53D-07 NDo=     1
 LinEq1:  Iter= 38 NonCon=     0 RMS=8.82D-09 Max=1.82D-07 NDo=     1
 Linear equations converged to 2.935D-08 2.935D-07 after    38 iterations.
     Accept linear search using points  1 and  2.
 LinEq1:  Iter=  0 NonCon=     1 RMS=7.40D-05 Max=2.05D-03 NDo=     1
 LinEq1:  Iter=  1 NonCon=     1 RMS=9.99D-05 Max=2.95D-03 NDo=     1
 LinEq1:  Iter=  2 NonCon=     1 RMS=8.37D-05 Max=2.82D-03 NDo=     1
 LinEq1:  Iter=  3 NonCon=     1 RMS=9.68D-05 Max=5.67D-03 NDo=     1
 LinEq1:  Iter=  4 NonCon=     1 RMS=1.13D-04 Max=5.10D-03 NDo=     1
 LinEq1:  Iter=  5 NonCon=     1 RMS=1.04D-04 Max=3.60D-03 NDo=     1
 LinEq1:  Iter=  6 NonCon=     1 RMS=8.47D-05 Max=2.54D-03 NDo=     1
 LinEq1:  Iter=  7 NonCon=     1 RMS=9.37D-05 Max=3.08D-03 NDo=     1
 LinEq1:  Iter=  8 NonCon=     1 RMS=9.70D-05 Max=2.08D-03 NDo=     1
 LinEq1:  Iter=  9 NonCon=     1 RMS=8.43D-05 Max=5.20D-03 NDo=     1
 LinEq1:  Iter= 10 NonCon=     1 RMS=7.29D-05 Max=3.72D-03 NDo=     1
 LinEq1:  Iter= 11 NonCon=     1 RMS=6.76D-05 Max=4.23D-03 NDo=     1
 LinEq1:  Iter= 12 NonCon=     1 RMS=7.21D-05 Max=4.46D-03 NDo=     1
 LinEq1:  Iter= 13 NonCon=     1 RMS=7.61D-05 Max=4.01D-03 NDo=     1
 LinEq1:  Iter= 14 NonCon=     1 RMS=7.90D-05 Max=3.76D-03 NDo=     1
 LinEq1:  Iter= 15 NonCon=     1 RMS=7.41D-05 Max=2.96D-03 NDo=     1
 LinEq1:  Iter= 16 NonCon=     1 RMS=5.90D-05 Max=2.19D-03 NDo=     1
 LinEq1:  Iter= 17 NonCon=     1 RMS=4.16D-05 Max=1.26D-03 NDo=     1
 LinEq1:  Iter= 18 NonCon=     1 RMS=3.70D-05 Max=1.24D-03 NDo=     1
 LinEq1:  Iter= 19 NonCon=     1 RMS=2.59D-05 Max=7.97D-04 NDo=     1
 LinEq1:  Iter= 20 NonCon=     1 RMS=2.02D-05 Max=4.30D-04 NDo=     1
 LinEq1:  Iter= 21 NonCon=     1 RMS=2.19D-05 Max=5.48D-04 NDo=     1
 LinEq1:  Iter= 22 NonCon=     1 RMS=1.98D-05 Max=2.78D-04 NDo=     1
 LinEq1:  Iter= 23 NonCon=     1 RMS=1.22D-05 Max=2.79D-04 NDo=     1
 LinEq1:  Iter= 24 NonCon=     1 RMS=7.48D-06 Max=1.20D-04 NDo=     1
 LinEq1:  Iter= 25 NonCon=     1 RMS=5.29D-06 Max=1.45D-04 NDo=     1
 LinEq1:  Iter= 26 NonCon=     1 RMS=3.06D-06 Max=5.60D-05 NDo=     1
 LinEq1:  Iter= 27 NonCon=     1 RMS=2.03D-06 Max=4.09D-05 NDo=     1
 LinEq1:  Iter= 28 NonCon=     1 RMS=1.38D-06 Max=2.33D-05 NDo=     1
 LinEq1:  Iter= 29 NonCon=     1 RMS=8.34D-07 Max=2.19D-05 NDo=     1
 LinEq1:  Iter= 30 NonCon=     1 RMS=5.58D-07 Max=1.50D-05 NDo=     1
 LinEq1:  Iter= 31 NonCon=     1 RMS=3.52D-07 Max=6.91D-06 NDo=     1
 LinEq1:  Iter= 32 NonCon=     1 RMS=2.59D-07 Max=5.59D-06 NDo=     1
 LinEq1:  Iter= 33 NonCon=     1 RMS=1.29D-07 Max=2.96D-06 NDo=     1
 LinEq1:  Iter= 34 NonCon=     1 RMS=7.91D-08 Max=1.37D-06 NDo=     1
 LinEq1:  Iter= 35 NonCon=     1 RMS=6.61D-08 Max=9.11D-07 NDo=     1
 LinEq1:  Iter= 36 NonCon=     1 RMS=3.53D-08 Max=7.67D-07 NDo=     1
 LinEq1:  Iter= 37 NonCon=     1 RMS=2.21D-08 Max=3.70D-07 NDo=     1
 LinEq1:  Iter= 38 NonCon=     0 RMS=1.48D-08 Max=2.77D-07 NDo=     1
 Linear equations converged to 2.935D-08 2.935D-07 after    38 iterations.
     Accept linear search using points  1 and  2.
 LinEq1:  Iter=  0 NonCon=     1 RMS=7.50D-05 Max=1.84D-03 NDo=     1
 LinEq1:  Iter=  1 NonCon=     1 RMS=1.04D-04 Max=2.76D-03 NDo=     1
 LinEq1:  Iter=  2 NonCon=     1 RMS=8.35D-05 Max=3.49D-03 NDo=     1
 LinEq1:  Iter=  3 NonCon=     1 RMS=8.56D-05 Max=4.82D-03 NDo=     1
 LinEq1:  Iter=  4 NonCon=     1 RMS=1.09D-04 Max=6.48D-03 NDo=     1
 LinEq1:  Iter=  5 NonCon=     1 RMS=9.51D-05 Max=3.59D-03 NDo=     1
 LinEq1:  Iter=  6 NonCon=     1 RMS=9.44D-05 Max=3.75D-03 NDo=     1
 LinEq1:  Iter=  7 NonCon=     1 RMS=1.13D-04 Max=3.14D-03 NDo=     1
 LinEq1:  Iter=  8 NonCon=     1 RMS=1.10D-04 Max=3.03D-03 NDo=     1
 LinEq1:  Iter=  9 NonCon=     1 RMS=8.69D-05 Max=3.75D-03 NDo=     1
 LinEq1:  Iter= 10 NonCon=     1 RMS=7.09D-05 Max=2.87D-03 NDo=     1
 LinEq1:  Iter= 11 NonCon=     1 RMS=6.61D-05 Max=2.47D-03 NDo=     1
 LinEq1:  Iter= 12 NonCon=     1 RMS=7.10D-05 Max=3.62D-03 NDo=     1
 LinEq1:  Iter= 13 NonCon=     1 RMS=6.80D-05 Max=2.43D-03 NDo=     1
 LinEq1:  Iter= 14 NonCon=     1 RMS=6.60D-05 Max=3.06D-03 NDo=     1
 LinEq1:  Iter= 15 NonCon=     1 RMS=5.90D-05 Max=1.73D-03 NDo=     1
 LinEq1:  Iter= 16 NonCon=     1 RMS=6.63D-05 Max=2.26D-03 NDo=     1
 LinEq1:  Iter= 17 NonCon=     1 RMS=4.84D-05 Max=1.22D-03 NDo=     1
 LinEq1:  Iter= 18 NonCon=     1 RMS=4.10D-05 Max=1.06D-03 NDo=     1
 LinEq1:  Iter= 19 NonCon=     1 RMS=2.92D-05 Max=7.16D-04 NDo=     1
 LinEq1:  Iter= 20 NonCon=     1 RMS=2.64D-05 Max=5.35D-04 NDo=     1
 LinEq1:  Iter= 21 NonCon=     1 RMS=2.16D-05 Max=4.32D-04 NDo=     1
 LinEq1:  Iter= 22 NonCon=     1 RMS=2.08D-05 Max=4.64D-04 NDo=     1
 LinEq1:  Iter= 23 NonCon=     1 RMS=1.22D-05 Max=2.83D-04 NDo=     1
 LinEq1:  Iter= 24 NonCon=     1 RMS=8.67D-06 Max=1.58D-04 NDo=     1
 LinEq1:  Iter= 25 NonCon=     1 RMS=5.93D-06 Max=1.07D-04 NDo=     1
 LinEq1:  Iter= 26 NonCon=     1 RMS=4.00D-06 Max=7.31D-05 NDo=     1
 LinEq1:  Iter= 27 NonCon=     1 RMS=2.46D-06 Max=5.52D-05 NDo=     1
 LinEq1:  Iter= 28 NonCon=     1 RMS=1.42D-06 Max=2.45D-05 NDo=     1
 LinEq1:  Iter= 29 NonCon=     1 RMS=9.70D-07 Max=1.50D-05 NDo=     1
 LinEq1:  Iter= 30 NonCon=     1 RMS=5.62D-07 Max=7.77D-06 NDo=     1
 LinEq1:  Iter= 31 NonCon=     1 RMS=3.35D-07 Max=4.75D-06 NDo=     1
 LinEq1:  Iter= 32 NonCon=     1 RMS=2.61D-07 Max=3.80D-06 NDo=     1
 LinEq1:  Iter= 33 NonCon=     1 RMS=1.32D-07 Max=2.18D-06 NDo=     1
 LinEq1:  Iter= 34 NonCon=     1 RMS=7.74D-08 Max=1.42D-06 NDo=     1
 LinEq1:  Iter= 35 NonCon=     1 RMS=5.95D-08 Max=1.12D-06 NDo=     1
 LinEq1:  Iter= 36 NonCon=     1 RMS=3.35D-08 Max=5.73D-07 NDo=     1
 LinEq1:  Iter= 37 NonCon=     0 RMS=1.89D-08 Max=2.90D-07 NDo=     1
 Linear equations converged to 2.935D-08 2.935D-07 after    37 iterations.
     Minimum is close to point  2 DX= -9.47D-03 DF= -3.10D-08 DXR=  9.57D-03 DFR=  9.15D-05 which will be used.
 LinEq1:  Iter=  0 NonCon=     1 RMS=2.65D-05 Max=7.42D-04 NDo=     1
 LinEq1:  Iter=  1 NonCon=     1 RMS=3.63D-05 Max=8.37D-04 NDo=     1
 LinEq1:  Iter=  2 NonCon=     1 RMS=3.02D-05 Max=1.19D-03 NDo=     1
 LinEq1:  Iter=  3 NonCon=     1 RMS=3.08D-05 Max=8.25D-04 NDo=     1
 LinEq1:  Iter=  4 NonCon=     1 RMS=3.82D-05 Max=1.62D-03 NDo=     1
 LinEq1:  Iter=  5 NonCon=     1 RMS=3.59D-05 Max=1.15D-03 NDo=     1
 LinEq1:  Iter=  6 NonCon=     1 RMS=3.14D-05 Max=1.12D-03 NDo=     1
 LinEq1:  Iter=  7 NonCon=     1 RMS=3.33D-05 Max=1.34D-03 NDo=     1
 LinEq1:  Iter=  8 NonCon=     1 RMS=3.60D-05 Max=1.01D-03 NDo=     1
 LinEq1:  Iter=  9 NonCon=     1 RMS=2.86D-05 Max=7.60D-04 NDo=     1
 LinEq1:  Iter= 10 NonCon=     1 RMS=2.74D-05 Max=5.71D-04 NDo=     1
 LinEq1:  Iter= 11 NonCon=     1 RMS=1.81D-05 Max=5.91D-04 NDo=     1
 LinEq1:  Iter= 12 NonCon=     1 RMS=1.71D-05 Max=7.88D-04 NDo=     1
 LinEq1:  Iter= 13 NonCon=     1 RMS=1.79D-05 Max=8.77D-04 NDo=     1
 LinEq1:  Iter= 14 NonCon=     1 RMS=1.91D-05 Max=9.84D-04 NDo=     1
 LinEq1:  Iter= 15 NonCon=     1 RMS=1.72D-05 Max=1.04D-03 NDo=     1
 LinEq1:  Iter= 16 NonCon=     1 RMS=1.78D-05 Max=8.60D-04 NDo=     1
 LinEq1:  Iter= 17 NonCon=     1 RMS=1.54D-05 Max=7.71D-04 NDo=     1
 LinEq1:  Iter= 18 NonCon=     1 RMS=1.52D-05 Max=6.78D-04 NDo=     1
 LinEq1:  Iter= 19 NonCon=     1 RMS=1.04D-05 Max=4.93D-04 NDo=     1
 LinEq1:  Iter= 20 NonCon=     1 RMS=9.38D-06 Max=2.88D-04 NDo=     1
 LinEq1:  Iter= 21 NonCon=     1 RMS=8.54D-06 Max=2.85D-04 NDo=     1
 LinEq1:  Iter= 22 NonCon=     1 RMS=7.53D-06 Max=1.94D-04 NDo=     1
 LinEq1:  Iter= 23 NonCon=     1 RMS=3.96D-06 Max=1.09D-04 NDo=     1
 LinEq1:  Iter= 24 NonCon=     1 RMS=2.22D-06 Max=4.36D-05 NDo=     1
 LinEq1:  Iter= 25 NonCon=     1 RMS=1.76D-06 Max=3.06D-05 NDo=     1
 LinEq1:  Iter= 26 NonCon=     1 RMS=1.01D-06 Max=1.77D-05 NDo=     1
 LinEq1:  Iter= 27 NonCon=     1 RMS=4.34D-07 Max=8.73D-06 NDo=     1
 LinEq1:  Iter= 28 NonCon=     1 RMS=3.21D-07 Max=6.55D-06 NDo=     1
 LinEq1:  Iter= 29 NonCon=     1 RMS=2.37D-07 Max=4.87D-06 NDo=     1
 LinEq1:  Iter= 30 NonCon=     1 RMS=1.43D-07 Max=2.22D-06 NDo=     1
 LinEq1:  Iter= 31 NonCon=     1 RMS=8.25D-08 Max=1.40D-06 NDo=     1
 LinEq1:  Iter= 32 NonCon=     1 RMS=5.15D-08 Max=1.06D-06 NDo=     1
 LinEq1:  Iter= 33 NonCon=     1 RMS=4.13D-08 Max=8.89D-07 NDo=     1
 LinEq1:  Iter= 34 NonCon=     1 RMS=2.19D-08 Max=4.79D-07 NDo=     1
 LinEq1:  Iter= 35 NonCon=     0 RMS=1.03D-08 Max=2.26D-07 NDo=     1
 Linear equations converged to 2.614D-08 2.614D-07 after    35 iterations.
     Minimum is close to point  2 DX=  9.40D-02 DF= -2.85D-07 DXR=  8.59D-02 DFR=  7.44D-03 which will be used.
 LinEq1:  Iter=  0 NonCon=     1 RMS=1.73D-06 Max=8.64D-05 NDo=     1
 LinEq1:  Iter=  1 NonCon=     1 RMS=2.53D-06 Max=1.45D-04 NDo=     1
 LinEq1:  Iter=  2 NonCon=     1 RMS=2.22D-06 Max=7.77D-05 NDo=     1
 LinEq1:  Iter=  3 NonCon=     1 RMS=2.14D-06 Max=1.07D-04 NDo=     1
 LinEq1:  Iter=  4 NonCon=     1 RMS=2.41D-06 Max=6.54D-05 NDo=     1
 LinEq1:  Iter=  5 NonCon=     1 RMS=2.55D-06 Max=1.18D-04 NDo=     1
 LinEq1:  Iter=  6 NonCon=     1 RMS=2.38D-06 Max=5.21D-05 NDo=     1
 LinEq1:  Iter=  7 NonCon=     1 RMS=2.67D-06 Max=9.28D-05 NDo=     1
 LinEq1:  Iter=  8 NonCon=     1 RMS=2.45D-06 Max=7.66D-05 NDo=     1
 LinEq1:  Iter=  9 NonCon=     1 RMS=2.24D-06 Max=6.99D-05 NDo=     1
 LinEq1:  Iter= 10 NonCon=     1 RMS=1.81D-06 Max=6.11D-05 NDo=     1
 LinEq1:  Iter= 11 NonCon=     1 RMS=1.59D-06 Max=6.19D-05 NDo=     1
 LinEq1:  Iter= 12 NonCon=     1 RMS=1.51D-06 Max=5.44D-05 NDo=     1
 LinEq1:  Iter= 13 NonCon=     1 RMS=1.53D-06 Max=5.78D-05 NDo=     1
 LinEq1:  Iter= 14 NonCon=     1 RMS=1.46D-06 Max=4.20D-05 NDo=     1
 LinEq1:  Iter= 15 NonCon=     1 RMS=1.49D-06 Max=4.78D-05 NDo=     1
 LinEq1:  Iter= 16 NonCon=     1 RMS=1.47D-06 Max=4.73D-05 NDo=     1
 LinEq1:  Iter= 17 NonCon=     1 RMS=9.20D-07 Max=2.37D-05 NDo=     1
 LinEq1:  Iter= 18 NonCon=     1 RMS=7.70D-07 Max=2.10D-05 NDo=     1
 LinEq1:  Iter= 19 NonCon=     1 RMS=6.93D-07 Max=1.98D-05 NDo=     1
 LinEq1:  Iter= 20 NonCon=     1 RMS=7.41D-07 Max=1.90D-05 NDo=     1
 LinEq1:  Iter= 21 NonCon=     1 RMS=5.51D-07 Max=1.33D-05 NDo=     1
 LinEq1:  Iter= 22 NonCon=     1 RMS=2.97D-07 Max=4.94D-06 NDo=     1
 LinEq1:  Iter= 23 NonCon=     1 RMS=2.58D-07 Max=4.44D-06 NDo=     1
 LinEq1:  Iter= 24 NonCon=     1 RMS=1.44D-07 Max=3.30D-06 NDo=     1
 LinEq1:  Iter= 25 NonCon=     1 RMS=1.09D-07 Max=1.79D-06 NDo=     1
 LinEq1:  Iter= 26 NonCon=     1 RMS=7.47D-08 Max=1.49D-06 NDo=     1
 LinEq1:  Iter= 27 NonCon=     1 RMS=5.23D-08 Max=9.16D-07 NDo=     1
 LinEq1:  Iter= 28 NonCon=     1 RMS=3.68D-08 Max=9.35D-07 NDo=     1
 LinEq1:  Iter= 29 NonCon=     1 RMS=1.96D-08 Max=3.91D-07 NDo=     1
 LinEq1:  Iter= 30 NonCon=     1 RMS=1.26D-08 Max=2.45D-07 NDo=     1
 LinEq1:  Iter= 31 NonCon=     1 RMS=9.53D-09 Max=2.23D-07 NDo=     1
 LinEq1:  Iter= 32 NonCon=     1 RMS=5.34D-09 Max=1.81D-07 NDo=     1
 LinEq1:  Iter= 33 NonCon=     1 RMS=3.61D-09 Max=1.22D-07 NDo=     1
 LinEq1:  Iter= 34 NonCon=     1 RMS=1.98D-09 Max=6.76D-08 NDo=     1
 LinEq1:  Iter= 35 NonCon=     1 RMS=1.44D-09 Max=5.92D-08 NDo=     1
 LinEq1:  Iter= 36 NonCon=     1 RMS=8.14D-10 Max=3.65D-08 NDo=     1
 LinEq1:  Iter= 37 NonCon=     0 RMS=5.22D-10 Max=1.49D-08 NDo=     1
 Linear equations converged to 1.852D-09 1.852D-08 after    37 iterations.
 LinEq1:  Iter=  0 NonCon=     1 RMS=1.46D-07 Max=3.11D-06 NDo=     1
 LinEq1:  Iter=  1 NonCon=     1 RMS=1.56D-07 Max=6.90D-06 NDo=     1
 LinEq1:  Iter=  2 NonCon=     1 RMS=1.27D-07 Max=3.90D-06 NDo=     1
 LinEq1:  Iter=  3 NonCon=     1 RMS=1.64D-07 Max=7.54D-06 NDo=     1
 LinEq1:  Iter=  4 NonCon=     1 RMS=1.49D-07 Max=3.49D-06 NDo=     1
 LinEq1:  Iter=  5 NonCon=     1 RMS=1.70D-07 Max=4.82D-06 NDo=     1
 LinEq1:  Iter=  6 NonCon=     1 RMS=1.67D-07 Max=4.68D-06 NDo=     1
 LinEq1:  Iter=  7 NonCon=     1 RMS=1.30D-07 Max=2.90D-06 NDo=     1
 LinEq1:  Iter=  8 NonCon=     1 RMS=1.30D-07 Max=3.16D-06 NDo=     1
 LinEq1:  Iter=  9 NonCon=     1 RMS=1.30D-07 Max=2.03D-06 NDo=     1
 LinEq1:  Iter= 10 NonCon=     1 RMS=1.22D-07 Max=3.08D-06 NDo=     1
 LinEq1:  Iter= 11 NonCon=     1 RMS=1.11D-07 Max=2.47D-06 NDo=     1
 LinEq1:  Iter= 12 NonCon=     1 RMS=1.09D-07 Max=2.94D-06 NDo=     1
 LinEq1:  Iter= 13 NonCon=     1 RMS=9.30D-08 Max=1.72D-06 NDo=     1
 LinEq1:  Iter= 14 NonCon=     1 RMS=7.86D-08 Max=1.87D-06 NDo=     1
 LinEq1:  Iter= 15 NonCon=     1 RMS=7.76D-08 Max=1.52D-06 NDo=     1
 LinEq1:  Iter= 16 NonCon=     1 RMS=8.65D-08 Max=2.11D-06 NDo=     1
 LinEq1:  Iter= 17 NonCon=     1 RMS=6.39D-08 Max=1.23D-06 NDo=     1
 LinEq1:  Iter= 18 NonCon=     1 RMS=6.45D-08 Max=1.50D-06 NDo=     1
 LinEq1:  Iter= 19 NonCon=     1 RMS=5.80D-08 Max=2.07D-06 NDo=     1
 LinEq1:  Iter= 20 NonCon=     1 RMS=5.26D-08 Max=1.76D-06 NDo=     1
 LinEq1:  Iter= 21 NonCon=     1 RMS=4.08D-08 Max=1.61D-06 NDo=     1
 LinEq1:  Iter= 22 NonCon=     1 RMS=3.82D-08 Max=1.64D-06 NDo=     1
 LinEq1:  Iter= 23 NonCon=     1 RMS=2.58D-08 Max=1.27D-06 NDo=     1
 LinEq1:  Iter= 24 NonCon=     1 RMS=2.11D-08 Max=9.82D-07 NDo=     1
 LinEq1:  Iter= 25 NonCon=     1 RMS=1.27D-08 Max=5.42D-07 NDo=     1
 LinEq1:  Iter= 26 NonCon=     1 RMS=8.08D-09 Max=3.06D-07 NDo=     1
 LinEq1:  Iter= 27 NonCon=     1 RMS=6.18D-09 Max=2.20D-07 NDo=     1
 LinEq1:  Iter= 28 NonCon=     1 RMS=3.82D-09 Max=1.03D-07 NDo=     1
 LinEq1:  Iter= 29 NonCon=     1 RMS=2.57D-09 Max=5.74D-08 NDo=     1
 LinEq1:  Iter= 30 NonCon=     1 RMS=1.52D-09 Max=4.10D-08 NDo=     1
 LinEq1:  Iter= 31 NonCon=     1 RMS=1.03D-09 Max=2.21D-08 NDo=     1
 LinEq1:  Iter= 32 NonCon=     1 RMS=6.48D-10 Max=1.82D-08 NDo=     1
 LinEq1:  Iter= 33 NonCon=     1 RMS=3.69D-10 Max=1.00D-08 NDo=     1
 LinEq1:  Iter= 34 NonCon=     1 RMS=2.83D-10 Max=8.41D-09 NDo=     1
 LinEq1:  Iter= 35 NonCon=     1 RMS=1.75D-10 Max=5.73D-09 NDo=     1
 LinEq1:  Iter= 36 NonCon=     1 RMS=8.91D-11 Max=2.84D-09 NDo=     1
 LinEq1:  Iter= 37 NonCon=     0 RMS=6.58D-11 Max=1.75D-09 NDo=     1
 Linear equations converged to 1.767D-10 1.767D-09 after    37 iterations.
 SCF Done:  E(RPM6) =  -1.34312136457     a.u. after  112 cycles
            Convg  =    0.1381D-05                   874 Fock formations.
              S**2 =  0.0000                  -V/T =  0.9922
 Range of M.O.s used for correlation:     1   439
 NBasis=   439 NAE=   148 NBE=   148 NFC=     0 NFV=     0
 NROrb=    439 NOA=   148 NOB=   148 NVA=   291 NVB=   291
 Symmetrizing basis deriv contribution to polar:
 IMax=3 JMax=2 DiffMx= 0.00D+00
 G2DrvN: will do    53 centers at a time, making    1 passes.
 Calling FoFCou, ICntrl=  3107 FMM=F I1Cent=   0 AccDes= 0.00D+00.
 End of G2Drv F.D. properties file   721 does not exist.
 End of G2Drv F.D. properties file   722 does not exist.
 End of G2Drv F.D. properties file   788 does not exist.
          IDoAtm=00000000000000000000000000000000000000000000000111
          IDoAtm=10
          Differentiating once with respect to electric field.
                with respect to dipole field.
          Differentiating once with respect to nuclear coordinates.
          Electric field/nuclear overlap derivatives assumed to be zero.
 Keep J ints in memory in canonical form, NReq=4278518.
          There are    15 degrees of freedom in the 1st order CPHF.  IDoFFX=5 NUNeed=    15.
 LinEq1:  Iter=  0 NonCon=    15 RMS=3.04D-01 Max=7.44D+00 NDo=    15
 AX will form    15 AO Fock derivatives at one time.
 LinEq1:  Iter=  1 NonCon=    15 RMS=3.40D-01 Max=5.40D+00 NDo=    15
 LinEq1:  Iter=  2 NonCon=    15 RMS=2.96D-01 Max=3.92D+00 NDo=    15
 LinEq1:  Iter=  3 NonCon=    15 RMS=2.67D-01 Max=4.51D+00 NDo=    15
 LinEq1:  Iter=  4 NonCon=    15 RMS=2.59D-01 Max=5.59D+00 NDo=    15
 LinEq1:  Iter=  5 NonCon=    15 RMS=3.17D-01 Max=5.82D+00 NDo=    15
 LinEq1:  Iter=  6 NonCon=    15 RMS=1.98D-01 Max=4.54D+00 NDo=    15
 LinEq1:  Iter=  7 NonCon=    15 RMS=2.50D-01 Max=7.92D+00 NDo=    15
 LinEq1:  Iter=  8 NonCon=    15 RMS=2.41D-01 Max=4.68D+00 NDo=    15
 LinEq1:  Iter=  9 NonCon=    15 RMS=2.29D-01 Max=5.25D+00 NDo=    15
 LinEq1:  Iter= 10 NonCon=    15 RMS=1.99D-01 Max=9.28D+00 NDo=    15
 LinEq1:  Iter= 11 NonCon=    15 RMS=1.87D-01 Max=5.57D+00 NDo=    15
 LinEq1:  Iter= 12 NonCon=    15 RMS=2.11D-01 Max=7.39D+00 NDo=    15
 LinEq1:  Iter= 13 NonCon=    15 RMS=1.82D-01 Max=7.30D+00 NDo=    15
 LinEq1:  Iter= 14 NonCon=    15 RMS=1.79D-01 Max=9.33D+00 NDo=    15
 LinEq1:  Iter= 15 NonCon=    15 RMS=1.67D-01 Max=6.55D+00 NDo=    15
 LinEq1:  Iter= 16 NonCon=    15 RMS=1.67D-01 Max=6.45D+00 NDo=    15
 LinEq1:  Iter= 17 NonCon=    15 RMS=1.11D-01 Max=3.85D+00 NDo=    15
 LinEq1:  Iter= 18 NonCon=    15 RMS=1.06D-01 Max=2.87D+00 NDo=    15
 LinEq1:  Iter= 19 NonCon=    15 RMS=7.87D-02 Max=2.83D+00 NDo=    15
 LinEq1:  Iter= 20 NonCon=    15 RMS=6.84D-02 Max=1.94D+00 NDo=    15
 LinEq1:  Iter= 21 NonCon=    15 RMS=6.40D-02 Max=1.30D+00 NDo=    15
 LinEq1:  Iter= 22 NonCon=    15 RMS=6.65D-02 Max=1.66D+00 NDo=    15
 LinEq1:  Iter= 23 NonCon=    15 RMS=4.00D-02 Max=9.91D-01 NDo=    15
 LinEq1:  Iter= 24 NonCon=    15 RMS=2.36D-02 Max=5.73D-01 NDo=    15
 LinEq1:  Iter= 25 NonCon=    15 RMS=1.97D-02 Max=4.06D-01 NDo=    15
 LinEq1:  Iter= 26 NonCon=    15 RMS=9.47D-03 Max=2.52D-01 NDo=    15
 LinEq1:  Iter= 27 NonCon=    15 RMS=6.42D-03 Max=1.17D-01 NDo=    15
 LinEq1:  Iter= 28 NonCon=    15 RMS=4.66D-03 Max=9.94D-02 NDo=    15
 LinEq1:  Iter= 29 NonCon=    15 RMS=2.63D-03 Max=8.42D-02 NDo=    15
 LinEq1:  Iter= 30 NonCon=    15 RMS=1.67D-03 Max=3.59D-02 NDo=    15
 LinEq1:  Iter= 31 NonCon=    15 RMS=8.87D-04 Max=2.74D-02 NDo=    15
 LinEq1:  Iter= 32 NonCon=    15 RMS=6.24D-04 Max=1.27D-02 NDo=    15
 LinEq1:  Iter= 33 NonCon=    15 RMS=3.98D-04 Max=9.19D-03 NDo=    15
 LinEq1:  Iter= 34 NonCon=    15 RMS=2.14D-04 Max=4.82D-03 NDo=    15
 LinEq1:  Iter= 35 NonCon=    15 RMS=1.70D-04 Max=3.60D-03 NDo=    15
 LinEq1:  Iter= 36 NonCon=    15 RMS=8.43D-05 Max=2.61D-03 NDo=    15
 LinEq1:  Iter= 37 NonCon=    15 RMS=5.03D-05 Max=9.84D-04 NDo=    15
 LinEq1:  Iter= 38 NonCon=    15 RMS=3.60D-05 Max=1.04D-03 NDo=    15
 LinEq1:  Iter= 39 NonCon=    15 RMS=1.76D-05 Max=5.58D-04 NDo=    15
 LinEq1:  Iter= 40 NonCon=    15 RMS=8.63D-06 Max=3.02D-04 NDo=    15
 LinEq1:  Iter= 41 NonCon=    13 RMS=6.07D-06 Max=1.95D-04 NDo=    15
 LinEq1:  Iter= 42 NonCon=     9 RMS=4.30D-06 Max=1.43D-04 NDo=    15
 LinEq1:  Iter= 43 NonCon=     4 RMS=1.89D-06 Max=7.52D-05 NDo=    15
 LinEq1:  Iter= 44 NonCon=     4 RMS=1.08D-06 Max=3.37D-05 NDo=    15
 LinEq1:  Iter= 45 NonCon=     3 RMS=6.91D-07 Max=2.08D-05 NDo=    15
 LinEq1:  Iter= 46 NonCon=     3 RMS=3.14D-07 Max=8.46D-06 NDo=    15
 LinEq1:  Iter= 47 NonCon=     3 RMS=1.21D-07 Max=2.97D-06 NDo=    15
 LinEq1:  Iter= 48 NonCon=     3 RMS=4.14D-08 Max=7.47D-07 NDo=    15
 LinEq1:  Iter= 49 NonCon=     3 RMS=1.75D-08 Max=3.08D-07 NDo=    15
 LinEq1:  Iter= 50 NonCon=     1 RMS=6.25D-09 Max=1.35D-07 NDo=    15
 LinEq1:  Iter= 51 NonCon=     0 RMS=2.02D-09 Max=3.89D-08 NDo=    15
 Linear equations converged to 1.000D-08 1.000D-07 after    51 iterations.
 Isotropic polarizability for W=    0.000000     3178.98 Bohr**3.
 End of Minotr F.D. properties file   721 does not exist.
 End of Minotr F.D. properties file   722 does not exist.
 End of Minotr F.D. properties file   788 does not exist.

 **********************************************************************

            Population analysis using the SCF density.

 **********************************************************************

 Orbital symmetries:
       Occupied  (A) (A) (A) (A) (A) (A) (A) (A) (A) (A) (A) (A)
                 (A) (A) (A) (A) (A) (A) (A) (A) (A) (A) (A) (A)
                 (A) (A) (A) (A) (A) (A) (A) (A) (A) (A) (A) (A)
                 (A) (A) (A) (A) (A) (A) (A) (A) (A) (A) (A) (A)
                 (A) (A) (A) (A) (A) (A) (A) (A) (A) (A) (A) (A)
                 (A) (A) (A) (A) (A) (A) (A) (A) (A) (A) (A) (A)
                 (A) (A) (A) (A) (A) (A) (A) (A) (A) (A) (A) (A)
                 (A) (A) (A) (A) (A) (A) (A) (A) (A) (A) (A) (A)
                 (A) (A) (A) (A) (A) (A) (A) (A) (A) (A) (A) (A)
                 (A) (A) (A) (A) (A) (A) (A) (A) (A) (A) (A) (A)
                 (A) (A) (A) (A) (A) (A) (A) (A) (A) (A) (A) (A)
                 (A) (A) (A) (A) (A) (A) (A) (A) (A) (A) (A) (A)
                 (A) (A) (A) (A)
       Virtual   (A) (A) (A) (A) (A) (A) (A) (A) (A) (A) (A) (A)
                 (A) (A) (A) (A) (A) (A) (A) (A) (A) (A) (A) (A)
                 (A) (A) (A) (A) (A) (A) (A) (A) (A) (A) (A) (A)
                 (A) (A) (A) (A) (A) (A) (A) (A) (A) (A) (A) (A)
                 (A) (A) (A) (A) (A) (A) (A) (A) (A) (A) (A) (A)
                 (A) (A) (A) (A) (A) (A) (A) (A) (A) (A) (A) (A)
                 (A) (A) (A) (A) (A) (A) (A) (A) (A) (A) (A) (A)
                 (A) (A) (A) (A) (A) (A) (A) (A) (A) (A) (A) (A)
                 (A) (A) (A) (A) (A) (A) (A) (A) (A) (A) (A) (A)
                 (A) (A) (A) (A) (A) (A) (A) (A) (A) (A) (A) (A)
                 (A) (A) (A) (A) (A) (A) (A) (A) (A) (A) (A) (A)
                 (A) (A) (A) (A) (A) (A) (A) (A) (A) (A) (A) (A)
                 (A) (A) (A) (A) (A) (A) (A) (A) (A) (A) (A) (A)
                 (A) (A) (A) (A) (A) (A) (A) (A) (A) (A) (A) (A)
                 (A) (A) (A) (A) (A) (A) (A) (A) (A) (A) (A) (A)
                 (A) (A) (A) (A) (A) (A) (A) (A) (A) (A) (A) (A)
                 (A) (A) (A) (A) (A) (A) (A) (A) (A) (A) (A) (A)
                 (A) (A) (A) (A) (A) (A) (A) (A) (A) (A) (A) (A)
                 (A) (A) (A) (A) (A) (A) (A) (A) (A) (A) (A) (A)
                 (A) (A) (A) (A) (A) (A) (A) (A) (A) (A) (A) (A)
                 (A) (A) (A) (A) (A) (A) (A) (A) (A) (A) (A) (A)
                 (A) (A) (A) (A) (A) (A) (A) (A) (A) (A) (A) (A)
                 (A) (A) (A) (A) (A) (A) (A) (A) (A) (A) (A) (A)
                 (A) (A) (A) (A) (A) (A) (A) (A) (A) (A) (A) (A)
                 (A) (A) (A)
 The electronic state is 1-A.
 Alpha  occ. eigenvalues --   -1.35957  -1.12786  -1.06724  -1.04089  -1.01844
 Alpha  occ. eigenvalues --   -0.99678  -0.99288  -0.99099  -0.98809  -0.97777
 Alpha  occ. eigenvalues --   -0.97749  -0.97501  -0.97161  -0.97080  -0.96949
 Alpha  occ. eigenvalues --   -0.96559  -0.96433  -0.96283  -0.96036  -0.95511
 Alpha  occ. eigenvalues --   -0.95258  -0.94745  -0.94483  -0.94405  -0.93831
 Alpha  occ. eigenvalues --   -0.93413  -0.93153  -0.93033  -0.92223  -0.91722
 Alpha  occ. eigenvalues --   -0.91475  -0.90454  -0.90121  -0.68118  -0.67863
 Alpha  occ. eigenvalues --   -0.52506  -0.50136  -0.50023  -0.49191  -0.48361
 Alpha  occ. eigenvalues --   -0.48185  -0.47966  -0.47736  -0.47035  -0.46915
 Alpha  occ. eigenvalues --   -0.46268  -0.45814  -0.45754  -0.45355  -0.44985
 Alpha  occ. eigenvalues --   -0.43974  -0.43782  -0.43692  -0.43386  -0.42981
 Alpha  occ. eigenvalues --   -0.42860  -0.42487  -0.42396  -0.42255  -0.41152
 Alpha  occ. eigenvalues --   -0.40986  -0.40674  -0.40055  -0.39784  -0.39527
 Alpha  occ. eigenvalues --   -0.39247  -0.38900  -0.38714  -0.38204  -0.37681
 Alpha  occ. eigenvalues --   -0.37408  -0.37160  -0.36879  -0.36553  -0.35936
 Alpha  occ. eigenvalues --   -0.35497  -0.35386  -0.34929  -0.34660  -0.34522
 Alpha  occ. eigenvalues --   -0.34354  -0.34173  -0.34070  -0.33819  -0.33695
 Alpha  occ. eigenvalues --   -0.33621  -0.33456  -0.33294  -0.33167  -0.32743
 Alpha  occ. eigenvalues --   -0.32691  -0.32202  -0.32020  -0.31540  -0.31344
 Alpha  occ. eigenvalues --   -0.31218  -0.31019  -0.30880  -0.30740  -0.30699
 Alpha  occ. eigenvalues --   -0.30433  -0.30012  -0.29653  -0.29588  -0.29553
 Alpha  occ. eigenvalues --   -0.29335  -0.28971  -0.28691  -0.28565  -0.28112
 Alpha  occ. eigenvalues --   -0.27923  -0.27725  -0.27642  -0.27547  -0.27259
 Alpha  occ. eigenvalues --   -0.27223  -0.26946  -0.26927  -0.26785  -0.26737
 Alpha  occ. eigenvalues --   -0.26701  -0.26294  -0.26099  -0.25680  -0.25634
 Alpha  occ. eigenvalues --   -0.25566  -0.25398  -0.25332  -0.25028  -0.24944
 Alpha  occ. eigenvalues --   -0.24636  -0.24592  -0.24567  -0.24333  -0.23968
 Alpha  occ. eigenvalues --   -0.23828  -0.23698  -0.23267  -0.23096  -0.22602
 Alpha  occ. eigenvalues --   -0.22524  -0.22385  -0.22267  -0.22061  -0.21901
 Alpha  occ. eigenvalues --   -0.21463  -0.21327  -0.20930
 Alpha virt. eigenvalues --   -0.07952  -0.07208  -0.06669  -0.06066  -0.05732
 Alpha virt. eigenvalues --   -0.05440  -0.05369  -0.04760  -0.04544  -0.04258
 Alpha virt. eigenvalues --   -0.04108  -0.03594  -0.03510  -0.03346  -0.02694
 Alpha virt. eigenvalues --   -0.02613  -0.02191  -0.02006  -0.01897  -0.01581
 Alpha virt. eigenvalues --   -0.01023  -0.00865  -0.00732  -0.00468  -0.00080
 Alpha virt. eigenvalues --   -0.00008   0.00451   0.00596   0.00954   0.01220
 Alpha virt. eigenvalues --    0.01444   0.01647   0.01727   0.02135   0.02591
 Alpha virt. eigenvalues --    0.02734   0.02840   0.03058   0.03386   0.03413
 Alpha virt. eigenvalues --    0.03522   0.03856   0.04103   0.04384   0.04516
 Alpha virt. eigenvalues --    0.04609   0.04668   0.05166   0.05187   0.05516
 Alpha virt. eigenvalues --    0.05556   0.05594   0.05743   0.06069   0.06251
 Alpha virt. eigenvalues --    0.06414   0.06574   0.06737   0.06773   0.06888
 Alpha virt. eigenvalues --    0.06921   0.07050   0.07165   0.07221   0.07353
 Alpha virt. eigenvalues --    0.07398   0.07467   0.07520   0.07526   0.07569
 Alpha virt. eigenvalues --    0.07651   0.07753   0.07870   0.07886   0.08089
 Alpha virt. eigenvalues --    0.08164   0.08204   0.08240   0.08300   0.08491
 Alpha virt. eigenvalues --    0.08545   0.08667   0.08674   0.08702   0.08739
 Alpha virt. eigenvalues --    0.08947   0.09005   0.09078   0.09174   0.09269
 Alpha virt. eigenvalues --    0.09281   0.09371   0.09431   0.09447   0.09606
 Alpha virt. eigenvalues --    0.09660   0.09754   0.09793   0.09823   0.09856
 Alpha virt. eigenvalues --    0.10007   0.10102   0.10153   0.10201   0.10297
 Alpha virt. eigenvalues --    0.10314   0.10436   0.10490   0.10545   0.10582
 Alpha virt. eigenvalues --    0.10638   0.10740   0.10805   0.10869   0.10960
 Alpha virt. eigenvalues --    0.11043   0.11067   0.11093   0.11109   0.11161
 Alpha virt. eigenvalues --    0.11173   0.11265   0.11282   0.11304   0.11365
 Alpha virt. eigenvalues --    0.11389   0.11414   0.11418   0.11466   0.11487
 Alpha virt. eigenvalues --    0.11535   0.11548   0.11566   0.11591   0.11665
 Alpha virt. eigenvalues --    0.11705   0.11744   0.11774   0.11809   0.11837
 Alpha virt. eigenvalues --    0.11953   0.11974   0.12024   0.12054   0.12091
 Alpha virt. eigenvalues --    0.12159   0.12197   0.12258   0.12259   0.12279
 Alpha virt. eigenvalues --    0.12304   0.12323   0.12398   0.12429   0.12466
 Alpha virt. eigenvalues --    0.12485   0.12508   0.12541   0.12558   0.12572
 Alpha virt. eigenvalues --    0.12669   0.12703   0.12743   0.12801   0.12833
 Alpha virt. eigenvalues --    0.12887   0.12955   0.12984   0.13047   0.13051
 Alpha virt. eigenvalues --    0.13078   0.13106   0.13185   0.13213   0.13264
 Alpha virt. eigenvalues --    0.13310   0.13329   0.13360   0.13404   0.13435
 Alpha virt. eigenvalues --    0.13482   0.13512   0.13545   0.13613   0.13657
 Alpha virt. eigenvalues --    0.13684   0.13702   0.13740   0.13773   0.13803
 Alpha virt. eigenvalues --    0.13841   0.13904   0.13938   0.13994   0.14030
 Alpha virt. eigenvalues --    0.14063   0.14078   0.14101   0.14141   0.14186
 Alpha virt. eigenvalues --    0.14279   0.14312   0.14387   0.14448   0.14506
 Alpha virt. eigenvalues --    0.14566   0.14617   0.14655   0.14724   0.14758
 Alpha virt. eigenvalues --    0.14837   0.14928   0.15002   0.15112   0.15181
 Alpha virt. eigenvalues --    0.15280   0.15285   0.15407   0.15424   0.15571
 Alpha virt. eigenvalues --    0.15645   0.15698   0.15798   0.15821   0.15872
 Alpha virt. eigenvalues --    0.15894   0.15952   0.16161   0.16221   0.16329
 Alpha virt. eigenvalues --    0.16491   0.16758   0.16796   0.16824   0.16902
 Alpha virt. eigenvalues --    0.17021   0.17026   0.17117   0.17161   0.17277
 Alpha virt. eigenvalues --    0.17414   0.17526   0.17566   0.17712   0.17820
 Alpha virt. eigenvalues --    0.17860   0.18172   0.18233   0.18409   0.18467
 Alpha virt. eigenvalues --    0.18499   0.18529   0.18619   0.18640   0.18783
 Alpha virt. eigenvalues --    0.18818   0.19158   0.19383   0.19465   0.19613
 Alpha virt. eigenvalues --    0.19788   0.20601   0.20669   0.20811   0.20894
 Alpha virt. eigenvalues --    0.21023   0.21258   0.21486   0.21952   0.22075
 Alpha virt. eigenvalues --    0.22226   0.22309   0.22665   0.23052   0.26069
 Alpha virt. eigenvalues --    0.26749   0.28344   0.31496   0.32699   0.36482
 Alpha virt. eigenvalues --    0.37325   0.39122   0.39499   0.44355   0.45142
 Alpha virt. eigenvalues --    0.46436   0.46864   0.49713   0.49819   0.50527
 Alpha virt. eigenvalues --    0.52138
          Condensed to atoms (all electrons):
 Mulliken charges:
               1
     1  Mo   0.336024
     2  S   -0.404909
     3  S   -0.403938
     4  Mo   0.157275
     5  Mo  -0.051042
     6  Mo   0.156409
     7  S    0.304184
     8  S   -0.051704
     9  S    0.169781
    10  S    0.267755
    11  S    0.037421
    12  S    0.168147
    13  Mo   0.331865
    14  Mo   0.519463
    15  Mo   1.040511
    16  S   -0.337079
    17  S   -0.276071
    18  S   -0.251695
    19  S   -0.338898
    20  S   -0.272954
    21  S   -0.252054
    22  Mo  -0.505364
    23  Mo  -0.321203
    24  Mo   0.207570
    25  Mo  -0.402918
    26  Mo   0.502937
    27  Mo   0.195265
    28  Mo  -0.017798
    29  Mo   0.220705
    30  S    0.024907
    31  S    0.254269
    32  S   -0.374531
    33  S    0.201524
    34  S    0.081406
    35  S   -0.363829
    36  S   -0.052831
    37  S    0.036901
    38  S   -0.398514
    39  S    0.143954
    40  S    0.311621
    41  S   -0.366105
    42  S    0.090829
    43  S    0.258964
    44  S   -0.368140
    45  S    0.031484
    46  S    0.119576
    47  S   -0.393662
    48  N   -0.412688
    49  H    0.295659
    50  H    0.305816
    51  H    0.307235
    52  Mo  -0.461529
 Sum of Mulliken charges =   0.00000
 Mulliken charges with hydrogens summed into heavy atoms:
               1
     1  Mo   0.336024
     2  S   -0.404909
     3  S   -0.403938
     4  Mo   0.157275
     5  Mo  -0.051042
     6  Mo   0.156409
     7  S    0.304184
     8  S   -0.051704
     9  S    0.169781
    10  S    0.267755
    11  S    0.037421
    12  S    0.168147
    13  Mo   0.331865
    14  Mo   0.519463
    15  Mo   1.040511
    16  S   -0.337079
    17  S   -0.276071
    18  S   -0.251695
    19  S   -0.338898
    20  S   -0.272954
    21  S   -0.252054
    22  Mo  -0.505364
    23  Mo  -0.321203
    24  Mo   0.207570
    25  Mo  -0.402918
    26  Mo   0.502937
    27  Mo   0.195265
    28  Mo  -0.017798
    29  Mo   0.220705
    30  S    0.024907
    31  S    0.254269
    32  S   -0.374531
    33  S    0.201524
    34  S    0.081406
    35  S   -0.363829
    36  S   -0.052831
    37  S    0.036901
    38  S   -0.398514
    39  S    0.143954
    40  S    0.311621
    41  S   -0.366105
    42  S    0.090829
    43  S    0.258964
    44  S   -0.368140
    45  S    0.031484
    46  S    0.119576
    47  S   -0.393662
    48  N    0.496023
    52  Mo  -0.461529
 Charge=              0.0000 electrons
 Dipole moment (field-independent basis, Debye):
    X=            -47.6064    Y=              3.9719    Z=              0.8982  Tot=             47.7803
 N-N= 4.202529324557D+03 E-N=-8.092631687841D+03  KE=-1.720731853547D+02
  Exact polarizability:3883.022-179.5644569.943   5.074  13.4861083.975
 Approx polarizability:4201.471 -80.2493259.455 -18.826  -2.5312556.417
 Calling FoFJK, ICntrl=    100127 FMM=F ISym2X=0 I1Cent= 0 IOpClX= 0 NMat=1 NMatS=1 NMatT=0.
   48 atoms frozen in the vibrational analysis.
 ******    4 imaginary frequencies (negative Signs) ****** 
 Diagonal vibrational polarizability:
       15.6538970     294.6513578     185.9057464
 Harmonic frequencies (cm**-1), IR intensities (KM/Mole), Raman scattering
 activities (A**4/AMU), depolarization ratios for plane and unpolarized
[...]
 .,0.,0.,0.,0.,0.,0.,0.,0.,0.,0.,0.,0.,0.,0.,0.,0.,0.,0.,0.,0.,0.,0.,0.
 ,0.,0.,0.,0.,0.,0.,0.,0.,0.,0.,0.,0.,0.,0.,0.,0.,0.,0.,0.,0.,0.,0.,0.,
 0.,0.,0.,0.,0.,0.,0.,0.,0.,0.,0.,0.,0.,0.,0.,0.,0.,0.,0.,0.,0.,0.,0.,0
 .,0.,0.,0.,0.,0.,0.,0.,0.,0.,0.,0.,0.,0.,0.,0.,0.,0.,0.,0.,0.,0.,0.,0.
 ,0.,0.,0.,0.,0.,0.,0.,0.,0.,0.,0.,0.,0.,0.,0.,0.,0.,0.,0.,0.,0.,0.,0.,
 0.,0.,0.,0.,0.,0.,0.,0.,0.,0.,0.,0.,0.,0.,0.,0.,0.,0.,0.,0.,0.,0.,0.,0
 .,0.,0.,0.,0.,0.,0.,0.,0.,0.,0.,0.,0.,0.,0.,0.,0.,0.,0.,0.,0.,0.,0.,0.
 ,0.,0.,0.,0.,0.,0.,0.,0.,0.,0.,0.,0.,0.,0.,0.,0.,0.,0.,0.,0.,0.,0.,0.,
 0.,0.,0.,0.,0.,0.,0.,0.,0.,0.,0.,0.,0.,0.,0.,0.,0.,0.,0.,0.,0.,0.,0.,0
 .,0.,0.,0.,0.,0.,0.,0.,0.,0.,0.,0.,0.,0.,0.,0.,0.,0.,0.,0.,0.,0.,0.,0.
 ,0.,0.,0.,0.,0.,0.,0.,0.,0.,0.,0.,0.,0.,0.,0.,0.,0.,0.,0.,0.,0.,0.,0.,
 0.,0.,0.,0.,0.,0.,0.,0.,0.,0.,0.,0.,0.,0.,0.,0.,0.,0.,0.,0.,0.,0.,0.,0
 .,0.,0.,0.,0.,0.,0.,0.,0.,0.,0.,0.,0.,0.,0.,0.,0.,0.,0.,0.,0.,0.,0.,0.
 ,0.,0.,0.,0.,0.,0.,0.,0.,0.,0.,0.,0.,0.,0.,0.,0.,0.,0.,0.,0.,0.,0.,0.,
 0.,0.,0.,0.,0.,0.,0.,0.,0.,0.,0.,0.,0.,0.,0.,0.,0.,0.,0.,0.,0.,0.,0.,0
 .,0.,0.,0.,0.,0.,0.,0.,0.,0.,0.,0.,0.,0.,0.,0.,0.,0.,0.,0.,0.,0.,0.,0.
 ,0.,0.,0.,0.,0.,0.,0.,0.,0.,0.,0.,0.,0.,0.,0.,0.,0.,0.,0.,0.,0.,0.,0.,
 0.,0.,0.,0.,0.,0.,0.,0.,0.,0.,0.,0.,0.,0.,0.,0.,0.,0.,0.,0.,0.,0.,0.,0
 .,0.,0.,0.,0.,0.,0.,0.,0.,0.,0.,0.,0.,0.,0.,0.,0.,0.,0.,0.,0.,0.,0.,0.
 ,0.,0.,0.,0.,0.,0.,0.,0.,0.,0.,0.,0.,0.,0.,0.,0.,0.,0.,0.,0.,0.,0.,0.,
 0.,0.,0.,0.,0.,0.,0.,0.,0.,0.,0.,0.,0.,0.,0.,0.,0.,0.,0.,0.,0.,0.,0.,0
 .,0.,0.,0.,0.,0.,0.,0.,0.,0.,0.,0.,0.,0.,0.,0.,0.,0.,0.,0.,0.,0.,0.,0.
 ,0.,0.,0.,0.,0.,0.,0.,0.,0.,0.,0.,0.,0.,0.,0.,0.,0.,0.,0.,0.,0.,0.,0.,
 0.,0.,0.,0.,0.,0.,0.,0.,0.,0.,0.,0.,0.,0.,0.,0.,0.,0.,0.,0.,0.,0.,0.,0
 .,0.,0.,0.,0.,0.,0.,0.,0.,0.,0.,0.,0.,0.,0.,0.,0.,0.,0.,0.,0.,0.,0.,0.
 ,0.,0.,0.,0.,0.,0.,0.,0.,0.,0.,0.,0.,0.,0.,0.,0.,0.,0.,0.,0.,0.,0.,0.,
 0.,0.,0.,0.,0.,0.,0.,0.,0.,0.,0.,0.,0.,0.,0.,0.,0.,0.,0.,0.,0.,0.,0.,0
 .,0.,0.,0.,0.,0.,0.,0.,0.,0.,0.,0.,0.,0.,0.,0.,0.,0.,0.,0.,0.,0.,0.,0.
 ,0.,0.,0.,0.,0.,0.,0.,0.,0.,0.,0.,0.,0.,0.,0.,0.,0.,0.,0.,0.,0.,0.,0.,
 0.,0.,0.,0.,0.,0.,0.,0.,0.,0.,0.,0.,0.,0.,0.,0.,0.,0.,0.,0.,0.,0.,0.,0
 .,0.,0.,0.,0.,0.,0.,0.,0.,0.,0.,0.,0.,0.,0.,0.,0.,0.,0.,0.,0.,0.,0.,0.
 ,0.,0.,0.,0.,0.,0.,0.,0.,0.,0.,0.,0.,0.,0.,0.,0.,0.,0.,0.,0.,0.,0.,0.,
 0.,0.,0.,0.,0.,0.,0.,0.,0.,0.,0.,0.,0.,0.,0.,0.,0.,0.,0.,0.,0.,0.,0.,0
 .,0.,0.,0.,0.,0.,0.,0.,0.,0.,0.,0.,0.,0.,0.,0.,0.,0.,0.,0.,0.,0.,0.,0.
 ,0.,0.,0.,0.,0.,0.,0.,0.,0.,0.,0.,0.,0.,0.,0.,0.,0.,0.,0.,0.,0.,0.,0.,
 0.,0.,0.,0.,0.,0.,0.,0.,0.,0.,0.,0.,0.,0.,0.,0.,0.,0.,0.,0.,0.,0.,0.,0
 .,0.,0.,0.,0.,0.,0.,0.,0.,0.,0.,0.,0.,0.,0.,0.,0.,0.,0.,0.,0.,0.,0.,0.
 ,0.,0.,0.,0.,0.,0.,0.,0.,0.,0.,0.,0.,0.,0.,0.,0.,0.,0.,0.,0.,0.,0.,0.,
 0.,0.,0.,0.,0.,0.,0.,0.,0.,0.,0.,0.,0.,0.,0.,0.,0.,0.,0.,0.,0.,0.,0.,0
 .,0.,0.,0.,0.,0.,0.,0.,0.,0.,0.,0.,0.,0.,0.,0.,0.,0.,0.,0.,0.,0.,0.,0.
 ,0.,0.,0.,0.,0.,0.,0.,0.,0.,0.,0.,0.,0.,0.,0.,0.,0.,0.,0.,0.,0.,0.,0.,
 0.,0.,0.,0.,0.,0.,0.,0.,0.,0.,0.,0.,0.,0.,0.,0.,0.,0.,0.,0.,0.,0.,0.,0
 .,0.,0.,0.,0.,0.,0.,0.,0.,0.,0.,0.,0.,0.,0.,0.,0.,0.,0.,0.,0.,0.,0.,0.
 ,0.,0.,0.,0.,0.,0.,0.,0.,0.,0.,0.,0.,0.,0.,0.,0.,0.,0.,0.,0.,0.,0.,0.,
 0.,0.,0.,0.,0.,0.,0.,0.,0.,0.,0.,0.,0.,0.,0.,0.,0.,0.,0.,0.,0.,0.,0.,0
 .,0.,0.,0.,0.,0.,0.,0.,0.,0.,0.,0.,0.,0.,0.,0.,0.,0.,0.,0.,0.,0.,0.,0.
 ,0.,0.,0.,0.,0.,0.,0.,0.,0.,0.,0.,0.,0.,0.,0.,0.,0.,0.,0.,0.,0.,0.,0.,
 0.,0.,0.,0.,0.,0.,0.,0.,0.,0.,0.,0.,0.,0.,0.,0.,0.,0.,0.,0.,0.,0.,0.,0
 .,0.,0.,0.,0.,0.,0.,0.,0.,0.,0.,0.,0.,0.,0.,0.,0.,0.,0.,0.,0.,0.,0.,0.
 ,0.,0.,0.,0.,0.,0.,0.,0.,0.,0.,0.,0.,0.,0.,0.,0.,0.,0.,0.,0.,0.,0.,0.,
 0.,0.,0.,0.,0.,0.,0.,0.,0.,0.,0.,0.,0.,0.,0.,0.,0.,0.,0.,0.,0.,0.,0.,0
 .,0.,0.,0.,0.,0.,0.,0.,0.,0.,0.,0.,0.,0.,0.,0.,0.,0.,0.,0.,0.,0.,0.,0.
 ,0.,0.,0.,0.,0.,0.,0.,0.,0.,0.,0.,0.,0.,0.,0.,0.,0.,0.,0.,0.,0.,0.,0.,
 0.,0.,0.,0.,0.,0.,0.,0.,0.,0.,0.,0.,0.,0.,0.,0.,0.,0.,0.,0.,0.,0.,0.,0
 .,0.,0.,0.,0.,0.,0.,0.,0.,0.,0.,0.,0.,0.,0.,0.,0.,0.,0.,0.,0.,0.,0.,0.
 ,0.,0.,0.,0.,0.,0.,0.,0.,0.,0.,0.,0.,0.,0.,0.,0.,0.,0.,0.,0.,0.,0.,0.,
 0.,0.,0.,0.,0.,0.,0.,0.,0.,0.,0.,0.,0.,0.,0.,0.,0.,0.,0.,0.,0.,0.,0.,0
 .,0.,0.,0.,0.,0.,0.,0.,0.,0.,0.,0.,0.,0.,0.,0.,0.,0.,0.,0.,0.,0.,0.,0.
 ,0.,0.,0.,0.,0.,0.,0.,0.,0.,0.,0.,0.,0.,0.,0.,0.,0.,0.,0.,0.,0.,0.,0.,
 0.,0.,0.,0.,0.,0.,0.,0.,0.,0.,0.,0.,0.,0.,0.,0.,0.,0.,0.,0.,0.,0.,0.,0
 .,0.,0.,0.,0.,0.,0.,0.,0.,0.,0.,0.,0.,0.,0.,0.,0.,0.,0.,0.,0.,0.,0.,0.
 ,0.,0.,0.,0.,0.,0.,0.,0.,0.,0.,0.,0.,0.,0.,0.,0.,0.,0.,0.,0.,0.,0.,0.,
 0.,0.,0.,0.,0.,0.,0.,0.,0.,0.,0.,0.,0.,0.,0.,0.,0.,0.,0.,0.,0.,0.,0.,0
 .,0.,0.,0.,0.,0.,0.,0.,0.,0.,0.,0.,0.,0.,0.,0.,0.,0.,0.,0.,0.,0.,0.,0.
 ,0.,0.,0.,0.,0.,0.,0.,0.,0.,0.,0.,0.,0.,0.,0.,0.,0.,0.,0.,0.,0.,0.,0.,
 0.,0.,0.,0.,0.,0.,0.,0.,0.,0.,0.,0.,0.,0.,0.,0.,0.,0.,0.,0.,0.,0.,0.,0
 .,0.,0.,0.,0.,0.,0.,0.,0.,0.,0.,0.,0.,0.,0.,0.,0.,0.,0.,0.,0.,0.,0.,0.
 ,0.,0.,0.,0.,0.,0.,0.,0.,0.,0.,0.,0.,0.,0.,0.,0.,0.,0.,0.,0.,0.,0.,0.,
 0.,0.,0.,0.,0.,0.,0.,0.,0.,0.,0.,0.,0.,0.,0.,0.,0.,0.,0.,0.,0.,0.,0.,0
 .,0.,0.,0.,0.,0.,0.,0.,0.,0.,0.,0.,0.,0.,0.,0.,0.,0.,0.,0.,0.,0.,0.,0.
 ,0.,0.,0.,0.,0.,0.,0.,0.,0.,0.,0.,0.,0.,0.,0.,0.,0.,0.,0.,0.,0.,0.,0.,
 0.,0.,0.,0.,0.,0.,0.,0.,0.,0.,0.,0.,0.,0.,0.,0.,0.,0.,0.,0.,0.,0.,0.,0
 .,0.,0.,0.,0.,0.,0.,0.,0.,0.,0.,0.,0.,0.,0.,0.,0.,0.,0.,0.,0.,0.,0.,0.
 ,0.,0.,0.,0.,0.,0.,0.,0.,0.,0.,0.,0.,0.,0.,0.,0.,0.,0.,0.,0.,0.,0.,0.,
 0.,0.,0.,0.,0.,0.,0.,0.,0.,0.,0.,0.,0.,0.,0.,0.,0.,0.,0.,0.,0.,0.,0.,0
 .,0.,0.,0.,0.,0.,0.,0.,0.,0.,0.,0.,0.,0.,0.,0.,0.,0.,0.,0.,0.,0.,0.,0.
 ,0.,0.,0.,0.,0.,0.,0.,0.,0.,0.,0.,0.,0.,0.,0.,0.,0.,0.,0.,0.,0.,0.,0.,
 0.,0.,0.,0.,0.,0.,0.,0.,0.,0.,0.,0.,0.,0.,0.,0.,0.,0.,0.,0.,0.,0.,0.,0
 .,0.,0.,0.,0.,0.,0.,0.,0.,0.,0.,0.,0.,0.,0.,0.,0.,0.,0.,0.,0.,0.,0.,0.
 ,0.,0.,0.,0.,0.,0.,0.,0.,0.,0.,0.,0.,0.,0.,0.,0.,0.,0.,0.,0.,0.,0.,0.,
 0.,0.,0.,0.,0.,0.,0.,0.,0.,0.,0.,0.,0.,0.,0.,0.,0.,0.,0.,0.,0.,0.,0.,0
 .,0.,0.,0.,0.,0.,0.,0.,0.,0.,0.,0.,0.,0.,0.,0.,0.,0.,0.,0.,0.,0.,0.,0.
 ,0.,0.,0.,0.,0.,0.,0.,0.,0.,0.,0.,0.,0.,0.,0.,0.,0.,0.,0.,0.,0.,0.,0.,
 0.,0.,0.,0.,0.,0.,0.,0.,0.,0.,0.,0.,0.,0.,0.,0.,0.,0.,0.,0.,0.,0.,0.,0
 .,0.,0.,0.,0.,0.,0.,0.,0.,0.,0.,0.,0.,0.,0.,0.,0.,0.,0.,0.,0.,0.,0.,0.
 ,0.,0.,0.,0.,0.,0.,0.,0.,0.,0.,0.,0.,0.,0.,0.,0.,0.,0.,0.,0.,0.,0.,0.,
 0.,0.,0.,0.,0.,0.,0.,0.,0.,0.,0.,0.,0.,0.,0.,0.,0.,0.,0.,0.,0.,0.,0.,0
 .,0.,0.,0.,0.,0.,0.,0.,0.,0.,0.,0.,0.,0.,0.,0.,0.,0.,0.,0.,0.,0.,0.,0.
 ,0.,0.,0.,0.,0.,0.,0.,0.,0.,0.,0.,0.,0.,0.,0.,0.,0.,0.,0.,0.,0.,0.,0.,
 0.,0.,0.,0.,0.,0.,0.,0.,0.,0.,0.,0.,0.,0.,0.,0.,0.,0.,0.,0.,0.,0.,0.,0
 .,0.,0.,0.,0.,0.,0.,0.,0.,0.,0.,0.,0.,0.,0.,0.,0.,0.,0.,0.,0.,0.,0.,0.
 ,0.,0.,0.,0.,0.,0.,0.,0.,0.,0.,0.,0.,0.,0.,0.,0.,0.,0.,0.,0.,0.,0.,0.,
 0.,0.,0.,0.,0.,0.,0.,0.,0.,0.,0.,0.,0.,0.,0.,0.,0.,0.,0.,0.,0.,0.,0.,0
 .,0.,0.,0.,0.,0.,0.,0.,0.,0.,0.,0.,0.,0.,0.,0.,0.,0.,0.,0.,0.,0.,0.,0.
 ,0.,0.,0.,0.,0.,0.,0.,0.,0.,0.,0.,0.,0.,0.,0.,0.,0.,0.,0.,0.,0.,0.,0.,
 0.,0.,0.,0.,0.,0.,0.,0.,0.,0.,0.,0.,0.,0.,0.,0.,0.,0.,0.,0.,0.,0.,0.,0
 .,0.,0.,0.,0.,0.,0.,0.,0.,0.,0.,0.,0.,0.,0.,0.,0.,0.,0.,0.,0.,0.,0.,0.
 ,0.,0.,0.,0.,0.,0.,0.,0.,0.,0.,0.,0.,0.,0.,0.,0.,0.,0.,0.,0.,0.,0.,0.,
 0.,0.,0.,0.,0.,0.,0.,0.,0.,0.,0.,0.,0.,0.,0.,0.,0.,0.,0.,0.,0.,0.,0.,0
 .,0.,0.,0.,0.,0.,0.,0.,0.,0.,0.,0.,0.,0.,0.,0.,0.,0.,0.,0.,0.,0.,0.,0.
 ,0.,0.,0.,0.,0.,0.,0.,0.,0.,0.,0.,0.,0.,0.,0.,0.,0.,0.,0.,0.,0.,0.,0.,
 0.,0.,0.,0.,0.,0.,0.,0.,0.,0.,0.,0.,0.,0.,0.,0.,0.,0.,0.,0.,0.,0.,0.,0
 .,0.,0.,0.,0.,0.,0.,0.,0.,0.,0.,0.,0.,0.,0.,0.,0.,0.,0.,0.,0.,0.,0.,0.
 ,0.,0.,0.,0.,0.,0.,0.,0.,0.,0.,0.,0.,0.,0.,0.,0.,0.,0.,0.,0.,0.,0.,0.,
 0.,0.,0.,0.,0.,0.,0.,0.,0.,0.,0.,0.,0.,0.,0.,0.,0.,0.,0.,0.,0.,0.,0.,0
 .,0.,0.,0.,0.,0.,0.,0.,0.,0.,0.,0.,0.,0.,0.,0.,0.,0.,0.,0.,0.,0.,0.,0.
 ,0.,0.,0.,0.,0.,0.,0.,0.,0.,0.,0.,0.,0.,0.,0.,0.,0.,0.,0.,0.,0.,0.,0.,
 0.,0.,0.,0.,0.,0.,0.,0.,0.,0.,0.,0.,0.,0.,0.,0.,0.,0.,0.,0.,0.,0.,0.,0
 .,0.,0.,0.,0.,0.,0.,0.,0.,0.,0.,0.,0.,0.,0.,0.,0.,0.,0.,0.,0.,0.,0.,0.
 ,0.,0.,0.,0.,0.,0.,0.,0.,0.,0.,0.,0.,0.,0.,0.,0.,0.,0.,0.,0.,0.,0.,0.,
 0.,0.,0.,0.,0.,0.,0.,0.,0.,0.,0.,0.,0.,0.,0.,0.,0.,0.,0.,0.,0.,0.,0.,0
 .,0.,0.,0.,0.,0.,0.,0.,0.,0.,0.,0.,0.,0.,0.,0.,0.,0.,0.,0.,0.,0.,0.,0.
 ,0.,0.,0.,0.,0.,0.,0.,0.,0.,0.,0.,0.,0.,0.,0.,0.,0.,0.,0.,0.,0.,0.,0.,
 0.,0.,0.,0.,0.,0.,0.,0.,0.,0.,0.,0.,0.,0.,0.,0.,0.,0.,0.,0.,0.,0.,0.,0
 .,0.,0.,0.,0.,0.,0.,0.,0.,0.,0.,0.,0.,0.,0.,0.,0.,0.,0.,0.,0.,0.,0.,0.
 ,0.,0.,0.,0.,0.,0.,0.,0.,0.,0.,0.,0.,0.,0.,0.,0.,0.,0.,0.,0.,0.,0.,0.,
 0.,0.,0.,0.,0.,0.,0.,0.,0.,0.,0.,0.,0.,0.,0.,0.,0.,0.,0.,0.,0.,0.,0.,0
 .,0.,0.,0.,0.,0.,0.,0.,0.,0.,0.,0.,0.,0.,0.,0.,0.,0.,0.,0.,0.,0.,0.,0.
 ,0.,0.,0.,0.,0.,0.,0.,0.,0.,0.,0.,0.,0.,0.,0.,0.,0.,0.,0.,0.,0.,0.,0.,
 0.,0.,0.,0.,0.,0.,0.,0.,0.,0.,0.,0.,0.,0.,0.,0.,0.,0.,0.,0.,0.,0.,0.,0
 .,0.,0.,0.,0.,0.,0.,0.,0.,0.,0.,0.,0.,0.,0.,0.,0.,0.,0.,0.,0.,0.,0.,0.
 ,0.,0.,0.,0.,0.,0.,0.,0.,0.,0.,0.,0.,0.,0.,0.,0.,0.,0.,0.,0.,0.,0.,0.,
 0.,0.,0.,0.,0.,0.,0.,0.,0.,0.,0.,0.,0.,0.,0.,0.,0.,0.,0.,0.,0.,0.,0.,0
 .,0.,0.,0.,0.,0.,0.,0.,0.,0.,0.,0.,0.,0.,0.,0.,0.,0.,0.,0.,0.,0.,0.,0.
 ,0.,0.,0.,0.,0.,0.,0.,0.,0.,0.,0.,0.,0.,0.,0.,0.,0.,0.,0.,0.,0.,0.,0.,
 0.,0.,0.,0.,0.,0.,0.,0.,0.,0.,0.,0.,0.,0.,0.,0.,0.,0.,0.,0.,0.,0.,0.,0
 .,0.,0.,0.,0.,0.,0.,0.,0.,0.,0.,0.,0.,0.,0.,0.,0.,0.,0.,0.,0.,0.,0.,0.
 ,0.,0.,0.,0.,0.,0.,0.,0.,0.,0.,0.,0.,0.,0.,0.,0.,0.,0.,0.,0.,0.,0.,0.,
 0.,0.,0.,0.,0.,0.,0.,0.,0.,0.,0.,0.,0.,0.,0.,0.,0.,0.,0.,0.,0.,0.,0.,0
 .,0.,0.,0.,0.,0.,0.,0.,0.,0.,0.,0.,0.,0.,0.,0.,0.,0.,0.,0.,0.,0.,0.,0.
 ,0.,0.,0.,0.,0.,0.,0.,0.,0.,0.,0.,0.,0.,0.,0.,0.,0.,0.,0.,0.,0.,0.,0.,
 0.,0.,0.,0.,0.,0.,0.,0.,0.,0.,0.,0.,0.,0.,0.,0.,0.,0.,0.,0.,0.,0.,0.,0
 .,0.,0.,0.,0.,0.,0.,0.,0.,0.,0.,0.,0.,0.,0.,0.,0.,0.,0.,0.,0.,0.,0.,0.
 ,0.,0.,0.,0.,0.,0.,0.,0.,0.,0.,0.,0.,0.,0.,0.,0.,0.,0.,0.,0.,0.,0.,0.,
 0.,0.,0.,0.,0.,0.,0.,0.,0.,0.,0.,0.,0.,0.,0.,0.,0.,0.,0.,0.,0.,0.,0.,0
 .,0.,0.,0.,0.,0.,0.,0.,0.,0.,0.,0.,0.,0.,0.,0.,0.,0.,0.,0.,0.,0.,0.,0.
 ,0.,0.,0.,0.,0.,0.,0.,0.,0.,0.,0.,0.,0.,0.,0.,0.,0.,0.,0.,0.,0.,0.,0.,
 0.,0.,0.,0.,0.,0.,0.,0.,0.,0.,0.,0.,0.,0.,0.,0.,0.,0.,0.,0.,0.,0.,0.,0
 .,0.,0.,0.,0.,0.,0.,0.,0.,0.,0.,0.,0.,0.,0.,0.,0.,0.,0.,0.,0.,0.,0.,0.
 ,0.,0.,0.,0.,0.,0.,0.,0.,0.,0.,0.,0.,0.,0.,0.,0.,0.,0.,0.,0.,0.,0.,0.,
 0.,0.,0.,0.,0.,0.,0.,0.,0.,0.,0.,0.,0.,0.,0.,0.,0.,0.,0.,0.,0.,0.,0.,0
 .,0.,0.,0.,0.,0.,0.,0.,0.,0.,0.,0.,0.,0.,0.,0.,0.,0.,0.,0.,0.,0.,0.,0.
 ,0.,0.,0.,0.,0.,0.,0.,0.,0.,0.,0.,0.,0.,0.,0.,0.,0.,0.,0.,0.,0.,0.,0.,
 0.,0.,0.,0.,0.,0.,0.,0.,0.,0.,0.,0.,0.,0.,0.,0.,0.,0.,0.,0.,0.,0.,0.,0
 .,0.,0.,0.,0.,0.,0.,0.,0.,0.,0.,0.,0.,0.,0.,0.,0.,0.,0.,0.,0.,0.,0.,0.
 ,0.,0.,0.,0.,0.,0.,0.,0.,0.,0.,0.,0.,0.,0.,0.,0.,0.,0.,0.,0.,0.,0.,0.,
 0.,0.,0.,0.,0.,0.,0.,0.,0.,0.,0.,0.,0.,0.,0.,0.,0.,0.,0.,0.,0.,0.,0.,0
 .,0.,0.,0.,0.,0.,0.,0.,0.,0.,0.,0.,0.,0.,0.,0.,0.,0.,0.,0.,0.,0.,0.,0.
 ,0.,0.,0.,0.,0.,0.,0.,0.,0.,0.,0.,0.,0.,0.,0.,0.,0.,0.,0.,0.,0.,0.,0.,
 0.,0.,0.,0.,0.,0.,0.,0.,0.,0.,0.,0.,0.,0.,0.,0.,0.,0.,0.,0.,0.,0.,0.,0
 .,0.,0.,0.,0.,0.,0.,0.,0.,0.,0.,0.,0.,0.,0.,0.,0.,0.,0.,0.,0.,0.,0.,0.
 ,0.,0.,0.,0.,0.,0.,0.,0.,0.,0.,0.,0.,0.,0.,0.,0.,0.,0.,0.,0.,0.,0.,0.,
 0.,0.,0.,0.,0.,0.,0.,0.,0.,0.,0.,0.,0.,0.,0.,0.,0.,0.,0.,0.,0.,0.,0.,0
 .,0.,0.,0.,0.,0.,0.,0.,0.,0.,0.,0.,0.,0.,0.,0.,0.,0.,0.,0.,0.,0.,0.,0.
 ,0.,0.,0.,0.,0.,0.,0.,0.,0.,0.,0.,0.,0.,0.,0.,0.,0.,0.,0.,0.,0.,0.,0.,
 0.,0.,0.,0.,0.,0.,0.,0.,0.,0.,0.,0.,0.,0.,0.,0.,0.,0.,0.,0.,0.,0.,0.,0
 .,0.,0.,0.,0.,0.,0.,0.,0.,0.,0.,0.,0.,0.,0.,0.,0.,0.,0.,0.,0.,0.,0.,0.
 ,0.,0.,0.,0.,0.,0.,0.,0.,0.,0.,0.,0.,0.,0.,0.,0.,0.,0.,0.,0.,0.,0.,0.,
 0.,0.,0.,0.,0.,0.,0.,0.,0.,0.,0.,0.,0.,0.,0.,0.,0.,0.,0.,0.,0.,0.,0.,0
 .,0.,0.,0.,0.,0.,0.,0.,0.,0.,0.,0.,0.,0.,0.,0.,0.,0.,0.,0.,0.,0.,0.,0.
 ,0.,0.,0.,0.,0.,0.,0.,0.,0.,0.,0.,0.,0.,0.,0.,0.,0.,0.,0.,0.,0.,0.,0.,
 0.,0.,0.,0.,0.,0.,0.,0.,0.,0.,0.,0.,0.,0.,0.,0.,0.,0.,0.,0.,0.,0.,0.,0
 .,0.,0.,0.,0.,0.,0.,0.,0.,0.,0.,0.,0.,0.,0.,0.,0.,0.,0.,0.,0.,0.,0.,0.
 ,0.,0.,0.,0.,0.,0.,0.,0.,0.,0.,0.,0.,0.,0.,0.,0.,0.,0.,0.,0.,0.,0.,0.,
 0.,0.,0.,0.,0.,0.,0.,0.,0.,0.,0.,0.,0.,0.,0.,0.,0.,0.,0.,0.,0.,0.,0.,0
 .,0.,0.,0.,0.,0.,0.,0.,0.,0.,0.,0.,0.,0.,0.,0.,0.,0.,0.,0.,0.,0.364210
 60,0.,0.,0.,0.,0.,0.,0.,0.,0.,0.,0.,0.,0.,0.,0.,0.,0.,0.,0.,0.,0.,0.,0
 .,0.,0.,0.,0.,0.,0.,0.,0.,0.,0.,0.,0.,0.,0.,0.,0.,0.,0.,0.,0.,0.,0.,0.
 ,0.,0.,0.,0.,0.,0.,0.,0.,0.,0.,0.,0.,0.,0.,0.,0.,0.,0.,0.,0.,0.,0.,0.,
 0.,0.,0.,0.,0.,0.,0.,0.,0.,0.,0.,0.,0.,0.,0.,0.,0.,0.,0.,0.,0.,0.,0.,0
 .,0.,0.,0.,0.,0.,0.,0.,0.,0.,0.,0.,0.,0.,0.,0.,0.,0.,0.,0.,0.,0.,0.,0.
 ,0.,0.,0.,0.,0.,0.,0.,0.,0.,0.,0.,0.,0.,0.,0.,0.,0.,0.,0.,0.,0.,0.,0.,
 0.,0.,-0.01368759,0.35378655,0.,0.,0.,0.,0.,0.,0.,0.,0.,0.,0.,0.,0.,0.
 ,0.,0.,0.,0.,0.,0.,0.,0.,0.,0.,0.,0.,0.,0.,0.,0.,0.,0.,0.,0.,0.,0.,0.,
 0.,0.,0.,0.,0.,0.,0.,0.,0.,0.,0.,0.,0.,0.,0.,0.,0.,0.,0.,0.,0.,0.,0.,0
 .,0.,0.,0.,0.,0.,0.,0.,0.,0.,0.,0.,0.,0.,0.,0.,0.,0.,0.,0.,0.,0.,0.,0.
 ,0.,0.,0.,0.,0.,0.,0.,0.,0.,0.,0.,0.,0.,0.,0.,0.,0.,0.,0.,0.,0.,0.,0.,
 0.,0.,0.,0.,0.,0.,0.,0.,0.,0.,0.,0.,0.,0.,0.,0.,0.,0.,0.,0.,0.,0.,0.,0
 .,0.,0.,0.,0.,0.,0.,0.,0.,0.,0.,-0.04636569,-0.05973103,0.12983882,0.,
 0.,0.,0.,0.,0.,0.,0.,0.,0.,0.,0.,0.,0.,0.,0.,0.,0.,0.,0.,0.,0.,0.,0.,0
 .,0.,0.,0.,0.,0.,0.,0.,0.,0.,0.,0.,0.,0.,0.,0.,0.,0.,0.,0.,0.,0.,0.,0.
 ,0.,0.,0.,0.,0.,0.,0.,0.,0.,0.,0.,0.,0.,0.,0.,0.,0.,0.,0.,0.,0.,0.,0.,
 0.,0.,0.,0.,0.,0.,0.,0.,0.,0.,0.,0.,0.,0.,0.,0.,0.,0.,0.,0.,0.,0.,0.,0
 .,0.,0.,0.,0.,0.,0.,0.,0.,0.,0.,0.,0.,0.,0.,0.,0.,0.,0.,0.,0.,0.,0.,0.
 ,0.,0.,0.,0.,0.,0.,0.,0.,0.,0.,0.,0.,0.,0.,0.,0.,0.,0.,0.,0.,0.,0.,0.,
 -0.05094981,-0.01874776,0.01163519,0.02646880,0.,0.,0.,0.,0.,0.,0.,0.,
 0.,0.,0.,0.,0.,0.,0.,0.,0.,0.,0.,0.,0.,0.,0.,0.,0.,0.,0.,0.,0.,0.,0.,0
 .,0.,0.,0.,0.,0.,0.,0.,0.,0.,0.,0.,0.,0.,0.,0.,0.,0.,0.,0.,0.,0.,0.,0.
 ,0.,0.,0.,0.,0.,0.,0.,0.,0.,0.,0.,0.,0.,0.,0.,0.,0.,0.,0.,0.,0.,0.,0.,
 0.,0.,0.,0.,0.,0.,0.,0.,0.,0.,0.,0.,0.,0.,0.,0.,0.,0.,0.,0.,0.,0.,0.,0
 .,0.,0.,0.,0.,0.,0.,0.,0.,0.,0.,0.,0.,0.,0.,0.,0.,0.,0.,0.,0.,0.,0.,0.
 ,0.,0.,0.,0.,0.,0.,0.,0.,0.,0.,0.,0.,0.,0.,0.,0.,-0.02178704,-0.244718
 10,-0.01492354,0.01813060,0.26769868,0.,0.,0.,0.,0.,0.,0.,0.,0.,0.,0.,
 0.,0.,0.,0.,0.,0.,0.,0.,0.,0.,0.,0.,0.,0.,0.,0.,0.,0.,0.,0.,0.,0.,0.,0
 .,0.,0.,0.,0.,0.,0.,0.,0.,0.,0.,0.,0.,0.,0.,0.,0.,0.,0.,0.,0.,0.,0.,0.
 ,0.,0.,0.,0.,0.,0.,0.,0.,0.,0.,0.,0.,0.,0.,0.,0.,0.,0.,0.,0.,0.,0.,0.,
 0.,0.,0.,0.,0.,0.,0.,0.,0.,0.,0.,0.,0.,0.,0.,0.,0.,0.,0.,0.,0.,0.,0.,0
 .,0.,0.,0.,0.,0.,0.,0.,0.,0.,0.,0.,0.,0.,0.,0.,0.,0.,0.,0.,0.,0.,0.,0.
 ,0.,0.,0.,0.,0.,0.,0.,0.,0.,0.,0.,0.,0.,0.01782917,0.02578113,0.042319
 91,-0.00383145,-0.05793059,0.04330998,0.,0.,0.,0.,0.,0.,0.,0.,0.,0.,0.
 ,0.,0.,0.,0.,0.,0.,0.,0.,0.,0.,0.,0.,0.,0.,0.,0.,0.,0.,0.,0.,0.,0.,0.,
 0.,0.,0.,0.,0.,0.,0.,0.,0.,0.,0.,0.,0.,0.,0.,0.,0.,0.,0.,0.,0.,0.,0.,0
 .,0.,0.,0.,0.,0.,0.,0.,0.,0.,0.,0.,0.,0.,0.,0.,0.,0.,0.,0.,0.,0.,0.,0.
 ,0.,0.,0.,0.,0.,0.,0.,0.,0.,0.,0.,0.,0.,0.,0.,0.,0.,0.,0.,0.,0.,0.,0.,
 0.,0.,0.,0.,0.,0.,0.,0.,0.,0.,0.,0.,0.,0.,0.,0.,0.,0.,0.,0.,0.,0.,0.,0
 .,0.,0.,0.,0.,0.,0.,0.,0.,0.,0.,0.,0.,0.,-0.16167381,-0.03376163,0.136
 65069,0.00100122,-0.00203459,-0.00210826,0.21820507,0.,0.,0.,0.,0.,0.,
 0.,0.,0.,0.,0.,0.,0.,0.,0.,0.,0.,0.,0.,0.,0.,0.,0.,0.,0.,0.,0.,0.,0.,0
 .,0.,0.,0.,0.,0.,0.,0.,0.,0.,0.,0.,0.,0.,0.,0.,0.,0.,0.,0.,0.,0.,0.,0.
 ,0.,0.,0.,0.,0.,0.,0.,0.,0.,0.,0.,0.,0.,0.,0.,0.,0.,0.,0.,0.,0.,0.,0.,
 0.,0.,0.,0.,0.,0.,0.,0.,0.,0.,0.,0.,0.,0.,0.,0.,0.,0.,0.,0.,0.,0.,0.,0
 .,0.,0.,0.,0.,0.,0.,0.,0.,0.,0.,0.,0.,0.,0.,0.,0.,0.,0.,0.,0.,0.,0.,0.
 ,0.,0.,0.,0.,0.,0.,0.,0.,0.,0.,0.,0.,0.,0.,0.,0.,0.,0.,-0.03982448,-0.
 05538661,0.07051910,-0.03052650,-0.00732678,0.01718948,0.08488059,0.05
 825003,0.,0.,0.,0.,0.,0.,0.,0.,0.,0.,0.,0.,0.,0.,0.,0.,0.,0.,0.,0.,0.,
 0.,0.,0.,0.,0.,0.,0.,0.,0.,0.,0.,0.,0.,0.,0.,0.,0.,0.,0.,0.,0.,0.,0.,0
 .,0.,0.,0.,0.,0.,0.,0.,0.,0.,0.,0.,0.,0.,0.,0.,0.,0.,0.,0.,0.,0.,0.,0.
 ,0.,0.,0.,0.,0.,0.,0.,0.,0.,0.,0.,0.,0.,0.,0.,0.,0.,0.,0.,0.,0.,0.,0.,
 0.,0.,0.,0.,0.,0.,0.,0.,0.,0.,0.,0.,0.,0.,0.,0.,0.,0.,0.,0.,0.,0.,0.,0
 .,0.,0.,0.,0.,0.,0.,0.,0.,0.,0.,0.,0.,0.,0.,0.,0.,0.,0.,0.,0.,0.,0.,0.
 ,0.,0.,0.,0.09262656,0.04790535,-0.02865455,0.00012533,0.00434988,0.00
 106088,-0.06736357,-0.02762775,0.05434337,0.,0.,0.,0.,0.,0.,0.,0.,0.,0
 .,0.,0.,0.,0.,0.,0.,0.,0.,0.,0.,0.,0.,0.,0.,0.,0.,0.,0.,0.,0.,0.,0.,0.
 ,0.,0.,0.,0.,0.,0.,0.,0.,0.,0.,0.,0.,0.,0.,0.,0.,0.,0.,0.,0.,0.,0.,0.,
 0.,0.,0.,0.,0.,0.,0.,0.,0.,0.,0.,0.,0.,0.,0.,0.,0.,0.,0.,0.,0.,0.,0.,0
 .,0.,0.,0.,0.,0.,0.,0.,0.,0.,0.,0.,0.,0.,0.,0.,0.,0.,0.,0.,0.,0.,0.,0.
 ,0.,0.,0.,0.,0.,0.,0.,0.,0.,0.,0.,0.,0.,0.,0.,0.,0.,0.,0.,0.,0.,0.,0.,
 0.,0.,0.,0.,0.,0.,0.,0.,0.,0.,0.,0.,0.,0.,0.,-0.18779049,0.07510078,-0
 .05871356,0.00815600,-0.00085367,0.00351169,-0.02159132,0.01517208,-0.
 00338750,0.19705625,0.,0.,0.,0.,0.,0.,0.,0.,0.,0.,0.,0.,0.,0.,0.,0.,0.
 ,0.,0.,0.,0.,0.,0.,0.,0.,0.,0.,0.,0.,0.,0.,0.,0.,0.,0.,0.,0.,0.,0.,0.,
 0.,0.,0.,0.,0.,0.,0.,0.,0.,0.,0.,0.,0.,0.,0.,0.,0.,0.,0.,0.,0.,0.,0.,0
 .,0.,0.,0.,0.,0.,0.,0.,0.,0.,0.,0.,0.,0.,0.,0.,0.,0.,0.,0.,0.,0.,0.,0.
 ,0.,0.,0.,0.,0.,0.,0.,0.,0.,0.,0.,0.,0.,0.,0.,0.,0.,0.,0.,0.,0.,0.,0.,
 0.,0.,0.,0.,0.,0.,0.,0.,0.,0.,0.,0.,0.,0.,0.,0.,0.,0.,0.,0.,0.,0.,0.,0
 .,0.,0.,0.,0.,0.,0.,0.,0.08297025,-0.08175120,0.06741805,0.03166681,-0
 .01526293,0.00522319,-0.01096113,0.00895957,-0.00646220,-0.11632761,0.
 10288125,0.,0.,0.,0.,0.,0.,0.,0.,0.,0.,0.,0.,0.,0.,0.,0.,0.,0.,0.,0.,0
 .,0.,0.,0.,0.,0.,0.,0.,0.,0.,0.,0.,0.,0.,0.,0.,0.,0.,0.,0.,0.,0.,0.,0.
 ,0.,0.,0.,0.,0.,0.,0.,0.,0.,0.,0.,0.,0.,0.,0.,0.,0.,0.,0.,0.,0.,0.,0.,
 0.,0.,0.,0.,0.,0.,0.,0.,0.,0.,0.,0.,0.,0.,0.,0.,0.,0.,0.,0.,0.,0.,0.,0
 .,0.,0.,0.,0.,0.,0.,0.,0.,0.,0.,0.,0.,0.,0.,0.,0.,0.,0.,0.,0.,0.,0.,0.
 ,0.,0.,0.,0.,0.,0.,0.,0.,0.,0.,0.,0.,0.,0.,0.,0.,0.,0.,0.,0.,0.,0.,0.,
 0.,0.,0.,0.,-0.02443122,0.04313854,0.02141410,-0.00054969,0.00370224,-
 0.00044413,0.01194108,-0.01218020,0.00682876,0.00686554,-0.00328097,0.
 03120857,0.,0.,0.,0.,0.,0.,0.,0.,0.,0.,0.,0.,0.,0.,0.,0.,0.,0.,0.,0.,0
 .,0.,0.,0.,0.,0.,0.,0.,0.,0.,0.,0.,0.,0.,0.,0.,0.,0.,0.,0.,0.,0.,0.,0.
 ,0.,0.,0.,0.,0.,0.,0.,0.,0.,0.,0.,0.,0.,0.,0.,0.,0.,0.,0.,0.,0.,0.,0.,
 0.,0.,0.,0.,0.,0.,0.,0.,0.,0.,0.,0.,0.,0.,0.,0.,0.,0.,0.,0.,0.,0.,0.,0
 .,0.,0.,0.,0.,0.,0.,0.,0.,0.,0.,0.,0.,0.,0.,0.,0.,0.,0.,0.,0.,0.,0.,0.
 ,0.,0.,0.,0.,0.,0.,0.,0.,0.,0.,0.,0.,0.,0.,0.,0.,0.,0.,0.,0.,0.,0.,0.,
 0.,0.,0.,0.,0.,0.,0.,0.,0.,0.,0.,0.,0.,0.,0.,0.,0.,0.,0.,0.,0.,0.,0.,0
 .,0.,0.,0.,0.,0.,0.,0.,0.,0.,0.,0.,0.,0.,0.,0.,0.,0.,0.,0.,0.,0.,0.,0.
 ,0.,0.,0.,0.,0.,0.,0.,0.,0.,0.,0.,0.,0.,0.,0.,0.,0.,0.,0.,0.,0.,0.,0.,
 0.,0.,0.,0.,0.,0.,0.,0.,0.,0.,0.,0.,0.,0.,0.,0.,0.,0.,0.,0.,0.,0.,0.,0
 .,0.,0.,0.,0.,0.,0.,0.,0.,0.,0.,0.,0.,0.,0.,0.,0.,0.,0.,0.,0.,0.,0.,0.
 ,0.,0.,0.,0.,0.,0.,0.,0.,0.,0.,0.,0.,0.,0.,0.,0.,0.,0.,0.,0.,0.,0.,0.,
 0.,0.,0.,0.,0.,0.,0.,0.,0.,0.,0.,0.,0.,0.,0.,0.,0.,0.,0.,0.,0.,0.,0.,0
 .,0.,0.,0.,0.,0.,0.,0.,0.,0.,0.,0.,0.,0.,0.,0.,0.,0.,0.,0.,0.,0.,0.,0.
 ,0.,0.,0.,0.,0.,0.,0.,0.,0.,0.,0.,0.,0.,0.,0.,0.,0.,0.,0.,0.,0.,0.,0.,
 0.,0.,0.,0.,0.,0.,0.,0.,0.,0.,0.,0.,0.,0.,0.,0.,0.,0.,0.,0.,0.,0.,0.,0
 .,0.,0.,0.,0.,0.,0.,0.,0.,0.,0.,0.,0.,0.,0.,0.,0.,0.,0.,0.,0.,0.,0.,0.
 ,0.,0.,0.,0.,0.,0.,0.,0.,0.,0.,0.,0.,0.,0.,0.,0.,0.,0.,0.,0.,0.,0.,0.,
 0.,0.,0.,0.,0.,0.,0.,0.,0.,0.,0.,0.,0.,0.,0.,0.,0.,0.,0.,0.,0.,0.,0.,0
 .,0.,0.,0.,0.,0.,0.,0.,0.,0.,0.,0.,0.,0.,0.,0.,0.,0.,0.,0.,0.,0.,0.,0.
 ,0.||0.,0.,0.,0.,0.,0.,0.,0.,0.,0.,0.,0.,0.,0.,0.,0.,0.,0.,0.,0.,0.,0.
 ,0.,0.,0.,0.,0.,0.,0.,0.,0.,0.,0.,0.,0.,0.,0.,0.,0.,0.,0.,0.,0.,0.,0.,
 0.,0.,0.,0.,0.,0.,0.,0.,0.,0.,0.,0.,0.,0.,0.,0.,0.,0.,0.,0.,0.,0.,0.,0
 .,0.,0.,0.,0.,0.,0.,0.,0.,0.,0.,0.,0.,0.,0.,0.,0.,0.,0.,0.,0.,0.,0.,0.
 ,0.,0.,0.,0.,0.,0.,0.,0.,0.,0.,0.,0.,0.,0.,0.,0.,0.,0.,0.,0.,0.,0.,0.,
 0.,0.,0.,0.,0.,0.,0.,0.,0.,0.,0.,0.,0.,0.,0.,0.,0.,0.,0.,0.,0.,0.,0.,0
 .,0.,0.,-0.00652281,-0.00937993,-0.05428449,-0.00583285,0.04278487,-0.
 06720488,-0.06771625,-0.04005341,-0.03649085,0.04107838,-0.04828280,-0
 .05350247,0.,0.,0.|||@


 In the beginning there was nothing, which exploded.
 Job cpu time:       0 days  0 hours  4 minutes 16.0 seconds.
 File lengths (MBytes):  RWF=   1714 Int=      0 D2E=      0 Chk=     11 Scr=      1
 Normal termination of Gaussian 09 at Sun Jan 05 16:34:45 2025.
