 Entering Link 1 = C:\Gaussian\G09W\l1.exe PID=     34056.
  
 Copyright (c) 1988,1990,1992,1993,1995,1998,2003,2009,2013,
            Gaussian, Inc.  All Rights Reserved.
  
 This is part of the Gaussian(R) 09 program.  It is based on
 the Gaussian(R) 03 system (copyright 2003, Gaussian, Inc.),
 the Gaussian(R) 98 system (copyright 1998, Gaussian, Inc.),
 the Gaussian(R) 94 system (copyright 1995, Gaussian, Inc.),
 the Gaussian 92(TM) system (copyright 1992, Gaussian, Inc.),
 the Gaussian 90(TM) system (copyright 1990, Gaussian, Inc.),
 the Gaussian 88(TM) system (copyright 1988, Gaussian, Inc.),
 the Gaussian 86(TM) system (copyright 1986, Carnegie Mellon
 University), and the Gaussian 82(TM) system (copyright 1983,
 Carnegie Mellon University). Gaussian is a federally registered
 trademark of Gaussian, Inc.
  
 This software contains proprietary and confidential information,
 including trade secrets, belonging to Gaussian, Inc.
  
 This software is provided under written license and may be
 used, copied, transmitted, or stored only in accord with that
 written license.
  
 The following legend is applicable only to US Government
 contracts under FAR:
  
                    RESTRICTED RIGHTS LEGEND
  
 Use, reproduction and disclosure by the US Government is
 subject to restrictions as set forth in subparagraphs (a)
 and (c) of the Commercial Computer Software - Restricted
 Rights clause in FAR 52.227-19.
  
 Gaussian, Inc.
 340 Quinnipiac St., Bldg. 40, Wallingford CT 06492
  
  
 ---------------------------------------------------------------
 Warning -- This program may not be used in any manner that
 competes with the business of Gaussian, Inc. or will provide
 assistance to any competitor of Gaussian, Inc.  The licensee
 of this program is prohibited from giving any competitor of
 Gaussian, Inc. access to this program.  By using this program,
 the user acknowledges that Gaussian, Inc. is engaged in the
 business of creating and licensing software in the field of
 computational chemistry and represents and warrants to the
 licensee that it is not a competitor of Gaussian, Inc. and that
 it will not use this program in any manner prohibited above.
 ---------------------------------------------------------------
  

 Cite this work as:
 Gaussian 09, Revision D.01,
 M. J. Frisch, G. W. Trucks, H. B. Schlegel, G. E. Scuseria, 
 M. A. Robb, J. R. Cheeseman, G. Scalmani, V. Barone, B. Mennucci, 
 G. A. Petersson, H. Nakatsuji, M. Caricato, X. Li, H. P. Hratchian, 
 A. F. Izmaylov, J. Bloino, G. Zheng, J. L. Sonnenberg, M. Hada, 
 M. Ehara, K. Toyota, R. Fukuda, J. Hasegawa, M. Ishida, T. Nakajima, 
 Y. Honda, O. Kitao, H. Nakai, T. Vreven, J. A. Montgomery, Jr., 
 J. E. Peralta, F. Ogliaro, M. Bearpark, J. J. Heyd, E. Brothers, 
 K. N. Kudin, V. N. Staroverov, T. Keith, R. Kobayashi, J. Normand, 
 K. Raghavachari, A. Rendell, J. C. Burant, S. S. Iyengar, J. Tomasi, 
 M. Cossi, N. Rega, J. M. Millam, M. Klene, J. E. Knox, J. B. Cross, 
 V. Bakken, C. Adamo, J. Jaramillo, R. Gomperts, R. E. Stratmann, 
 O. Yazyev, A. J. Austin, R. Cammi, C. Pomelli, J. W. Ochterski, 
 R. L. Martin, K. Morokuma, V. G. Zakrzewski, G. A. Voth, 
 P. Salvador, J. J. Dannenberg, S. Dapprich, A. D. Daniels, 
 O. Farkas, J. B. Foresman, J. V. Ortiz, J. Cioslowski, 
 and D. J. Fox, Gaussian, Inc., Wallingford CT, 2013.
 
 ******************************************
 Gaussian 09:  IA32W-G09RevD.01 24-Apr-2013
                08-Mar-2026 
 ******************************************
 %nprocshared=2
 Will use up to    2 processors via shared memory.
 %mem=1GB
 %chk=C:\Users\User\Desktop\IMRG\Thesis\Pending Journal Work\Pristine MoS2\Pristi
 ne MoS2_freq.chk
 -----------------------------------
 # freq pm6 scf=qc geom=connectivity
 -----------------------------------
 1/10=4,30=1,38=1,57=2/1,3;
 2/12=2,17=6,18=5,40=1/2;
 3/5=2,16=1,25=1,41=3900000,71=2,140=1/1,2,3;
 4/35=1/1;
 5/5=2,8=3,35=1,38=5,98=1/8;
 8/6=4,10=90,11=11/1;
 11/6=1,8=1,9=11,15=111,16=1/1,2,10;
 10/6=1/2;
 6/7=2,8=2,9=2,10=2,18=1,28=1/1;
 7/8=1,10=1,25=1/1,2,3,16;
 1/10=4,30=1/3;
 99//99;
 ------------------
 Pristine MoS2_freq
 ------------------
 Symbolic Z-matrix:
 Charge =  0 Multiplicity = 1
 Mo                   -1    0.80328  -4.78547  -0.00933 
 S                    -1   -1.05001  -4.78547   1.54209 
 S                    -1   -1.02719  -4.78547  -1.5876 
 Mo                   -1    3.56611  -3.19032   0.01082 
 Mo                   -1    6.32893  -1.59516   0.03096 
 Mo                   -1    9.09175  0.         0.0511 
 S                    -1    1.71282  -3.19032   1.56223 
 S                    -1    4.47564  -1.59516   1.58238 
 S                    -1    7.23846  0.         1.60252 
 S                    -1    1.73563  -3.19032  -1.56745 
 S                    -1    4.49846  -1.59516  -1.54731 
 S                    -1    7.26128  0.        -1.52717 
 Mo                   -1   -1.95954  -3.19031  -0.02947 
 Mo                   -1   -4.72236  -1.59516  -0.04961 
 Mo                   -1   -7.48518   0.       -0.06976 
 S                    -1   -3.81283  -3.19031   1.52195 
 S                    -1   -6.57565  -1.59516   1.5018 
 S                    -1   -9.33847   0.        1.48166 
 S                    -1   -3.79001  -3.19031  -1.60774 
 S                    -1   -6.55283  -1.59516  -1.62788 
 S                    0    -9.81857  -0.00003  -0.52822 
 Mo                   -1    0.80328  -1.59516  -0.00933 
 Mo                   -1   -1.95954   0.       -0.02947 
 Mo                   -1   -4.72236   1.59516  -0.04961 
 Mo                   -1    3.56611  0.         0.01082 
 Mo                   -1    0.80329   1.59516  -0.00933 
 Mo                   -1   -1.95954   3.19032  -0.02947 
 Mo                   -1    6.32893   1.59516   0.03096 
 Mo                   -1    3.56611   3.19032   0.01082 
 Mo                   -1    0.80329   4.78547  -0.00933 
 S                    -1   -1.05001  -1.59516   1.54209 
 S                    -1   -3.81283   0.        1.52195 
 S                    -1   -6.57565   1.59516   1.5018 
 S                    -1    1.71282  0.         1.56223 
 S                    -1   -1.05      1.59516   1.54209 
 S                    -1   -3.81283   3.19032   1.52195 
 S                    -1    4.47564   1.59516   1.58238 
 S                    -1    1.71282   3.19032   1.56223 
 S                    -1   -1.05      4.78547   1.54209 
 S                    -1   -1.02719  -1.59516  -1.5876 
 S                    -1   -3.79001   0.       -1.60774 
 S                    -1   -6.55283   1.59516  -1.62788 
 S                    -1    1.73563  0.        -1.56745 
 S                    -1   -1.02719   1.59516  -1.5876 
 S                    -1   -3.79001   3.19032  -1.60774 
 S                    -1    4.49846   1.59516  -1.54731 
 S                    -1    1.73564   3.19032  -1.56745 
 S                    -1   -1.02719   4.78547  -1.5876 
 

 GradGradGradGradGradGradGradGradGradGradGradGradGradGradGradGradGradGrad
 Berny optimization.
 Initialization pass.
 Trust Radius=3.00D-01 FncErr=1.00D-07 GrdErr=1.00D-07
 Number of steps in this run=      2 maximum allowed number of steps=      2.
 GradGradGradGradGradGradGradGradGradGradGradGradGradGradGradGradGradGrad

                          Input orientation:                          
 ---------------------------------------------------------------------
 Center     Atomic      Atomic             Coordinates (Angstroms)
 Number     Number       Type             X           Y           Z
 ---------------------------------------------------------------------
      1         42           0        0.803284   -4.785474   -0.009325
      2         16           0       -1.050006   -4.785473    1.542089
      3         16           0       -1.027188   -4.785473   -1.587597
      4         42           0        3.566105   -3.190317    0.010818
      5         42           0        6.328927   -1.595159    0.030962
      6         42           0        9.091749   -0.000002    0.051105
      7         16           0        1.712816   -3.190316    1.562232
      8         16           0        4.475637   -1.595159    1.582375
      9         16           0        7.238459   -0.000002    1.602519
     10         16           0        1.735634   -3.190316   -1.567454
     11         16           0        4.498455   -1.595159   -1.547310
     12         16           0        7.261277   -0.000002   -1.527167
     13         42           0       -1.959537   -3.190315   -0.029469
     14         42           0       -4.722358   -1.595156   -0.049612
     15         42           0       -7.485178    0.000003   -0.069756
     16         16           0       -3.812827   -3.190314    1.521945
     17         16           0       -6.575648   -1.595156    1.501802
     18         16           0       -9.338468    0.000003    1.481658
     19         16           0       -3.790009   -3.190315   -1.607741
     20         16           0       -6.552829   -1.595156   -1.627884
     21         16           0       -9.818566   -0.000026   -0.528223
     22         42           0        0.803285   -1.595158   -0.009325
     23         42           0       -1.959536    0.000001   -0.029469
     24         42           0       -4.722357    1.595160   -0.049612
     25         42           0        3.566106   -0.000001    0.010818
     26         42           0        0.803286    1.595158   -0.009325
     27         42           0       -1.959535    3.190317   -0.029469
     28         42           0        6.328928    1.595157    0.030961
     29         42           0        3.566107    3.190315    0.010818
     30         42           0        0.803287    4.785474   -0.009326
     31         16           0       -1.050005   -1.595157    1.542089
     32         16           0       -3.812826    0.000002    1.521945
     33         16           0       -6.575647    1.595160    1.501802
     34         16           0        1.712816    0.000000    1.562232
     35         16           0       -1.050004    1.595159    1.542089
     36         16           0       -3.812825    3.190317    1.521945
     37         16           0        4.475638    1.595157    1.582375
     38         16           0        1.712817    3.190316    1.562232
     39         16           0       -1.050003    4.785475    1.542088
     40         16           0       -1.027187   -1.595157   -1.587597
     41         16           0       -3.790008    0.000001   -1.607741
     42         16           0       -6.552829    1.595160   -1.627884
     43         16           0        1.735635    0.000000   -1.567454
     44         16           0       -1.027186    1.595159   -1.587597
     45         16           0       -3.790007    3.190317   -1.607741
     46         16           0        4.498456    1.595157   -1.547310
     47         16           0        1.735636    3.190316   -1.567454
     48         16           0       -1.027185    4.785475   -1.587597
 ---------------------------------------------------------------------
                    Distance matrix (angstroms):
                    1          2          3          4          5
     1  Mo   0.000000
     2  S    2.416934   0.000000
     3  S    2.416934   3.129769   0.000000
     4  Mo   3.190316   5.118379   5.118379   0.000000
     5  Mo   6.380632   8.179869   8.179869   3.190316   0.000000
     6  Mo   9.570948  11.312779  11.312779   6.380632   3.190316
     7  S    2.416934   3.190316   4.469180   2.416934   5.118379
     8  S    5.118379   6.380632   7.106892   2.416934   2.416934
     9  S    8.179869   9.570948  10.069682   5.118379   2.416934
    10  S    2.416934   4.469180   3.190316   2.416934   5.118379
    11  S    5.118379   7.106892   6.380632   2.416934   2.416934
    12  S    8.179869  10.069682   9.570948   5.118379   2.416934
    13  Mo   3.190316   2.416934   2.416934   5.525789   8.440783
    14  Mo   6.380632   5.118379   5.118379   8.440783  11.051579
    15  Mo   9.570948   8.179869   8.179869  11.502848  13.906265
    16  S    5.118379   3.190316   4.469180   7.532075  10.374137
    17  S    8.179869   6.380632   7.106892  10.374137  12.988126
    18  S   11.312779   9.570948  10.069682  13.374212  15.815067
    19  S    5.118379   4.469180   3.190316   7.532075  10.374137
    20  S    8.179869   7.106892   6.380632  10.374137  12.988126
    21  S   11.661624  10.201684  10.065342  13.770184  16.235723
    22  Mo   3.190316   4.002460   4.002460   3.190316   5.525789
    23  Mo   5.525789   5.118379   5.118379   6.380632   8.440783
    24  Mo   8.440783   7.532075   7.532075   9.570948  11.502848
    25  Mo   5.525789   6.823052   6.823052   3.190316   3.190316
    26  Mo   6.380632   6.823052   6.823052   5.525789   6.380632
    27  Mo   8.440783   8.179869   8.179869   8.440783   9.570948
    28  Mo   8.440783   9.871404   9.871404   5.525789   3.190316
    29  Mo   8.440783   9.341654   9.341654   6.380632   5.525789
    30  Mo   9.570948   9.871404   9.871404   8.440783   8.440783
    31  S    4.002460   3.190316   4.469180   5.118379   7.532075
    32  S    6.823052   5.525789   6.350575   8.179869  10.374137
    33  S    9.871404   8.440783   9.002348  11.312779  13.374212
    34  S    5.118379   5.525789   6.350575   4.002460   5.118379
    35  S    6.823052   6.380632   7.106892   6.823052   8.179869
    36  S    9.341654   8.440783   9.002348   9.871404  11.312779
    37  S    7.532075   8.440783   9.002348   5.118379   4.002460
    38  S    8.179869   8.440783   9.002348   6.823052   6.823051
    39  S    9.871404   9.570948  10.069682   9.341654   9.871404
    40  S    4.002460   4.469180   3.190316   5.118379   7.532075
    41  S    6.823052   6.350575   5.525789   8.179869  10.374137
    42  S    9.871404   9.002348   8.440783  11.312779  13.374212
    43  S    5.118379   6.350575   5.525789   4.002460   5.118379
    44  S    6.823052   7.106892   6.380632   6.823052   8.179869
    45  S    9.341654   9.002348   8.440783   9.871404  11.312779
    46  S    7.532075   9.002348   8.440783   5.118379   4.002460
    47  S    8.179869   9.002348   8.440783   6.823052   6.823051
    48  S    9.871404  10.069682   9.570948   9.341654   9.871404
                    6          7          8          9         10
     6  Mo   0.000000
     7  S    8.179869   0.000000
     8  S    5.118379   3.190316   0.000000
     9  S    2.416934   6.380632   3.190316   0.000000
    10  S    8.179869   3.129769   4.469180   7.106892   0.000000
    11  S    5.118379   4.469180   3.129769   4.469180   3.190316
    12  S    2.416934   7.106892   4.469180   3.129769   6.380632
    13  Mo  11.502848   4.002460   6.823052   9.871404   4.002460
    14  Mo  13.906265   6.823052   9.341654  12.179293   6.823052
    15  Mo  16.577368   9.871404  12.179293  14.818299   9.871404
    16  S   13.374212   5.525789   8.440783  11.502848   6.350575
    17  S   15.815067   8.440783  11.051579  13.906265   9.002348
    18  S   18.485654  11.502848  13.906265  16.577368  11.921030
    19  S   13.374212   6.350575   9.002348  11.921030   5.525789
    20  S   15.815067   9.002348  11.486202  14.254110   8.440783
    21  S   18.919187  12.145811  14.536964  17.189595  12.031521
    22  Mo   8.440783   2.416934   4.002460   6.823051   2.416934
    23  Mo  11.051579   5.118379   6.823052   9.341654   5.118379
    24  Mo  13.906265   8.179869   9.871404  12.179293   8.179869
    25  Mo   5.525789   4.002460   2.416934   4.002460   4.002460
    26  Mo   8.440783   5.118379   5.118379   6.823051   5.118379
    27  Mo  11.502848   7.532075   8.179869   9.871404   7.532075
    28  Mo   3.190316   6.823051   4.002460   2.416934   6.823051
    29  Mo   6.380632   6.823052   5.118379   5.118379   6.823052
    30  Mo   9.570948   8.179869   7.532075   8.179869   8.179869
    31  S   10.374137   3.190316   5.525789   8.440783   4.469180
    32  S   12.988126   6.380632   8.440783  11.051579   7.106892
    33  S   15.815067   9.570948  11.502848  13.906265  10.069682
    34  S    7.532075   3.190316   3.190316   5.525789   4.469180
    35  S   10.374137   5.525789   6.380632   8.440783   6.350575
    36  S   13.374212   8.440783   9.570948  11.502848   9.002348
    37  S    5.118379   5.525789   3.190316   3.190316   6.350575
    38  S    8.179869   6.380632   5.525789   6.380632   7.106892
    39  S   11.312779   8.440783   8.440783   9.570948   9.002348
    40  S   10.374137   4.469180   6.350575   9.002348   3.190316
    41  S   12.988126   7.106892   9.002348  11.486202   6.380632
    42  S   15.815067  10.069682  11.921030  14.254110   9.570948
    43  S    7.532075   4.469180   4.469180   6.350575   3.190316
    44  S   10.374137   6.350575   7.106892   9.002348   5.525789
    45  S   13.374212   9.002348  10.069682  11.921030   8.440783
    46  S    5.118379   6.350575   4.469180   4.469180   5.525789
    47  S    8.179869   7.106892   6.350575   7.106892   6.380632
    48  S   11.312779   9.002348   9.002348  10.069682   8.440783
                   11         12         13         14         15
    11  S    0.000000
    12  S    3.190316   0.000000
    13  Mo   6.823052   9.871404   0.000000
    14  Mo   9.341654  12.179294   3.190316   0.000000
    15  Mo  12.179293  14.818300   6.380632   3.190316   0.000000
    16  S    9.002348  11.921030   2.416934   2.416934   5.118379
    17  S   11.486202  14.254110   5.118379   2.416934   2.416934
    18  S   14.254110  16.870228   8.179869   5.118379   2.416934
    19  S    8.440783  11.502848   2.416934   2.416934   5.118379
    20  S   11.051579  13.906265   5.118379   2.416934   2.416934
    21  S   14.441610  17.109031   8.496531   5.361423   2.378002
    22  Mo   4.002460   6.823052   3.190316   5.525789   8.440783
    23  Mo   6.823052   9.341654   3.190316   3.190316   5.525789
    24  Mo   9.871404  12.179294   5.525789   3.190316   3.190316
    25  Mo   2.416934   4.002460   6.380632   8.440783  11.051579
    26  Mo   5.118379   6.823052   5.525789   6.380632   8.440783
    27  Mo   8.179869   9.871404   6.380632   5.525789   6.380632
    28  Mo   4.002460   2.416934   9.570948  11.502848  13.906265
    29  Mo   5.118379   5.118379   8.440783   9.570948  11.502848
    30  Mo   7.532075   8.179869   8.440783   8.440783   9.570948
    31  S    6.350575   9.002348   2.416934   4.002460   6.823051
    32  S    9.002348  11.486202   4.002460   2.416934   4.002460
    33  S   11.921030  14.254110   6.823052   4.002460   2.416934
    34  S    4.469180   6.350575   5.118379   6.823052   9.341654
    35  S    7.106892   9.002348   5.118379   5.118379   6.823051
    36  S   10.069682  11.921030   6.823052   5.118379   5.118379
    37  S    4.469180   4.469180   8.179869   9.871404  12.179293
    38  S    6.350575   7.106892   7.532075   8.179869   9.871404
    39  S    9.002348  10.069682   8.179869   7.532075   8.179869
    40  S    5.525789   8.440783   2.416934   4.002460   6.823051
    41  S    8.440783  11.051579   4.002460   2.416934   4.002460
    42  S   11.502848  13.906265   6.823052   4.002460   2.416934
    43  S    3.190316   5.525789   5.118379   6.823052   9.341654
    44  S    6.380632   8.440783   5.118379   5.118379   6.823051
    45  S    9.570948  11.502848   6.823052   5.118379   5.118379
    46  S    3.190316   3.190316   8.179869   9.871404  12.179293
    47  S    5.525789   6.380632   7.532075   8.179869   9.871404
    48  S    8.440783   9.570948   8.179869   7.532075   8.179869
                   16         17         18         19         20
    16  S    0.000000
    17  S    3.190316   0.000000
    18  S    6.380632   3.190316   0.000000
    19  S    3.129769   4.469180   7.106892   0.000000
    20  S    4.469180   3.129769   4.469180   3.190316   0.000000
    21  S    7.102819   4.145113   2.066426   6.905564   3.797200
    22  Mo   5.118379   7.532075  10.374137   5.118379   7.532075
    23  Mo   4.002460   5.118379   7.532075   4.002460   5.118379
    24  Mo   5.118379   4.002460   5.118379   5.118379   4.002460
    25  Mo   8.179869  10.374137  12.988126   8.179869  10.374137
    26  Mo   6.823052   8.179869  10.374137   6.823052   8.179869
    27  Mo   6.823052   6.823052   8.179869   6.823052   6.823052
    28  Mo  11.312779  13.374212  15.815067  11.312779  13.374212
    29  Mo   9.871404  11.312779  13.374212   9.871404  11.312779
    30  Mo   9.341654   9.871404  11.312779   9.341654   9.871404
    31  S    3.190316   5.525789   8.440783   4.469180   6.350575
    32  S    3.190316   3.190316   5.525789   4.469180   4.469180
    33  S    5.525789   3.190316   3.190316   6.350575   4.469180
    34  S    6.380632   8.440783  11.051579   7.106892   9.002348
    35  S    5.525789   6.380632   8.440783   6.350575   7.106892
    36  S    6.380632   5.525789   6.380632   7.106892   6.350575
    37  S    9.570948  11.502848  13.906265  10.069682  11.921030
    38  S    8.440783   9.570948  11.502848   9.002348  10.069682
    39  S    8.440783   8.440783   9.570948   9.002348   9.002348
    40  S    4.469180   6.350575   9.002348   3.190316   5.525789
    41  S    4.469180   4.469180   6.350575   3.190316   3.190316
    42  S    6.350575   4.469180   4.469180   5.525789   3.190316
    43  S    7.106892   9.002348  11.486202   6.380632   8.440783
    44  S    6.350575   7.106892   9.002348   5.525789   6.380632
    45  S    7.106892   6.350575   7.106892   6.380632   5.525789
    46  S   10.069682  11.921030  14.254110   9.570948  11.502848
    47  S    9.002348  10.069682  11.921030   8.440783   9.570948
    48  S    9.002348   9.002348  10.069682   8.440783   8.440783
                   21         22         23         24         25
    21  S    0.000000
    22  Mo  10.753484   0.000000
    23  Mo   7.874841   3.190316   0.000000
    24  Mo   5.361440   6.380632   3.190316   0.000000
    25  Mo  13.395523   3.190316   5.525789   8.440783   0.000000
    26  Mo  10.753493   3.190316   3.190316   5.525789   3.190316
    27  Mo   8.496553   5.525789   3.190316   3.190316   6.380632
    28  Mo  16.235728   6.380632   8.440783  11.051579   3.190316
    29  Mo  13.770197   5.525789   6.380632   8.440783   3.190316
    30  Mo  11.661648   6.380632   5.525789   6.380632   5.525789
    31  S    9.149771   2.416934   2.416934   5.118379   5.118379
    32  S    6.346031   5.118379   2.416934   2.416934   7.532075
    33  S    4.145136   8.179869   5.118379   2.416934  10.374137
    34  S   11.719334   2.416934   4.002460   6.823052   2.416934
    35  S    9.149781   4.002460   2.416934   4.002460   5.118379
    36  S    7.102845   6.823052   4.002460   2.416934   8.179869
    37  S   14.536971   5.118379   6.823052   9.341654   2.416934
    38  S   12.145826   5.118379   5.118379   6.823052   4.002460
    39  S   10.201711   6.823052   5.118379   5.118379   6.823052
    40  S    8.997504   2.416934   2.416934   5.118379   5.118379
    41  S    6.124449   5.118379   2.416934   2.416934   7.532075
    42  S    3.797225   8.179869   5.118379   2.416934  10.374137
    43  S   11.600843   2.416934   4.002460   6.823052   2.416934
    44  S    8.997514   4.002460   2.416934   4.002460   5.118379
    45  S    6.905590   6.823052   4.002460   2.416934   8.179869
    46  S   14.441617   5.118379   6.823052   9.341654   2.416934
    47  S   12.031536   5.118379   5.118379   6.823052   4.002460
    48  S   10.065370   6.823052   5.118379   5.118379   6.823052
                   26         27         28         29         30
    26  Mo   0.000000
    27  Mo   3.190316   0.000000
    28  Mo   5.525789   8.440783   0.000000
    29  Mo   3.190316   5.525789   3.190316   0.000000
    30  Mo   3.190316   3.190316   6.380632   3.190316   0.000000
    31  S    4.002460   5.118379   8.179869   6.823052   6.823052
    32  S    5.118379   4.002460  10.374137   8.179869   6.823052
    33  S    7.532075   5.118379  12.988126  10.374137   8.179869
    34  S    2.416934   5.118379   5.118379   4.002460   5.118379
    35  S    2.416934   2.416934   7.532075   5.118379   4.002460
    36  S    5.118379   2.416934  10.374137   7.532075   5.118379
    37  S    4.002460   6.823052   2.416934   2.416934   5.118379
    38  S    2.416934   4.002460   5.118379   2.416934   2.416934
    39  S    4.002460   2.416934   8.179869   5.118379   2.416934
    40  S    4.002460   5.118379   8.179869   6.823052   6.823052
    41  S    5.118379   4.002460  10.374137   8.179869   6.823052
    42  S    7.532075   5.118379  12.988126  10.374137   8.179869
    43  S    2.416934   5.118379   5.118379   4.002460   5.118379
    44  S    2.416934   2.416934   7.532075   5.118379   4.002460
    45  S    5.118379   2.416934  10.374137   7.532075   5.118379
    46  S    4.002460   6.823052   2.416934   2.416934   5.118379
    47  S    2.416934   4.002460   5.118379   2.416934   2.416934
    48  S    4.002460   2.416934   8.179869   5.118379   2.416934
                   31         32         33         34         35
    31  S    0.000000
    32  S    3.190316   0.000000
    33  S    6.380632   3.190316   0.000000
    34  S    3.190316   5.525789   8.440783   0.000000
    35  S    3.190316   3.190316   5.525789   3.190316   0.000000
    36  S    5.525789   3.190316   3.190316   6.380632   3.190316
    37  S    6.380632   8.440783  11.051579   3.190316   5.525789
    38  S    5.525789   6.380632   8.440783   3.190316   3.190316
    39  S    6.380632   5.525789   6.380632   5.525789   3.190316
    40  S    3.129769   4.469180   7.106892   4.469180   4.469180
    41  S    4.469180   3.129769   4.469180   6.350575   4.469180
    42  S    7.106892   4.469180   3.129769   9.002348   6.350575
    43  S    4.469180   6.350575   9.002348   3.129769   4.469180
    44  S    4.469180   4.469180   6.350575   4.469180   3.129769
    45  S    6.350575   4.469180   4.469180   7.106892   4.469180
    46  S    7.106892   9.002348  11.486202   4.469180   6.350575
    47  S    6.350575   7.106892   9.002348   4.469180   4.469180
    48  S    7.106892   6.350575   7.106892   6.350575   4.469180
                   36         37         38         39         40
    36  S    0.000000
    37  S    8.440783   0.000000
    38  S    5.525789   3.190316   0.000000
    39  S    3.190316   6.380632   3.190316   0.000000
    40  S    6.350575   7.106892   6.350575   7.106892   0.000000
    41  S    4.469180   9.002348   7.106892   6.350575   3.190316
    42  S    4.469180  11.486202   9.002348   7.106892   6.380632
    43  S    7.106892   4.469180   4.469180   6.350575   3.190316
    44  S    4.469180   6.350575   4.469180   4.469180   3.190316
    45  S    3.129769   9.002348   6.350575   4.469180   5.525789
    46  S    9.002348   3.129769   4.469180   7.106892   6.380632
    47  S    6.350575   4.469180   3.129769   4.469180   5.525789
    48  S    4.469180   7.106892   4.469180   3.129769   6.380632
                   41         42         43         44         45
    41  S    0.000000
    42  S    3.190316   0.000000
    43  S    5.525789   8.440783   0.000000
    44  S    3.190316   5.525789   3.190316   0.000000
    45  S    3.190316   3.190316   6.380632   3.190316   0.000000
    46  S    8.440783  11.051579   3.190316   5.525789   8.440783
    47  S    6.380632   8.440783   3.190316   3.190316   5.525789
    48  S    5.525789   6.380632   5.525789   3.190316   3.190316
                   46         47         48
    46  S    0.000000
    47  S    3.190316   0.000000
    48  S    6.380632   3.190316   0.000000
 Stoichiometry    Mo16S32
 Framework group  C1[X(Mo16S32)]
 Deg. of freedom   138
 Full point group                 C1      NOp   1
 Largest Abelian subgroup         C1      NOp   1
 Largest concise Abelian subgroup C1      NOp   1
                         Standard orientation:                         
 ---------------------------------------------------------------------
 Center     Atomic      Atomic             Coordinates (Angstroms)
 Number     Number       Type             X           Y           Z
 ---------------------------------------------------------------------
      1         42           0       -0.803284   -4.785474    0.009325
      2         16           0        1.050006   -4.785473   -1.542089
      3         16           0        1.027188   -4.785473    1.587597
      4         42           0       -3.566105   -3.190317   -0.010818
      5         42           0       -6.328927   -1.595159   -0.030962
      6         42           0       -9.091749   -0.000002   -0.051105
      7         16           0       -1.712816   -3.190316   -1.562232
      8         16           0       -4.475637   -1.595159   -1.582375
      9         16           0       -7.238459   -0.000002   -1.602519
     10         16           0       -1.735634   -3.190316    1.567454
     11         16           0       -4.498455   -1.595159    1.547310
     12         16           0       -7.261277   -0.000002    1.527167
     13         42           0        1.959537   -3.190315    0.029469
     14         42           0        4.722358   -1.595156    0.049612
     15         42           0        7.485178    0.000003    0.069756
     16         16           0        3.812827   -3.190314   -1.521945
     17         16           0        6.575648   -1.595156   -1.501802
     18         16           0        9.338468    0.000003   -1.481658
     19         16           0        3.790009   -3.190315    1.607740
     20         16           0        6.552829   -1.595156    1.627884
     21         16           0        9.818566   -0.000026    0.528223
     22         42           0       -0.803285   -1.595158    0.009325
     23         42           0        1.959536    0.000001    0.029469
     24         42           0        4.722357    1.595160    0.049612
     25         42           0       -3.566106   -0.000001   -0.010818
     26         42           0       -0.803286    1.595158    0.009325
     27         42           0        1.959535    3.190317    0.029469
     28         42           0       -6.328928    1.595157   -0.030961
     29         42           0       -3.566107    3.190315   -0.010818
     30         42           0       -0.803287    4.785474    0.009326
     31         16           0        1.050005   -1.595157   -1.542089
     32         16           0        3.812826    0.000002   -1.521945
     33         16           0        6.575647    1.595160   -1.501802
     34         16           0       -1.712816    0.000000   -1.562232
     35         16           0        1.050004    1.595159   -1.542089
     36         16           0        3.812825    3.190317   -1.521945
     37         16           0       -4.475638    1.595157   -1.582375
     38         16           0       -1.712817    3.190316   -1.562232
     39         16           0        1.050003    4.785475   -1.542088
     40         16           0        1.027187   -1.595157    1.587597
     41         16           0        3.790008    0.000001    1.607741
     42         16           0        6.552829    1.595160    1.627884
     43         16           0       -1.735635    0.000000    1.567454
     44         16           0        1.027186    1.595159    1.587597
     45         16           0        3.790007    3.190317    1.607741
     46         16           0       -4.498456    1.595157    1.547310
     47         16           0       -1.735636    3.190316    1.567454
     48         16           0        1.027185    4.785475    1.587597
 ---------------------------------------------------------------------
 Rotational constants (GHZ):      0.0267341      0.0093144      0.0073994
 Standard basis: VSTO-6G (5D, 7F)
 There are   480 symmetry adapted cartesian basis functions of A   symmetry.
 There are   432 symmetry adapted basis functions of A   symmetry.
   432 basis functions,  2880 primitive gaussians,   480 cartesian basis functions
   144 alpha electrons      144 beta electrons
       nuclear repulsion energy      3971.3370584716 Hartrees.
 Integral buffers will be    262144 words long.
 Regular integral format.
 Two-electron integral symmetry is turned off.
 Do NDO integrals.
 One-electron integrals computed using PRISM.
 NBasis=   432 RedAO= F EigKep=  0.00D+00  NBF=   432
 NBsUse=   432 1.00D-04 EigRej=  0.00D+00 NBFU=   432
 Nonelectrostatic core Hamiltonian diagonalized for initial guess.
 Keep J ints in memory in canonical form, NReq=6065351.
 Gradient too large for Newton-Raphson -- use scaled steepest descent instead.
 Alpha Gap=    -0.568 HL deriv= 1.48D-07 Rot set to   5.02D+00
     Minimum is close to point  3 DX=  6.61D-03 DF= -7.21D-03 DXR=  2.90D-02 DFR=  6.91D-04 which will be used.
 Gradient too large for Newton-Raphson -- use scaled steepest descent instead.
     Minimum is close to point  3 DX=  2.59D-02 DF= -6.94D-03 DXR=  6.09D-02 DFR=  3.26D-03 which will be used.
 Gradient too large for Newton-Raphson -- use scaled steepest descent instead.
     Accept linear search using points  3 and  4.
 Gradient too large for Newton-Raphson -- use scaled steepest descent instead.
     Accept linear search using points  1 and  2.
 Gradient too large for Newton-Raphson -- use scaled steepest descent instead.
     Accept linear search using points  4 and  5.
 Gradient too large for Newton-Raphson -- use scaled steepest descent instead.
     Accept linear search using points  1 and  2.
 Gradient too large for Newton-Raphson -- use scaled steepest descent instead.
     Accept linear search using points  3 and  4.
     Minimum is close to point  4 DX= -6.99D-02 DF= -2.64D-04 DXR=  3.44D-02 DFR=  1.07D-03 which will be used.
 Gradient too large for Newton-Raphson -- use scaled steepest descent instead.
 Gradient too large for Newton-Raphson -- use scaled steepest descent instead.
     Accept linear search using points  2 and  3.
     Minimum is close to point  3 DX= -5.04D-02 DF= -5.69D-05 DXR=  3.25D-02 DFR=  6.98D-04 which will be used.
 Gradient too large for Newton-Raphson -- use scaled steepest descent instead.
     Accept linear search using points  1 and  2.
 Gradient too large for Newton-Raphson -- use scaled steepest descent instead.
 Gradient too large for Newton-Raphson -- use scaled steepest descent instead.
     Minimum is close to point  3 DX= -2.78D-02 DF= -2.58D-04 DXR=  7.47D-02 DFR=  5.62D-03 which will be used.
 Gradient too large for Newton-Raphson -- use scaled steepest descent instead.
     Minimum is close to point  2 DX=  9.24D-02 DF= -2.17D-04 DXR=  9.31D-02 DFR=  8.74D-03 which will be used.
 Gradient too large for Newton-Raphson -- use scaled steepest descent instead.
     Accept linear search using points  1 and  2.
 Gradient too large for Newton-Raphson -- use scaled steepest descent instead.
     Minimum is close to point  4 DX=  9.82D-02 DF= -7.27D-05 DXR=  4.09D-02 DFR=  1.77D-03 which will be used.
 Gradient too large for Newton-Raphson -- use scaled steepest descent instead.
 Gradient too large for Newton-Raphson -- use scaled steepest descent instead.
     Minimum is close to point  3 DX=  1.65D-01 DF= -1.86D-04 DXR=  8.37D-02 DFR=  7.33D-03 which will be used.
 Gradient too large for Newton-Raphson -- use scaled steepest descent instead.
     Minimum is close to point  3 DX= -1.93D-02 DF= -4.86D-05 DXR=  5.07D-02 DFR=  2.57D-03 which will be used.
 Gradient too large for Newton-Raphson -- use scaled steepest descent instead.
 Gradient too large for Newton-Raphson -- use scaled steepest descent instead.
     Accept linear search using points  1 and  2.
 Gradient too large for Newton-Raphson -- use scaled steepest descent instead.
     Accept linear search using points  4 and  5.
 Gradient too large for Newton-Raphson -- use scaled steepest descent instead.
     Minimum is close to point  3 DX=  3.28D-02 DF= -2.24D-04 DXR=  9.85D-02 DFR=  9.81D-03 which will be used.
 Gradient too large for Newton-Raphson -- use scaled steepest descent instead.
 Gradient too large for Newton-Raphson -- use scaled steepest descent instead.
 Gradient too large for Newton-Raphson -- use scaled steepest descent instead.
     Accept linear search using points  1 and  2.
 Gradient too large for Newton-Raphson -- use scaled steepest descent instead.
     Accept linear search using points  1 and  2.
 Gradient too large for Newton-Raphson -- use scaled steepest descent instead.
     Minimum is close to point  5 DX= -2.25D-01 DF= -2.66D-05 DXR=  4.72D-02 DFR=  2.19D-03 which will be used.
 Gradient too large for Newton-Raphson -- use scaled steepest descent instead.
 Gradient too large for Newton-Raphson -- use scaled steepest descent instead.
 Gradient too large for Newton-Raphson -- use scaled steepest descent instead.
     Accept linear search using points  1 and  2.
 Gradient too large for Newton-Raphson -- use scaled steepest descent instead.
     Accept linear search using points  2 and  3.
 Gradient too large for Newton-Raphson -- use scaled steepest descent instead.
     Accept linear search using points  1 and  2.
 Gradient too large for Newton-Raphson -- use scaled steepest descent instead.
 Gradient too large for Newton-Raphson -- use scaled steepest descent instead.
 Gradient too large for Newton-Raphson -- use scaled steepest descent instead.
     Minimum is close to point  3 DX=  8.22D-02 DF= -7.80D-06 DXR=  4.89D-02 DFR=  2.39D-03 which will be used.
 Gradient too large for Newton-Raphson -- use scaled steepest descent instead.
     Minimum is close to point  3 DX= -3.03D-02 DF= -1.99D-05 DXR=  8.18D-02 DFR=  6.74D-03 which will be used.
 Gradient too large for Newton-Raphson -- use scaled steepest descent instead.
 Gradient too large for Newton-Raphson -- use scaled steepest descent instead.
     Accept linear search using points  1 and  2.
 Gradient too large for Newton-Raphson -- use scaled steepest descent instead.
 Gradient too large for Newton-Raphson -- use scaled steepest descent instead.
     Minimum is close to point  3 DX=  2.55D-02 DF= -3.28D-05 DXR=  7.82D-02 DFR=  6.16D-03 which will be used.
 Gradient too large for Newton-Raphson -- use scaled steepest descent instead.
     Minimum is close to point  6 DX=  5.77D-01 DF= -6.70D-05 DXR=  3.40D-02 DFR=  1.92D-03 which will be used.
 Gradient too large for Newton-Raphson -- use scaled steepest descent instead.
 Gradient too large for Newton-Raphson -- use scaled steepest descent instead.
     Accept linear search using points  1 and  2.
 Gradient too large for Newton-Raphson -- use scaled steepest descent instead.
 Gradient too large for Newton-Raphson -- use scaled steepest descent instead.
 Gradient too large for Newton-Raphson -- use scaled steepest descent instead.
     Minimum is close to point  3 DX= -3.54D-02 DF= -3.89D-05 DXR=  9.71D-02 DFR=  9.52D-03 which will be used.
 Gradient too large for Newton-Raphson -- use scaled steepest descent instead.
     Accept linear search using points  1 and  2.
     Minimum is close to point  2 DX= -7.64D-02 DF= -1.73D-05 DXR=  9.27D-02 DFR=  7.14D-03 which will be used.
 Gradient too large for Newton-Raphson -- use scaled steepest descent instead.
     Accept linear search using points  1 and  2.
 Gradient too large for Newton-Raphson -- use scaled steepest descent instead.
 Gradient too large for Newton-Raphson -- use scaled steepest descent instead.
     Minimum is close to point  4 DX= -3.52D-02 DF= -6.56D-05 DXR=  9.66D-02 DFR=  9.42D-03 which will be used.
 Gradient too large for Newton-Raphson -- use scaled steepest descent instead.
 Gradient too large for Newton-Raphson -- use scaled steepest descent instead.
     Accept linear search using points  1 and  2.
 Gradient too large for Newton-Raphson -- use scaled steepest descent instead.
 Gradient too large for Newton-Raphson -- use scaled steepest descent instead.
 Gradient too large for Newton-Raphson -- use scaled steepest descent instead.
 Gradient too large for Newton-Raphson -- use scaled steepest descent instead.
 Gradient too large for Newton-Raphson -- use scaled steepest descent instead.
 Gradient too large for Newton-Raphson -- use scaled steepest descent instead.
 Gradient too large for Newton-Raphson -- use scaled steepest descent instead.
 Gradient too large for Newton-Raphson -- use scaled steepest descent instead.
 Gradient too large for Newton-Raphson -- use scaled steepest descent instead.
 Gradient too large for Newton-Raphson -- use scaled steepest descent instead.
 Gradient too large for Newton-Raphson -- use scaled steepest descent instead.
 Gradient too large for Newton-Raphson -- use scaled steepest descent instead.
 Gradient too large for Newton-Raphson -- use scaled steepest descent instead.
 Gradient too large for Newton-Raphson -- use scaled steepest descent instead.
 Gradient too large for Newton-Raphson -- use scaled steepest descent instead.
 Gradient too large for Newton-Raphson -- use scaled steepest descent instead.
 Gradient too large for Newton-Raphson -- use scaled steepest descent instead.
 Gradient too large for Newton-Raphson -- use scaled steepest descent instead.
 Gradient too large for Newton-Raphson -- use scaled steepest descent instead.
 Gradient too large for Newton-Raphson -- use scaled steepest descent instead.
 Gradient too large for Newton-Raphson -- use scaled steepest descent instead.
     Minimum is close to point  3 DX=  1.67D-01 DF= -6.53D-06 DXR=  8.94D-02 DFR=  8.07D-03 which will be used.
 Gradient too large for Newton-Raphson -- use scaled steepest descent instead.
     Minimum is close to point  3 DX= -2.58D-02 DF= -2.99D-06 DXR=  6.90D-02 DFR=  4.79D-03 which will be used.
 Gradient too large for Newton-Raphson -- use scaled steepest descent instead.
 Gradient too large for Newton-Raphson -- use scaled steepest descent instead.
     Accept linear search using points  1 and  2.
 LinEq1:  Iter=  0 NonCon=     1 RMS=1.62D-04 Max=1.13D-02 NDo=     1
 AX will form     1 AO Fock derivatives at one time.
 LinEq1:  Iter=  1 NonCon=     1 RMS=1.04D-04 Max=2.10D-03 NDo=     1
 LinEq1:  Iter=  2 NonCon=     1 RMS=5.94D-05 Max=3.59D-03 NDo=     1
 LinEq1:  Iter=  3 NonCon=     1 RMS=3.28D-05 Max=6.64D-04 NDo=     1
 LinEq1:  Iter=  4 NonCon=     1 RMS=3.51D-05 Max=1.41D-03 NDo=     1
 LinEq1:  Iter=  5 NonCon=     1 RMS=3.52D-05 Max=5.77D-04 NDo=     1
 LinEq1:  Iter=  6 NonCon=     1 RMS=2.76D-05 Max=5.13D-04 NDo=     1
 LinEq1:  Iter=  7 NonCon=     1 RMS=2.90D-05 Max=5.67D-04 NDo=     1
 LinEq1:  Iter=  8 NonCon=     1 RMS=3.03D-05 Max=6.46D-04 NDo=     1
 LinEq1:  Iter=  9 NonCon=     1 RMS=2.77D-05 Max=4.94D-04 NDo=     1
 LinEq1:  Iter= 10 NonCon=     1 RMS=3.00D-05 Max=7.69D-04 NDo=     1
 LinEq1:  Iter= 11 NonCon=     1 RMS=2.63D-05 Max=6.18D-04 NDo=     1
 LinEq1:  Iter= 12 NonCon=     1 RMS=2.12D-05 Max=4.80D-04 NDo=     1
 LinEq1:  Iter= 13 NonCon=     1 RMS=1.96D-05 Max=5.86D-04 NDo=     1
 LinEq1:  Iter= 14 NonCon=     1 RMS=1.24D-05 Max=2.13D-04 NDo=     1
 LinEq1:  Iter= 15 NonCon=     1 RMS=1.29D-05 Max=3.16D-04 NDo=     1
 LinEq1:  Iter= 16 NonCon=     1 RMS=1.15D-05 Max=2.19D-04 NDo=     1
 LinEq1:  Iter= 17 NonCon=     1 RMS=8.12D-06 Max=1.77D-04 NDo=     1
 LinEq1:  Iter= 18 NonCon=     1 RMS=6.19D-06 Max=1.16D-04 NDo=     1
 LinEq1:  Iter= 19 NonCon=     1 RMS=4.79D-06 Max=7.01D-05 NDo=     1
 LinEq1:  Iter= 20 NonCon=     1 RMS=3.43D-06 Max=7.08D-05 NDo=     1
 LinEq1:  Iter= 21 NonCon=     1 RMS=2.49D-06 Max=4.45D-05 NDo=     1
 LinEq1:  Iter= 22 NonCon=     1 RMS=1.54D-06 Max=2.29D-05 NDo=     1
 LinEq1:  Iter= 23 NonCon=     1 RMS=1.15D-06 Max=1.78D-05 NDo=     1
 LinEq1:  Iter= 24 NonCon=     1 RMS=1.06D-06 Max=1.61D-05 NDo=     1
 LinEq1:  Iter= 25 NonCon=     1 RMS=1.11D-06 Max=1.91D-05 NDo=     1
 LinEq1:  Iter= 26 NonCon=     1 RMS=7.69D-07 Max=1.31D-05 NDo=     1
 LinEq1:  Iter= 27 NonCon=     1 RMS=3.59D-07 Max=6.08D-06 NDo=     1
 LinEq1:  Iter= 28 NonCon=     1 RMS=1.64D-07 Max=3.47D-06 NDo=     1
 LinEq1:  Iter= 29 NonCon=     1 RMS=1.26D-07 Max=2.61D-06 NDo=     1
 LinEq1:  Iter= 30 NonCon=     1 RMS=6.36D-08 Max=1.44D-06 NDo=     1
 LinEq1:  Iter= 31 NonCon=     1 RMS=3.59D-08 Max=7.77D-07 NDo=     1
 LinEq1:  Iter= 32 NonCon=     1 RMS=2.80D-08 Max=7.04D-07 NDo=     1
 LinEq1:  Iter= 33 NonCon=     1 RMS=1.53D-08 Max=3.50D-07 NDo=     1
 LinEq1:  Iter= 34 NonCon=     0 RMS=9.04D-09 Max=1.39D-07 NDo=     1
 Linear equations converged to 2.880D-08 2.880D-07 after    34 iterations.
     Accept linear search using points  1 and  2.
 Gradient too large for Newton-Raphson -- use scaled steepest descent instead.
     Accept linear search using points  1 and  2.
 LinEq1:  Iter=  0 NonCon=     1 RMS=6.12D-05 Max=1.91D-03 NDo=     1
 LinEq1:  Iter=  1 NonCon=     1 RMS=8.11D-05 Max=2.89D-03 NDo=     1
 LinEq1:  Iter=  2 NonCon=     1 RMS=5.41D-05 Max=1.82D-03 NDo=     1
 LinEq1:  Iter=  3 NonCon=     1 RMS=4.24D-05 Max=8.58D-04 NDo=     1
 LinEq1:  Iter=  4 NonCon=     1 RMS=3.95D-05 Max=9.75D-04 NDo=     1
 LinEq1:  Iter=  5 NonCon=     1 RMS=3.28D-05 Max=5.45D-04 NDo=     1
 LinEq1:  Iter=  6 NonCon=     1 RMS=2.96D-05 Max=6.56D-04 NDo=     1
 LinEq1:  Iter=  7 NonCon=     1 RMS=2.65D-05 Max=5.92D-04 NDo=     1
 LinEq1:  Iter=  8 NonCon=     1 RMS=2.75D-05 Max=7.01D-04 NDo=     1
 LinEq1:  Iter=  9 NonCon=     1 RMS=2.28D-05 Max=6.26D-04 NDo=     1
 LinEq1:  Iter= 10 NonCon=     1 RMS=2.31D-05 Max=4.71D-04 NDo=     1
 LinEq1:  Iter= 11 NonCon=     1 RMS=2.27D-05 Max=4.31D-04 NDo=     1
 LinEq1:  Iter= 12 NonCon=     1 RMS=2.11D-05 Max=3.98D-04 NDo=     1
 LinEq1:  Iter= 13 NonCon=     1 RMS=1.99D-05 Max=3.30D-04 NDo=     1
 LinEq1:  Iter= 14 NonCon=     1 RMS=1.50D-05 Max=3.55D-04 NDo=     1
 LinEq1:  Iter= 15 NonCon=     1 RMS=1.52D-05 Max=2.65D-04 NDo=     1
 LinEq1:  Iter= 16 NonCon=     1 RMS=1.28D-05 Max=3.02D-04 NDo=     1
 LinEq1:  Iter= 17 NonCon=     1 RMS=9.39D-06 Max=1.66D-04 NDo=     1
 LinEq1:  Iter= 18 NonCon=     1 RMS=6.30D-06 Max=1.51D-04 NDo=     1
 LinEq1:  Iter= 19 NonCon=     1 RMS=4.28D-06 Max=8.02D-05 NDo=     1
 LinEq1:  Iter= 20 NonCon=     1 RMS=3.61D-06 Max=7.78D-05 NDo=     1
 LinEq1:  Iter= 21 NonCon=     1 RMS=2.94D-06 Max=5.48D-05 NDo=     1
 LinEq1:  Iter= 22 NonCon=     1 RMS=2.88D-06 Max=6.18D-05 NDo=     1
 LinEq1:  Iter= 23 NonCon=     1 RMS=2.68D-06 Max=6.33D-05 NDo=     1
 LinEq1:  Iter= 24 NonCon=     1 RMS=1.74D-06 Max=3.39D-05 NDo=     1
 LinEq1:  Iter= 25 NonCon=     1 RMS=1.42D-06 Max=2.57D-05 NDo=     1
 LinEq1:  Iter= 26 NonCon=     1 RMS=8.18D-07 Max=1.16D-05 NDo=     1
 LinEq1:  Iter= 27 NonCon=     1 RMS=4.66D-07 Max=6.39D-06 NDo=     1
 LinEq1:  Iter= 28 NonCon=     1 RMS=3.38D-07 Max=6.29D-06 NDo=     1
 LinEq1:  Iter= 29 NonCon=     1 RMS=1.73D-07 Max=3.35D-06 NDo=     1
 LinEq1:  Iter= 30 NonCon=     1 RMS=9.82D-08 Max=1.82D-06 NDo=     1
 LinEq1:  Iter= 31 NonCon=     1 RMS=7.77D-08 Max=1.42D-06 NDo=     1
 LinEq1:  Iter= 32 NonCon=     1 RMS=4.32D-08 Max=9.83D-07 NDo=     1
 LinEq1:  Iter= 33 NonCon=     1 RMS=2.62D-08 Max=6.21D-07 NDo=     1
 LinEq1:  Iter= 34 NonCon=     1 RMS=1.99D-08 Max=3.58D-07 NDo=     1
 LinEq1:  Iter= 35 NonCon=     0 RMS=9.01D-09 Max=2.45D-07 NDo=     1
 Linear equations converged to 2.880D-08 2.880D-07 after    35 iterations.
     Minimum is close to point  2 DX=  1.90D-02 DF= -1.30D-07 DXR=  1.87D-02 DFR=  3.49D-04 which will be used.
 LinEq1:  Iter=  0 NonCon=     1 RMS=9.07D-06 Max=1.82D-04 NDo=     1
 LinEq1:  Iter=  1 NonCon=     1 RMS=1.09D-05 Max=4.88D-04 NDo=     1
 LinEq1:  Iter=  2 NonCon=     1 RMS=1.06D-05 Max=2.23D-04 NDo=     1
 LinEq1:  Iter=  3 NonCon=     1 RMS=1.03D-05 Max=2.55D-04 NDo=     1
 LinEq1:  Iter=  4 NonCon=     1 RMS=1.01D-05 Max=2.31D-04 NDo=     1
 LinEq1:  Iter=  5 NonCon=     1 RMS=9.87D-06 Max=2.15D-04 NDo=     1
 LinEq1:  Iter=  6 NonCon=     1 RMS=8.27D-06 Max=1.51D-04 NDo=     1
 LinEq1:  Iter=  7 NonCon=     1 RMS=8.34D-06 Max=2.01D-04 NDo=     1
 LinEq1:  Iter=  8 NonCon=     1 RMS=8.86D-06 Max=2.18D-04 NDo=     1
 LinEq1:  Iter=  9 NonCon=     1 RMS=7.72D-06 Max=1.59D-04 NDo=     1
 LinEq1:  Iter= 10 NonCon=     1 RMS=6.79D-06 Max=1.33D-04 NDo=     1
 LinEq1:  Iter= 11 NonCon=     1 RMS=7.68D-06 Max=1.23D-04 NDo=     1
 LinEq1:  Iter= 12 NonCon=     1 RMS=6.27D-06 Max=1.15D-04 NDo=     1
 LinEq1:  Iter= 13 NonCon=     1 RMS=5.56D-06 Max=1.14D-04 NDo=     1
 LinEq1:  Iter= 14 NonCon=     1 RMS=4.77D-06 Max=9.62D-05 NDo=     1
 LinEq1:  Iter= 15 NonCon=     1 RMS=4.60D-06 Max=1.10D-04 NDo=     1
 LinEq1:  Iter= 16 NonCon=     1 RMS=3.78D-06 Max=6.81D-05 NDo=     1
 LinEq1:  Iter= 17 NonCon=     1 RMS=3.14D-06 Max=5.13D-05 NDo=     1
 LinEq1:  Iter= 18 NonCon=     1 RMS=2.68D-06 Max=3.94D-05 NDo=     1
 LinEq1:  Iter= 19 NonCon=     1 RMS=1.27D-06 Max=2.63D-05 NDo=     1
 LinEq1:  Iter= 20 NonCon=     1 RMS=9.24D-07 Max=1.35D-05 NDo=     1
 LinEq1:  Iter= 21 NonCon=     1 RMS=5.91D-07 Max=1.06D-05 NDo=     1
 LinEq1:  Iter= 22 NonCon=     1 RMS=4.76D-07 Max=1.04D-05 NDo=     1
 LinEq1:  Iter= 23 NonCon=     1 RMS=4.78D-07 Max=9.62D-06 NDo=     1
 LinEq1:  Iter= 24 NonCon=     1 RMS=4.32D-07 Max=7.56D-06 NDo=     1
 LinEq1:  Iter= 25 NonCon=     1 RMS=3.00D-07 Max=6.24D-06 NDo=     1
 LinEq1:  Iter= 26 NonCon=     1 RMS=1.44D-07 Max=2.56D-06 NDo=     1
 LinEq1:  Iter= 27 NonCon=     1 RMS=1.04D-07 Max=1.82D-06 NDo=     1
 LinEq1:  Iter= 28 NonCon=     1 RMS=5.68D-08 Max=1.27D-06 NDo=     1
 LinEq1:  Iter= 29 NonCon=     1 RMS=3.88D-08 Max=9.43D-07 NDo=     1
 LinEq1:  Iter= 30 NonCon=     1 RMS=2.76D-08 Max=9.12D-07 NDo=     1
 LinEq1:  Iter= 31 NonCon=     1 RMS=1.45D-08 Max=5.96D-07 NDo=     1
 LinEq1:  Iter= 32 NonCon=     1 RMS=9.13D-09 Max=2.95D-07 NDo=     1
 LinEq1:  Iter= 33 NonCon=     1 RMS=6.09D-09 Max=1.76D-07 NDo=     1
 LinEq1:  Iter= 34 NonCon=     0 RMS=3.57D-09 Max=8.56D-08 NDo=     1
 Linear equations converged to 9.730D-09 9.730D-08 after    34 iterations.
     Minimum is close to point  2 DX=  1.49D-02 DF= -4.33D-10 DXR=  1.47D-02 DFR=  2.16D-04 which will be used.
 LinEq1:  Iter=  0 NonCon=     1 RMS=7.13D-08 Max=1.54D-06 NDo=     1
 LinEq1:  Iter=  1 NonCon=     1 RMS=9.10D-08 Max=2.67D-06 NDo=     1
 LinEq1:  Iter=  2 NonCon=     1 RMS=7.81D-08 Max=2.11D-06 NDo=     1
 LinEq1:  Iter=  3 NonCon=     1 RMS=7.92D-08 Max=1.99D-06 NDo=     1
 LinEq1:  Iter=  4 NonCon=     1 RMS=8.19D-08 Max=1.90D-06 NDo=     1
 LinEq1:  Iter=  5 NonCon=     1 RMS=8.12D-08 Max=1.56D-06 NDo=     1
 LinEq1:  Iter=  6 NonCon=     1 RMS=7.12D-08 Max=1.15D-06 NDo=     1
 LinEq1:  Iter=  7 NonCon=     1 RMS=5.93D-08 Max=9.18D-07 NDo=     1
 LinEq1:  Iter=  8 NonCon=     1 RMS=5.95D-08 Max=1.47D-06 NDo=     1
 LinEq1:  Iter=  9 NonCon=     1 RMS=6.22D-08 Max=1.38D-06 NDo=     1
 LinEq1:  Iter= 10 NonCon=     1 RMS=5.19D-08 Max=8.62D-07 NDo=     1
 LinEq1:  Iter= 11 NonCon=     1 RMS=4.54D-08 Max=1.08D-06 NDo=     1
 LinEq1:  Iter= 12 NonCon=     1 RMS=5.09D-08 Max=1.07D-06 NDo=     1
 LinEq1:  Iter= 13 NonCon=     1 RMS=4.07D-08 Max=9.86D-07 NDo=     1
 LinEq1:  Iter= 14 NonCon=     1 RMS=3.86D-08 Max=7.16D-07 NDo=     1
 LinEq1:  Iter= 15 NonCon=     1 RMS=2.87D-08 Max=8.13D-07 NDo=     1
 LinEq1:  Iter= 16 NonCon=     1 RMS=2.86D-08 Max=5.71D-07 NDo=     1
 LinEq1:  Iter= 17 NonCon=     1 RMS=2.36D-08 Max=4.64D-07 NDo=     1
 LinEq1:  Iter= 18 NonCon=     1 RMS=2.28D-08 Max=4.50D-07 NDo=     1
 LinEq1:  Iter= 19 NonCon=     1 RMS=1.34D-08 Max=2.02D-07 NDo=     1
 LinEq1:  Iter= 20 NonCon=     1 RMS=8.25D-09 Max=1.47D-07 NDo=     1
 LinEq1:  Iter= 21 NonCon=     1 RMS=7.50D-09 Max=1.58D-07 NDo=     1
 LinEq1:  Iter= 22 NonCon=     1 RMS=8.61D-09 Max=2.80D-07 NDo=     1
 LinEq1:  Iter= 23 NonCon=     1 RMS=4.59D-09 Max=1.67D-07 NDo=     1
 LinEq1:  Iter= 24 NonCon=     1 RMS=2.43D-09 Max=8.17D-08 NDo=     1
 LinEq1:  Iter= 25 NonCon=     1 RMS=1.74D-09 Max=5.12D-08 NDo=     1
 LinEq1:  Iter= 26 NonCon=     1 RMS=1.16D-09 Max=4.50D-08 NDo=     1
 LinEq1:  Iter= 27 NonCon=     1 RMS=6.71D-10 Max=2.29D-08 NDo=     1
 LinEq1:  Iter= 28 NonCon=     1 RMS=4.17D-10 Max=1.59D-08 NDo=     1
 LinEq1:  Iter= 29 NonCon=     1 RMS=2.83D-10 Max=9.25D-09 NDo=     1
 LinEq1:  Iter= 30 NonCon=     1 RMS=1.85D-10 Max=5.86D-09 NDo=     1
 LinEq1:  Iter= 31 NonCon=     1 RMS=9.26D-11 Max=2.96D-09 NDo=     1
 LinEq1:  Iter= 32 NonCon=     1 RMS=6.09D-11 Max=1.42D-09 NDo=     1
 LinEq1:  Iter= 33 NonCon=     1 RMS=4.50D-11 Max=1.14D-09 NDo=     1
 LinEq1:  Iter= 34 NonCon=     0 RMS=2.08D-11 Max=6.24D-10 NDo=     1
 Linear equations converged to 7.412D-11 7.412D-10 after    34 iterations.
 SCF Done:  E(RPM6) =  -1.60567356127     a.u. after   82 cycles
            Convg  =    0.8106D-07                   386 Fock formations.
              S**2 =  0.0000                  -V/T =  0.9902
 Range of M.O.s used for correlation:     1   432
 NBasis=   432 NAE=   144 NBE=   144 NFC=     0 NFV=     0
 NROrb=    432 NOA=   144 NOB=   144 NVA=   288 NVB=   288
 Symmetrizing basis deriv contribution to polar:
 IMax=3 JMax=2 DiffMx= 0.00D+00
 G2DrvN: will do    49 centers at a time, making    1 passes.
 Calling FoFCou, ICntrl=  3107 FMM=F I1Cent=   0 AccDes= 0.00D+00.
 End of G2Drv F.D. properties file   721 does not exist.
 End of G2Drv F.D. properties file   722 does not exist.
 End of G2Drv F.D. properties file   788 does not exist.
          IDoAtm=000000000000000000001000000000000000000000000000
          Differentiating once with respect to electric field.
                with respect to dipole field.
          Differentiating once with respect to nuclear coordinates.
          Electric field/nuclear overlap derivatives assumed to be zero.
 Keep J ints in memory in canonical form, NReq=4244937.
          There are     6 degrees of freedom in the 1st order CPHF.  IDoFFX=5 NUNeed=     6.
 LinEq1:  Iter=  0 NonCon=     6 RMS=3.00D-01 Max=9.35D+00 NDo=     6
 AX will form     6 AO Fock derivatives at one time.
 LinEq1:  Iter=  1 NonCon=     6 RMS=3.44D-01 Max=6.79D+00 NDo=     6
 LinEq1:  Iter=  2 NonCon=     6 RMS=2.70D-01 Max=7.52D+00 NDo=     6
 LinEq1:  Iter=  3 NonCon=     6 RMS=2.17D-01 Max=5.61D+00 NDo=     6
 LinEq1:  Iter=  4 NonCon=     6 RMS=1.71D-01 Max=4.50D+00 NDo=     6
 LinEq1:  Iter=  5 NonCon=     6 RMS=2.06D-01 Max=5.24D+00 NDo=     6
 LinEq1:  Iter=  6 NonCon=     6 RMS=1.53D-01 Max=3.99D+00 NDo=     6
 LinEq1:  Iter=  7 NonCon=     6 RMS=1.93D-01 Max=3.86D+00 NDo=     6
 LinEq1:  Iter=  8 NonCon=     6 RMS=1.68D-01 Max=3.40D+00 NDo=     6
 LinEq1:  Iter=  9 NonCon=     6 RMS=1.55D-01 Max=2.94D+00 NDo=     6
 LinEq1:  Iter= 10 NonCon=     6 RMS=1.31D-01 Max=2.32D+00 NDo=     6
 LinEq1:  Iter= 11 NonCon=     6 RMS=9.45D-02 Max=2.56D+00 NDo=     6
 LinEq1:  Iter= 12 NonCon=     6 RMS=9.54D-02 Max=1.67D+00 NDo=     6
 LinEq1:  Iter= 13 NonCon=     6 RMS=9.81D-02 Max=2.70D+00 NDo=     6
 LinEq1:  Iter= 14 NonCon=     6 RMS=9.82D-02 Max=1.45D+00 NDo=     6
 LinEq1:  Iter= 15 NonCon=     6 RMS=6.33D-02 Max=1.12D+00 NDo=     6
 LinEq1:  Iter= 16 NonCon=     6 RMS=6.47D-02 Max=1.28D+00 NDo=     6
 LinEq1:  Iter= 17 NonCon=     6 RMS=4.81D-02 Max=1.18D+00 NDo=     6
 LinEq1:  Iter= 18 NonCon=     6 RMS=5.13D-02 Max=1.24D+00 NDo=     6
 LinEq1:  Iter= 19 NonCon=     6 RMS=3.55D-02 Max=1.14D+00 NDo=     6
 LinEq1:  Iter= 20 NonCon=     6 RMS=2.44D-02 Max=6.74D-01 NDo=     6
 LinEq1:  Iter= 21 NonCon=     6 RMS=1.79D-02 Max=5.55D-01 NDo=     6
 LinEq1:  Iter= 22 NonCon=     6 RMS=1.10D-02 Max=2.96D-01 NDo=     6
 LinEq1:  Iter= 23 NonCon=     6 RMS=8.86D-03 Max=2.48D-01 NDo=     6
 LinEq1:  Iter= 24 NonCon=     6 RMS=8.45D-03 Max=1.69D-01 NDo=     6
 LinEq1:  Iter= 25 NonCon=     6 RMS=8.44D-03 Max=2.18D-01 NDo=     6
 LinEq1:  Iter= 26 NonCon=     6 RMS=3.94D-03 Max=8.19D-02 NDo=     6
 LinEq1:  Iter= 27 NonCon=     6 RMS=2.86D-03 Max=4.80D-02 NDo=     6
 LinEq1:  Iter= 28 NonCon=     6 RMS=1.66D-03 Max=3.15D-02 NDo=     6
 LinEq1:  Iter= 29 NonCon=     6 RMS=9.41D-04 Max=2.03D-02 NDo=     6
 LinEq1:  Iter= 30 NonCon=     6 RMS=5.60D-04 Max=1.10D-02 NDo=     6
 LinEq1:  Iter= 31 NonCon=     6 RMS=3.33D-04 Max=7.15D-03 NDo=     6
 LinEq1:  Iter= 32 NonCon=     6 RMS=2.55D-04 Max=5.38D-03 NDo=     6
 LinEq1:  Iter= 33 NonCon=     6 RMS=1.30D-04 Max=3.24D-03 NDo=     6
 LinEq1:  Iter= 34 NonCon=     6 RMS=5.15D-05 Max=9.50D-04 NDo=     6
 LinEq1:  Iter= 35 NonCon=     6 RMS=3.92D-05 Max=6.24D-04 NDo=     6
 LinEq1:  Iter= 36 NonCon=     6 RMS=2.63D-05 Max=3.66D-04 NDo=     6
 LinEq1:  Iter= 37 NonCon=     6 RMS=1.17D-05 Max=2.87D-04 NDo=     6
 LinEq1:  Iter= 38 NonCon=     6 RMS=4.90D-06 Max=9.70D-05 NDo=     6
 LinEq1:  Iter= 39 NonCon=     5 RMS=2.02D-06 Max=4.50D-05 NDo=     6
 LinEq1:  Iter= 40 NonCon=     5 RMS=8.70D-07 Max=1.64D-05 NDo=     6
 LinEq1:  Iter= 41 NonCon=     3 RMS=7.30D-07 Max=1.19D-05 NDo=     6
 LinEq1:  Iter= 42 NonCon=     3 RMS=3.61D-07 Max=7.01D-06 NDo=     6
 LinEq1:  Iter= 43 NonCon=     3 RMS=1.44D-07 Max=2.96D-06 NDo=     6
 LinEq1:  Iter= 44 NonCon=     3 RMS=9.66D-08 Max=1.32D-06 NDo=     6
 LinEq1:  Iter= 45 NonCon=     3 RMS=5.79D-08 Max=1.20D-06 NDo=     6
 LinEq1:  Iter= 46 NonCon=     3 RMS=2.52D-08 Max=4.09D-07 NDo=     6
 LinEq1:  Iter= 47 NonCon=     3 RMS=1.81D-08 Max=3.30D-07 NDo=     6
 LinEq1:  Iter= 48 NonCon=     1 RMS=8.04D-09 Max=2.14D-07 NDo=     6
 LinEq1:  Iter= 49 NonCon=     0 RMS=2.94D-09 Max=7.44D-08 NDo=     6
 Linear equations converged to 1.000D-08 1.000D-07 after    49 iterations.
 Isotropic polarizability for W=    0.000000     2811.66 Bohr**3.
 End of Minotr F.D. properties file   721 does not exist.
 End of Minotr F.D. properties file   722 does not exist.
 End of Minotr F.D. properties file   788 does not exist.

 **********************************************************************

            Population analysis using the SCF density.

 **********************************************************************

 Orbital symmetries:
       Occupied  (A) (A) (A) (A) (A) (A) (A) (A) (A) (A) (A) (A)
                 (A) (A) (A) (A) (A) (A) (A) (A) (A) (A) (A) (A)
                 (A) (A) (A) (A) (A) (A) (A) (A) (A) (A) (A) (A)
                 (A) (A) (A) (A) (A) (A) (A) (A) (A) (A) (A) (A)
                 (A) (A) (A) (A) (A) (A) (A) (A) (A) (A) (A) (A)
                 (A) (A) (A) (A) (A) (A) (A) (A) (A) (A) (A) (A)
                 (A) (A) (A) (A) (A) (A) (A) (A) (A) (A) (A) (A)
                 (A) (A) (A) (A) (A) (A) (A) (A) (A) (A) (A) (A)
                 (A) (A) (A) (A) (A) (A) (A) (A) (A) (A) (A) (A)
                 (A) (A) (A) (A) (A) (A) (A) (A) (A) (A) (A) (A)
                 (A) (A) (A) (A) (A) (A) (A) (A) (A) (A) (A) (A)
                 (A) (A) (A) (A) (A) (A) (A) (A) (A) (A) (A) (A)
       Virtual   (A) (A) (A) (A) (A) (A) (A) (A) (A) (A) (A) (A)
                 (A) (A) (A) (A) (A) (A) (A) (A) (A) (A) (A) (A)
                 (A) (A) (A) (A) (A) (A) (A) (A) (A) (A) (A) (A)
                 (A) (A) (A) (A) (A) (A) (A) (A) (A) (A) (A) (A)
                 (A) (A) (A) (A) (A) (A) (A) (A) (A) (A) (A) (A)
                 (A) (A) (A) (A) (A) (A) (A) (A) (A) (A) (A) (A)
                 (A) (A) (A) (A) (A) (A) (A) (A) (A) (A) (A) (A)
                 (A) (A) (A) (A) (A) (A) (A) (A) (A) (A) (A) (A)
                 (A) (A) (A) (A) (A) (A) (A) (A) (A) (A) (A) (A)
                 (A) (A) (A) (A) (A) (A) (A) (A) (A) (A) (A) (A)
                 (A) (A) (A) (A) (A) (A) (A) (A) (A) (A) (A) (A)
                 (A) (A) (A) (A) (A) (A) (A) (A) (A) (A) (A) (A)
                 (A) (A) (A) (A) (A) (A) (A) (A) (A) (A) (A) (A)
                 (A) (A) (A) (A) (A) (A) (A) (A) (A) (A) (A) (A)
                 (A) (A) (A) (A) (A) (A) (A) (A) (A) (A) (A) (A)
                 (A) (A) (A) (A) (A) (A) (A) (A) (A) (A) (A) (A)
                 (A) (A) (A) (A) (A) (A) (A) (A) (A) (A) (A) (A)
                 (A) (A) (A) (A) (A) (A) (A) (A) (A) (A) (A) (A)
                 (A) (A) (A) (A) (A) (A) (A) (A) (A) (A) (A) (A)
                 (A) (A) (A) (A) (A) (A) (A) (A) (A) (A) (A) (A)
                 (A) (A) (A) (A) (A) (A) (A) (A) (A) (A) (A) (A)
                 (A) (A) (A) (A) (A) (A) (A) (A) (A) (A) (A) (A)
                 (A) (A) (A) (A) (A) (A) (A) (A) (A) (A) (A) (A)
                 (A) (A) (A) (A) (A) (A) (A) (A) (A) (A) (A) (A)
 The electronic state is 1-A.
 Alpha  occ. eigenvalues --   -1.14695  -1.10083  -1.06494  -1.03915  -1.01499
 Alpha  occ. eigenvalues --   -0.99561  -0.99273  -0.99132  -0.98674  -0.98226
 Alpha  occ. eigenvalues --   -0.98169  -0.97832  -0.97641  -0.97336  -0.97227
 Alpha  occ. eigenvalues --   -0.96529  -0.96245  -0.96238  -0.96081  -0.95365
 Alpha  occ. eigenvalues --   -0.95224  -0.95038  -0.94509  -0.94267  -0.94215
 Alpha  occ. eigenvalues --   -0.93918  -0.93312  -0.92977  -0.91770  -0.91662
 Alpha  occ. eigenvalues --   -0.90684  -0.85416  -0.50546  -0.50351  -0.49484
 Alpha  occ. eigenvalues --   -0.49347  -0.48794  -0.48346  -0.48004  -0.47790
 Alpha  occ. eigenvalues --   -0.47416  -0.47062  -0.46681  -0.46274  -0.46136
 Alpha  occ. eigenvalues --   -0.45231  -0.44824  -0.44678  -0.44063  -0.44035
 Alpha  occ. eigenvalues --   -0.43890  -0.43436  -0.42766  -0.42602  -0.42435
 Alpha  occ. eigenvalues --   -0.41606  -0.41064  -0.40862  -0.40502  -0.39982
 Alpha  occ. eigenvalues --   -0.39576  -0.39526  -0.39141  -0.38881  -0.38720
 Alpha  occ. eigenvalues --   -0.38009  -0.37880  -0.37647  -0.37316  -0.37004
 Alpha  occ. eigenvalues --   -0.36349  -0.36176  -0.35822  -0.35602  -0.35156
 Alpha  occ. eigenvalues --   -0.35046  -0.34727  -0.34517  -0.34432  -0.34085
 Alpha  occ. eigenvalues --   -0.34073  -0.33934  -0.33830  -0.33594  -0.33538
 Alpha  occ. eigenvalues --   -0.32953  -0.32880  -0.32330  -0.32009  -0.31908
 Alpha  occ. eigenvalues --   -0.31719  -0.31624  -0.31410  -0.31269  -0.30942
 Alpha  occ. eigenvalues --   -0.30757  -0.30690  -0.30447  -0.30308  -0.30221
 Alpha  occ. eigenvalues --   -0.29862  -0.29563  -0.29550  -0.29267  -0.28854
 Alpha  occ. eigenvalues --   -0.28680  -0.28038  -0.27982  -0.27765  -0.27640
 Alpha  occ. eigenvalues --   -0.27470  -0.27434  -0.27391  -0.27176  -0.26933
 Alpha  occ. eigenvalues --   -0.26466  -0.26278  -0.26165  -0.26053  -0.25960
 Alpha  occ. eigenvalues --   -0.25790  -0.25586  -0.25502  -0.25374  -0.25256
 Alpha  occ. eigenvalues --   -0.25093  -0.24898  -0.24813  -0.24683  -0.24550
 Alpha  occ. eigenvalues --   -0.24255  -0.24163  -0.24018  -0.23667  -0.23501
 Alpha  occ. eigenvalues --   -0.23260  -0.23157  -0.22812  -0.22645  -0.22128
 Alpha  occ. eigenvalues --   -0.22016  -0.21931  -0.21837  -0.20925
 Alpha virt. eigenvalues --   -0.07263  -0.06844  -0.06428  -0.06377  -0.05685
 Alpha virt. eigenvalues --   -0.05134  -0.05025  -0.04766  -0.04391  -0.04210
 Alpha virt. eigenvalues --   -0.03521  -0.03430  -0.03321  -0.02999  -0.02706
 Alpha virt. eigenvalues --   -0.02497  -0.02303  -0.01964  -0.01453  -0.00980
 Alpha virt. eigenvalues --   -0.00966  -0.00467  -0.00390  -0.00179  -0.00026
 Alpha virt. eigenvalues --    0.00459   0.00826   0.01104   0.01116   0.01312
 Alpha virt. eigenvalues --    0.01490   0.01747   0.01870   0.02004   0.02210
 Alpha virt. eigenvalues --    0.02501   0.02735   0.02753   0.03314   0.03336
 Alpha virt. eigenvalues --    0.03420   0.03519   0.04101   0.04120   0.04344
 Alpha virt. eigenvalues --    0.04547   0.04602   0.04782   0.04902   0.05163
 Alpha virt. eigenvalues --    0.05311   0.05536   0.05947   0.06103   0.06320
 Alpha virt. eigenvalues --    0.06416   0.06564   0.06569   0.06985   0.07047
 Alpha virt. eigenvalues --    0.07069   0.07135   0.07240   0.07320   0.07381
 Alpha virt. eigenvalues --    0.07500   0.07587   0.07749   0.07765   0.07866
 Alpha virt. eigenvalues --    0.07940   0.07984   0.08091   0.08222   0.08245
 Alpha virt. eigenvalues --    0.08256   0.08364   0.08543   0.08562   0.08653
 Alpha virt. eigenvalues --    0.08851   0.08887   0.08916   0.09009   0.09177
 Alpha virt. eigenvalues --    0.09240   0.09264   0.09332   0.09556   0.09557
 Alpha virt. eigenvalues --    0.09639   0.09705   0.09736   0.09870   0.09938
 Alpha virt. eigenvalues --    0.10111   0.10156   0.10217   0.10239   0.10258
 Alpha virt. eigenvalues --    0.10318   0.10402   0.10470   0.10562   0.10605
 Alpha virt. eigenvalues --    0.10658   0.10776   0.10816   0.10829   0.10861
 Alpha virt. eigenvalues --    0.10905   0.10950   0.10953   0.10979   0.11007
 Alpha virt. eigenvalues --    0.11048   0.11089   0.11133   0.11136   0.11203
 Alpha virt. eigenvalues --    0.11206   0.11231   0.11253   0.11286   0.11309
 Alpha virt. eigenvalues --    0.11332   0.11351   0.11383   0.11408   0.11426
 Alpha virt. eigenvalues --    0.11447   0.11502   0.11545   0.11560   0.11573
 Alpha virt. eigenvalues --    0.11587   0.11613   0.11646   0.11656   0.11703
 Alpha virt. eigenvalues --    0.11706   0.11726   0.11743   0.11793   0.11834
 Alpha virt. eigenvalues --    0.11856   0.11906   0.11915   0.11974   0.11997
 Alpha virt. eigenvalues --    0.12009   0.12043   0.12073   0.12117   0.12147
 Alpha virt. eigenvalues --    0.12184   0.12231   0.12296   0.12323   0.12344
 Alpha virt. eigenvalues --    0.12356   0.12411   0.12421   0.12474   0.12528
 Alpha virt. eigenvalues --    0.12537   0.12620   0.12638   0.12685   0.12762
 Alpha virt. eigenvalues --    0.12770   0.12873   0.12901   0.12952   0.12989
 Alpha virt. eigenvalues --    0.12994   0.13005   0.13030   0.13096   0.13112
 Alpha virt. eigenvalues --    0.13155   0.13205   0.13219   0.13225   0.13294
 Alpha virt. eigenvalues --    0.13316   0.13352   0.13381   0.13416   0.13467
 Alpha virt. eigenvalues --    0.13504   0.13524   0.13554   0.13627   0.13665
 Alpha virt. eigenvalues --    0.13692   0.13736   0.13747   0.13777   0.13819
 Alpha virt. eigenvalues --    0.13883   0.13917   0.13995   0.14013   0.14126
 Alpha virt. eigenvalues --    0.14145   0.14180   0.14218   0.14338   0.14415
 Alpha virt. eigenvalues --    0.14426   0.14638   0.14641   0.14726   0.14837
 Alpha virt. eigenvalues --    0.14894   0.15033   0.15103   0.15164   0.15198
 Alpha virt. eigenvalues --    0.15241   0.15340   0.15432   0.15445   0.15483
 Alpha virt. eigenvalues --    0.15581   0.15646   0.15785   0.15803   0.15931
 Alpha virt. eigenvalues --    0.16026   0.16081   0.16245   0.16290   0.16369
 Alpha virt. eigenvalues --    0.16401   0.16450   0.16567   0.16685   0.16825
 Alpha virt. eigenvalues --    0.16862   0.17118   0.17128   0.17272   0.17598
 Alpha virt. eigenvalues --    0.17671   0.17765   0.17874   0.17921   0.18243
 Alpha virt. eigenvalues --    0.18265   0.18393   0.18500   0.18689   0.18750
 Alpha virt. eigenvalues --    0.18761   0.19343   0.19594   0.19628   0.20188
 Alpha virt. eigenvalues --    0.20433   0.20793   0.20852   0.21059   0.21193
 Alpha virt. eigenvalues --    0.21426   0.21911   0.22047   0.22904   0.23193
 Alpha virt. eigenvalues --    0.23496   0.25982   0.26342   0.28267   0.31485
 Alpha virt. eigenvalues --    0.32721   0.36296   0.37433   0.37921   0.39402
 Alpha virt. eigenvalues --    0.44055   0.44645   0.46478   0.46801   0.49778
 Alpha virt. eigenvalues --    0.50110   0.50260   0.52261
          Condensed to atoms (all electrons):
               1          2          3          4          5          6
     1  Mo   5.725956   0.000000   0.000000   0.000000   0.000000   0.000000
     2  S    0.000000   6.416289   0.000000   0.000000   0.000000   0.000000
     3  S    0.000000   0.000000   6.419737   0.000000   0.000000   0.000000
     4  Mo   0.000000   0.000000   0.000000   6.032429   0.000000   0.000000
     5  Mo   0.000000   0.000000   0.000000   0.000000   5.804380   0.000000
     6  Mo   0.000000   0.000000   0.000000   0.000000   0.000000   5.846198
     7  S    0.000000   0.000000   0.000000   0.000000   0.000000   0.000000
     8  S    0.000000   0.000000   0.000000   0.000000   0.000000   0.000000
     9  S    0.000000   0.000000   0.000000   0.000000   0.000000   0.000000
    10  S    0.000000   0.000000   0.000000   0.000000   0.000000   0.000000
    11  S    0.000000   0.000000   0.000000   0.000000   0.000000   0.000000
    12  S    0.000000   0.000000   0.000000   0.000000   0.000000   0.000000
    13  Mo   0.000000   0.000000   0.000000   0.000000   0.000000   0.000000
    14  Mo   0.000000   0.000000   0.000000   0.000000   0.000000   0.000000
    15  Mo   0.000000   0.000000   0.000000   0.000000   0.000000   0.000000
    16  S    0.000000   0.000000   0.000000   0.000000   0.000000   0.000000
    17  S    0.000000   0.000000   0.000000   0.000000   0.000000   0.000000
    18  S    0.000000   0.000000   0.000000   0.000000   0.000000   0.000000
    19  S    0.000000   0.000000   0.000000   0.000000   0.000000   0.000000
    20  S    0.000000   0.000000   0.000000   0.000000   0.000000   0.000000
    21  S    0.000000   0.000000   0.000000   0.000000   0.000000   0.000000
    22  Mo   0.000000   0.000000   0.000000   0.000000   0.000000   0.000000
    23  Mo   0.000000   0.000000   0.000000   0.000000   0.000000   0.000000
    24  Mo   0.000000   0.000000   0.000000   0.000000   0.000000   0.000000
    25  Mo   0.000000   0.000000   0.000000   0.000000   0.000000   0.000000
    26  Mo   0.000000   0.000000   0.000000   0.000000   0.000000   0.000000
    27  Mo   0.000000   0.000000   0.000000   0.000000   0.000000   0.000000
    28  Mo   0.000000   0.000000   0.000000   0.000000   0.000000   0.000000
    29  Mo   0.000000   0.000000   0.000000   0.000000   0.000000   0.000000
    30  Mo   0.000000   0.000000   0.000000   0.000000   0.000000   0.000000
    31  S    0.000000   0.000000   0.000000   0.000000   0.000000   0.000000
    32  S    0.000000   0.000000   0.000000   0.000000   0.000000   0.000000
    33  S    0.000000   0.000000   0.000000   0.000000   0.000000   0.000000
    34  S    0.000000   0.000000   0.000000   0.000000   0.000000   0.000000
    35  S    0.000000   0.000000   0.000000   0.000000   0.000000   0.000000
    36  S    0.000000   0.000000   0.000000   0.000000   0.000000   0.000000
    37  S    0.000000   0.000000   0.000000   0.000000   0.000000   0.000000
    38  S    0.000000   0.000000   0.000000   0.000000   0.000000   0.000000
    39  S    0.000000   0.000000   0.000000   0.000000   0.000000   0.000000
    40  S    0.000000   0.000000   0.000000   0.000000   0.000000   0.000000
    41  S    0.000000   0.000000   0.000000   0.000000   0.000000   0.000000
    42  S    0.000000   0.000000   0.000000   0.000000   0.000000   0.000000
    43  S    0.000000   0.000000   0.000000   0.000000   0.000000   0.000000
    44  S    0.000000   0.000000   0.000000   0.000000   0.000000   0.000000
    45  S    0.000000   0.000000   0.000000   0.000000   0.000000   0.000000
    46  S    0.000000   0.000000   0.000000   0.000000   0.000000   0.000000
    47  S    0.000000   0.000000   0.000000   0.000000   0.000000   0.000000
    48  S    0.000000   0.000000   0.000000   0.000000   0.000000   0.000000
               7          8          9         10         11         12
     1  Mo   0.000000   0.000000   0.000000   0.000000   0.000000   0.000000
     2  S    0.000000   0.000000   0.000000   0.000000   0.000000   0.000000
     3  S    0.000000   0.000000   0.000000   0.000000   0.000000   0.000000
     4  Mo   0.000000   0.000000   0.000000   0.000000   0.000000   0.000000
     5  Mo   0.000000   0.000000   0.000000   0.000000   0.000000   0.000000
     6  Mo   0.000000   0.000000   0.000000   0.000000   0.000000   0.000000
     7  S    5.849547   0.000000   0.000000   0.000000   0.000000   0.000000
     8  S    0.000000   6.002081   0.000000   0.000000   0.000000   0.000000
     9  S    0.000000   0.000000   5.840251   0.000000   0.000000   0.000000
    10  S    0.000000   0.000000   0.000000   5.849881   0.000000   0.000000
    11  S    0.000000   0.000000   0.000000   0.000000   6.002648   0.000000
    12  S    0.000000   0.000000   0.000000   0.000000   0.000000   5.840518
    13  Mo   0.000000   0.000000   0.000000   0.000000   0.000000   0.000000
    14  Mo   0.000000   0.000000   0.000000   0.000000   0.000000   0.000000
    15  Mo   0.000000   0.000000   0.000000   0.000000   0.000000   0.000000
    16  S    0.000000   0.000000   0.000000   0.000000   0.000000   0.000000
    17  S    0.000000   0.000000   0.000000   0.000000   0.000000   0.000000
    18  S    0.000000   0.000000   0.000000   0.000000   0.000000   0.000000
    19  S    0.000000   0.000000   0.000000   0.000000   0.000000   0.000000
    20  S    0.000000   0.000000   0.000000   0.000000   0.000000   0.000000
    21  S    0.000000   0.000000   0.000000   0.000000   0.000000   0.000000
    22  Mo   0.000000   0.000000   0.000000   0.000000   0.000000   0.000000
    23  Mo   0.000000   0.000000   0.000000   0.000000   0.000000   0.000000
    24  Mo   0.000000   0.000000   0.000000   0.000000   0.000000   0.000000
    25  Mo   0.000000   0.000000   0.000000   0.000000   0.000000   0.000000
    26  Mo   0.000000   0.000000   0.000000   0.000000   0.000000   0.000000
    27  Mo   0.000000   0.000000   0.000000   0.000000   0.000000   0.000000
    28  Mo   0.000000   0.000000   0.000000   0.000000   0.000000   0.000000
    29  Mo   0.000000   0.000000   0.000000   0.000000   0.000000   0.000000
    30  Mo   0.000000   0.000000   0.000000   0.000000   0.000000   0.000000
    31  S    0.000000   0.000000   0.000000   0.000000   0.000000   0.000000
    32  S    0.000000   0.000000   0.000000   0.000000   0.000000   0.000000
    33  S    0.000000   0.000000   0.000000   0.000000   0.000000   0.000000
    34  S    0.000000   0.000000   0.000000   0.000000   0.000000   0.000000
    35  S    0.000000   0.000000   0.000000   0.000000   0.000000   0.000000
    36  S    0.000000   0.000000   0.000000   0.000000   0.000000   0.000000
    37  S    0.000000   0.000000   0.000000   0.000000   0.000000   0.000000
    38  S    0.000000   0.000000   0.000000   0.000000   0.000000   0.000000
    39  S    0.000000   0.000000   0.000000   0.000000   0.000000   0.000000
    40  S    0.000000   0.000000   0.000000   0.000000   0.000000   0.000000
    41  S    0.000000   0.000000   0.000000   0.000000   0.000000   0.000000
    42  S    0.000000   0.000000   0.000000   0.000000   0.000000   0.000000
    43  S    0.000000   0.000000   0.000000   0.000000   0.000000   0.000000
    44  S    0.000000   0.000000   0.000000   0.000000   0.000000   0.000000
    45  S    0.000000   0.000000   0.000000   0.000000   0.000000   0.000000
    46  S    0.000000   0.000000   0.000000   0.000000   0.000000   0.000000
    47  S    0.000000   0.000000   0.000000   0.000000   0.000000   0.000000
    48  S    0.000000   0.000000   0.000000   0.000000   0.000000   0.000000
              13         14         15         16         17         18
     1  Mo   0.000000   0.000000   0.000000   0.000000   0.000000   0.000000
     2  S    0.000000   0.000000   0.000000   0.000000   0.000000   0.000000
     3  S    0.000000   0.000000   0.000000   0.000000   0.000000   0.000000
     4  Mo   0.000000   0.000000   0.000000   0.000000   0.000000   0.000000
     5  Mo   0.000000   0.000000   0.000000   0.000000   0.000000   0.000000
     6  Mo   0.000000   0.000000   0.000000   0.000000   0.000000   0.000000
     7  S    0.000000   0.000000   0.000000   0.000000   0.000000   0.000000
     8  S    0.000000   0.000000   0.000000   0.000000   0.000000   0.000000
     9  S    0.000000   0.000000   0.000000   0.000000   0.000000   0.000000
    10  S    0.000000   0.000000   0.000000   0.000000   0.000000   0.000000
    11  S    0.000000   0.000000   0.000000   0.000000   0.000000   0.000000
    12  S    0.000000   0.000000   0.000000   0.000000   0.000000   0.000000
    13  Mo   5.499796   0.000000   0.000000   0.000000   0.000000   0.000000
    14  Mo   0.000000   5.466752   0.000000   0.000000   0.000000   0.000000
    15  Mo   0.000000   0.000000   5.059616   0.000000   0.000000   0.000000
    16  S    0.000000   0.000000   0.000000   6.244888   0.000000   0.000000
    17  S    0.000000   0.000000   0.000000   0.000000   6.257918   0.000000
    18  S    0.000000   0.000000   0.000000   0.000000   0.000000   6.342075
    19  S    0.000000   0.000000   0.000000   0.000000   0.000000   0.000000
    20  S    0.000000   0.000000   0.000000   0.000000   0.000000   0.000000
    21  S    0.000000   0.000000   0.000000   0.000000   0.000000   0.000000
    22  Mo   0.000000   0.000000   0.000000   0.000000   0.000000   0.000000
    23  Mo   0.000000   0.000000   0.000000   0.000000   0.000000   0.000000
    24  Mo   0.000000   0.000000   0.000000   0.000000   0.000000   0.000000
    25  Mo   0.000000   0.000000   0.000000   0.000000   0.000000   0.000000
    26  Mo   0.000000   0.000000   0.000000   0.000000   0.000000   0.000000
    27  Mo   0.000000   0.000000   0.000000   0.000000   0.000000   0.000000
    28  Mo   0.000000   0.000000   0.000000   0.000000   0.000000   0.000000
    29  Mo   0.000000   0.000000   0.000000   0.000000   0.000000   0.000000
    30  Mo   0.000000   0.000000   0.000000   0.000000   0.000000   0.000000
    31  S    0.000000   0.000000   0.000000   0.000000   0.000000   0.000000
    32  S    0.000000   0.000000   0.000000   0.000000   0.000000   0.000000
    33  S    0.000000   0.000000   0.000000   0.000000   0.000000   0.000000
    34  S    0.000000   0.000000   0.000000   0.000000   0.000000   0.000000
    35  S    0.000000   0.000000   0.000000   0.000000   0.000000   0.000000
    36  S    0.000000   0.000000   0.000000   0.000000   0.000000   0.000000
    37  S    0.000000   0.000000   0.000000   0.000000   0.000000   0.000000
    38  S    0.000000   0.000000   0.000000   0.000000   0.000000   0.000000
    39  S    0.000000   0.000000   0.000000   0.000000   0.000000   0.000000
    40  S    0.000000   0.000000   0.000000   0.000000   0.000000   0.000000
    41  S    0.000000   0.000000   0.000000   0.000000   0.000000   0.000000
    42  S    0.000000   0.000000   0.000000   0.000000   0.000000   0.000000
    43  S    0.000000   0.000000   0.000000   0.000000   0.000000   0.000000
    44  S    0.000000   0.000000   0.000000   0.000000   0.000000   0.000000
    45  S    0.000000   0.000000   0.000000   0.000000   0.000000   0.000000
    46  S    0.000000   0.000000   0.000000   0.000000   0.000000   0.000000
    47  S    0.000000   0.000000   0.000000   0.000000   0.000000   0.000000
    48  S    0.000000   0.000000   0.000000   0.000000   0.000000   0.000000
              19         20         21         22         23         24
     1  Mo   0.000000   0.000000   0.000000   0.000000   0.000000   0.000000
     2  S    0.000000   0.000000   0.000000   0.000000   0.000000   0.000000
     3  S    0.000000   0.000000   0.000000   0.000000   0.000000   0.000000
     4  Mo   0.000000   0.000000   0.000000   0.000000   0.000000   0.000000
     5  Mo   0.000000   0.000000   0.000000   0.000000   0.000000   0.000000
     6  Mo   0.000000   0.000000   0.000000   0.000000   0.000000   0.000000
     7  S    0.000000   0.000000   0.000000   0.000000   0.000000   0.000000
     8  S    0.000000   0.000000   0.000000   0.000000   0.000000   0.000000
     9  S    0.000000   0.000000   0.000000   0.000000   0.000000   0.000000
    10  S    0.000000   0.000000   0.000000   0.000000   0.000000   0.000000
    11  S    0.000000   0.000000   0.000000   0.000000   0.000000   0.000000
    12  S    0.000000   0.000000   0.000000   0.000000   0.000000   0.000000
    13  Mo   0.000000   0.000000   0.000000   0.000000   0.000000   0.000000
    14  Mo   0.000000   0.000000   0.000000   0.000000   0.000000   0.000000
    15  Mo   0.000000   0.000000   0.000000   0.000000   0.000000   0.000000
    16  S    0.000000   0.000000   0.000000   0.000000   0.000000   0.000000
    17  S    0.000000   0.000000   0.000000   0.000000   0.000000   0.000000
    18  S    0.000000   0.000000   0.000000   0.000000   0.000000   0.000000
    19  S    6.237377   0.000000   0.000000   0.000000   0.000000   0.000000
    20  S    0.000000   6.324315   0.000000   0.000000   0.000000   0.000000
    21  S    0.000000   0.000000   6.241118   0.000000   0.000000   0.000000
[...]
 .,0.,0.,0.,0.,0.,0.,0.,0.,0.,0.,0.,0.,0.,0.,0.,0.,0.,0.,0.,0.,0.,0.,0.
 ,0.,0.,0.,0.,0.,0.,0.,0.,0.,0.,0.,0.,0.,0.,0.,0.,0.,0.,0.,0.,0.,0.,0.,
 0.,0.,0.,0.,0.,0.,0.,0.,0.,0.,0.,0.,0.,0.,0.,0.,0.,0.,0.,0.,0.,0.,0.,0
 .,0.,0.,0.,0.,0.,0.,0.,0.,0.,0.,0.,0.,0.,0.,0.,0.,0.,0.,0.,0.,0.,0.,0.
 ,0.,0.,0.,0.,0.,0.,0.,0.,0.,0.,0.,0.,0.,0.,0.,0.,0.,0.,0.,0.,0.,0.,0.,
 0.,0.,0.,0.,0.,0.,0.,0.,0.,0.,0.,0.,0.,0.,0.,0.,0.,0.,0.,0.,0.,0.,0.,0
 .,0.,0.,0.,0.,0.,0.,0.,0.,0.,0.,0.,0.,0.,0.,0.,0.,0.,0.,0.,0.,0.,0.,0.
 ,0.,0.,0.,0.,0.,0.,0.,0.,0.,0.,0.,0.,0.,0.,0.,0.,0.,0.,0.,0.,0.,0.,0.,
 0.,0.,0.,0.,0.,0.,0.,0.,0.,0.,0.,0.,0.,0.,0.,0.,0.,0.,0.,0.,0.,0.,0.,0
 .,0.,0.,0.,0.,0.,0.,0.,0.,0.,0.,0.,0.,0.,0.,0.,0.,0.,0.,0.,0.,0.,0.,0.
 ,0.,0.,0.,0.,0.,0.,0.,0.,0.,0.,0.,0.,0.,0.,0.,0.,0.,0.,0.,0.,0.,0.,0.,
 0.,0.,0.,0.,0.,0.,0.,0.,0.,0.,0.,0.,0.,0.,0.,0.,0.,0.,0.,0.,0.,0.,0.,0
 .,0.,0.,0.,0.,0.,0.,0.,0.,0.,0.,0.,0.,0.,0.,0.,0.,0.,0.,0.,0.,0.,0.,0.
 ,0.,0.,0.,0.,0.,0.,0.,0.,0.,0.,0.,0.,0.,0.,0.,0.,0.,0.,0.,0.,0.,0.,0.,
 0.,0.,0.,0.,0.,0.,0.,0.,0.,0.,0.,0.,0.,0.,0.,0.,0.,0.,0.,0.,0.,0.,0.,0
 .,0.,0.,0.,0.,0.,0.,0.,0.,0.,0.,0.,0.,0.,0.,0.,0.,0.,0.,0.,0.,0.,0.,0.
 ,0.,0.,0.,0.,0.,0.,0.,0.,0.,0.,0.,0.,0.,0.,0.,0.,0.,0.,0.,0.,0.,0.,0.,
 0.,0.,0.,0.,0.,0.,0.,0.,0.,0.,0.,0.,0.,0.,0.,0.,0.,0.,0.,0.,0.,0.,0.,0
 .,0.,0.,0.,0.,0.,0.,0.,0.,0.,0.,0.,0.,0.,0.,0.,0.,0.,0.,0.,0.,0.,0.,0.
 ,0.,0.,0.,0.,0.,0.,0.,0.,0.,0.,0.,0.,0.,0.,0.,0.,0.,0.,0.,0.,0.,0.,0.,
 0.,0.,0.,0.,0.,0.,0.,0.,0.,0.,0.,0.,0.,0.,0.,0.,0.,0.,0.,0.,0.,0.,0.,0
 .,0.,0.,0.,0.,0.,0.,0.,0.,0.,0.,0.,0.,0.,0.,0.,0.,0.,0.,0.,0.,0.,0.,0.
 ,0.,0.,0.,0.,0.,0.,0.,0.,0.,0.,0.,0.,0.,0.,0.,0.,0.,0.,0.,0.,0.,0.,0.,
 0.,0.,0.,0.,0.,0.,0.,0.,0.,0.,0.,0.,0.,0.,0.,0.,0.,0.,0.,0.,0.,0.,0.,0
 .,0.,0.,0.,0.,0.,0.,0.,0.,0.,0.,0.,0.,0.,0.,0.,0.,0.,0.,0.,0.,0.,0.,0.
 ,0.,0.,0.,0.,0.,0.,0.,0.,0.,0.,0.,0.,0.,0.,0.,0.,0.,0.,0.,0.,0.,0.,0.,
 0.,0.,0.,0.,0.,0.,0.,0.,0.,0.,0.,0.,0.,0.,0.,0.,0.,0.,0.,0.,0.,0.,0.,0
 .,0.,0.,0.,0.,0.,0.,0.,0.,0.,0.,0.,0.,0.,0.,0.,0.,0.,0.,0.,0.,0.,0.,0.
 ,0.,0.,0.,0.,0.,0.,0.,0.,0.,0.,0.,0.,0.,0.,0.,0.,0.,0.,0.,0.,0.,0.,0.,
 0.,0.,0.,0.,0.,0.,0.,0.,0.,0.,0.,0.,0.,0.,0.,0.,0.,0.,0.,0.,0.,0.,0.,0
 .,0.,0.,0.,0.,0.,0.,0.,0.,0.,0.,0.,0.,0.,0.,0.,0.,0.,0.,0.,0.,0.,0.,0.
 ,0.,0.,0.,0.,0.,0.,0.,0.,0.,0.,0.,0.,0.,0.,0.,0.,0.,0.,0.,0.,0.,0.,0.,
 0.,0.,0.,0.,0.,0.,0.,0.,0.,0.,0.,0.,0.,0.,0.,0.,0.,0.,0.,0.,0.,0.,0.,0
 .,0.,0.,0.,0.,0.,0.,0.,0.,0.,0.,0.,0.,0.,0.,0.,0.,0.,0.,0.,0.,0.,0.,0.
 ,0.,0.,0.,0.,0.,0.,0.,0.,0.,0.,0.,0.,0.,0.,0.,0.,0.,0.,0.,0.,0.,0.,0.,
 0.,0.,0.,0.,0.,0.,0.,0.,0.,0.,0.,0.,0.,0.,0.,0.,0.,0.,0.,0.,0.,0.,0.,0
 .,0.,0.,0.,0.,0.,0.,0.,0.,0.,0.,0.,0.,0.,0.,0.,0.,0.,0.,0.,0.,0.,0.,0.
 ,0.,0.,0.,0.,0.,0.,0.,0.,0.,0.,0.,0.,0.,0.,0.,0.,0.,0.,0.,0.,0.,0.,0.,
 0.,0.,0.,0.,0.,0.,0.,0.,0.,0.,0.,0.,0.,0.,0.,0.,0.,0.,0.,0.,0.,0.,0.,0
 .,0.,0.,0.,0.,0.,0.,0.,0.,0.,0.,0.,0.,0.,0.,0.,0.,0.,0.,0.,0.,0.,0.,0.
 ,0.,0.,0.,0.,0.,0.,0.,0.,0.,0.,0.,0.,0.,0.,0.,0.,0.,0.,0.,0.,0.,0.,0.,
 0.,0.,0.,0.,0.,0.,0.,0.,0.,0.,0.,0.,0.,0.,0.,0.,0.,0.,0.,0.,0.,0.,0.,0
 .,0.,0.,0.,0.,0.,0.,0.,0.,0.,0.,0.,0.,0.,0.,0.,0.,0.,0.,0.,0.,0.,0.,0.
 ,0.,0.,0.,0.,0.,0.,0.,0.,0.,0.,0.,0.,0.,0.,0.,0.,0.,0.,0.,0.,0.,0.,0.,
 0.,0.,0.,0.,0.,0.,0.,0.,0.,0.,0.,0.,0.,0.,0.,0.,0.,0.,0.,0.,0.,0.,0.,0
 .,0.,0.,0.,0.,0.,0.,0.,0.,0.,0.,0.,0.,0.,0.,0.,0.,0.,0.,0.,0.,0.,0.,0.
 ,0.,0.,0.,0.,0.,0.,0.,0.,0.,0.,0.,0.,0.,0.,0.,0.,0.,0.,0.,0.,0.,0.,0.,
 0.,0.,0.,0.,0.,0.,0.,0.,0.,0.,0.,0.,0.,0.,0.,0.,0.,0.,0.,0.,0.,0.,0.,0
 .,0.,0.,0.,0.,0.,0.,0.,0.,0.,0.,0.,0.,0.,0.,0.,0.,0.,0.,0.,0.,0.,0.,0.
 ,0.,0.,0.,0.,0.,0.,0.,0.,0.,0.,0.,0.,0.,0.,0.,0.,0.,0.,0.,0.,0.,0.,0.,
 0.,0.,0.,0.,0.,0.,0.,0.,0.,0.,0.,0.,0.,0.,0.,0.,0.,0.,0.,0.,0.,0.,0.,0
 .,0.,0.,0.,0.,0.,0.,0.,0.,0.,0.,0.,0.,0.,0.,0.,0.,0.,0.,0.,0.,0.,0.,0.
 ,0.,0.,0.,0.,0.,0.,0.,0.,0.,0.,0.,0.,0.,0.,0.,0.,0.,0.,0.,0.,0.,0.,0.,
 0.,0.,0.,0.,0.,0.,0.,0.,0.,0.,0.,0.,0.,0.,0.,0.,0.,0.,0.,0.,0.,0.,0.,0
 .,0.,0.,0.,0.,0.,0.,0.,0.,0.,0.,0.,0.,0.,0.,0.,0.,0.,0.,0.,0.,0.,0.,0.
 ,0.,0.,0.,0.,0.,0.,0.,0.,0.,0.,0.,0.,0.,0.,0.,0.,0.,0.,0.,0.,0.,0.,0.,
 0.,0.,0.,0.,0.,0.,0.,0.,0.,0.,0.,0.,0.,0.,0.,0.,0.,0.,0.,0.,0.,0.,0.,0
 .,0.,0.,0.,0.,0.,0.,0.,0.,0.,0.,0.,0.,0.,0.,0.,0.,0.,0.,0.,0.,0.,0.,0.
 ,0.,0.,0.,0.,0.,0.,0.,0.,0.,0.,0.,0.,0.,0.,0.,0.,0.,0.,0.,0.,0.,0.,0.,
 0.,0.,0.,0.,0.,0.,0.,0.,0.,0.,0.,0.,0.,0.,0.,0.,0.,0.,0.,0.,0.,0.,0.,0
 .,0.,0.,0.,0.,0.,0.,0.,0.,0.,0.,0.,0.,0.,0.,0.,0.,0.,0.,0.,0.,0.,0.,0.
 ,0.,0.,0.,0.,0.,0.,0.,0.,0.,0.,0.,0.,0.,0.,0.,0.,0.,0.,0.,0.,0.,0.,0.,
 0.,0.,0.,0.,0.,0.,0.,0.,0.,0.,0.,0.,0.,0.,0.,0.,0.,0.,0.,0.,0.,0.,0.,0
 .,0.,0.,0.,0.,0.,0.,0.,0.,0.,0.,0.,0.,0.,0.,0.,0.,0.,0.,0.,0.,0.,0.,0.
 ,0.,0.,0.,0.,0.,0.,0.,0.,0.,0.,0.,0.,0.,0.,0.,0.,0.,0.,0.,0.,0.,0.,0.,
 0.,0.,0.,0.,0.,0.,0.,0.,0.,0.,0.,0.,0.,0.,0.,0.,0.,0.,0.,0.,0.,0.,0.,0
 .,0.,0.,0.,0.,0.,0.,0.,0.,0.,0.,0.,0.,0.,0.,0.,0.,0.,0.,0.,0.,0.,0.,0.
 ,0.,0.,0.,0.,0.,0.,0.,0.,0.,0.,0.,0.,0.,0.,0.,0.,0.,0.,0.,0.,0.,0.,0.,
 0.,0.,0.,0.,0.,0.,0.,0.,0.,0.,0.,0.,0.,0.,0.,0.,0.,0.,0.,0.,0.,0.,0.,0
 .,0.,0.,0.,0.,0.,0.,0.,0.,0.,0.,0.,0.,0.,0.,0.,0.,0.,0.,0.,0.,0.,0.,0.
 ,0.,0.,0.,0.,0.,0.,0.,0.,0.,0.,0.,0.,0.,0.,0.,0.,0.,0.,0.,0.,0.,0.,0.,
 0.,0.,0.,0.,0.,0.,0.,0.,0.,0.,0.,0.,0.,0.,0.,0.,0.,0.,0.,0.,0.,0.,0.,0
 .,0.,0.,0.,0.,0.,0.,0.,0.,0.,0.,0.,0.,0.,0.,0.,0.,0.,0.,0.,0.,0.,0.,0.
 ,0.,0.,0.,0.,0.,0.,0.,0.,0.,0.,0.,0.,0.,0.,0.,0.,0.,0.,0.,0.,0.,0.,0.,
 0.,0.,0.,0.,0.,0.,0.,0.,0.,0.,0.,0.,0.,0.,0.,0.,0.,0.,0.,0.,0.,0.,0.,0
 .,0.,0.,0.,0.,0.,0.,0.,0.,0.,0.,0.,0.,0.,0.,0.,0.,0.,0.,0.,0.,0.,0.,0.
 ,0.,0.,0.,0.,0.,0.,0.,0.,0.,0.,0.,0.,0.,0.,0.,0.,0.,0.,0.,0.,0.,0.,0.,
 0.,0.,0.,0.,0.,0.,0.,0.,0.,0.,0.,0.,0.,0.,0.,0.,0.,0.,0.,0.,0.,0.,0.,0
 .,0.,0.,0.,0.,0.,0.,0.,0.,0.,0.,0.,0.,0.,0.,0.,0.,0.,0.,0.,0.,0.,0.,0.
 ,0.,0.,0.,0.,0.,0.,0.,0.,0.,0.,0.,0.,0.,0.,0.,0.,0.,0.,0.,0.,0.,0.,0.,
 0.,0.,0.,0.,0.,0.,0.,0.,0.,0.,0.,0.,0.,0.,0.,0.,0.,0.,0.,0.,0.,0.,0.,0
 .,0.,0.,0.,0.,0.,0.,0.,0.,0.,0.,0.,0.,0.,0.,0.,0.,0.,0.,0.,0.,0.,0.,0.
 ,0.,0.,0.,0.,0.,0.,0.,0.,0.,0.,0.,0.,0.,0.,0.,0.,0.,0.,0.,0.,0.,0.,0.,
 0.,0.,0.,0.,0.,0.,0.,0.,0.,0.,0.,0.,0.,0.,0.,0.,0.,0.,0.,0.,0.,0.,0.,0
 .,0.,0.,0.,0.,0.,0.,0.,0.,0.,0.,0.,0.,0.,0.,0.,0.,0.,0.,0.,0.,0.,0.,0.
 ,0.,0.,0.,0.,0.,0.,0.,0.,0.,0.,0.,0.,0.,0.,0.,0.,0.,0.,0.,0.,0.,0.,0.,
 0.,0.,0.,0.,0.,0.,0.,0.,0.,0.,0.,0.,0.,0.,0.,0.,0.,0.,0.,0.,0.,0.,0.,0
 .,0.,0.,0.,0.,0.,0.,0.,0.,0.,0.,0.,0.,0.,0.,0.,0.,0.,0.,0.,0.,0.,0.,0.
 ,0.,0.,0.,0.,0.,0.,0.,0.,0.,0.,0.,0.,0.,0.,0.,0.,0.,0.,0.,0.,0.,0.,0.,
 0.,0.,0.,0.,0.,0.,0.,0.,0.,0.,0.,0.,0.,0.,0.,0.,0.,0.,0.,0.,0.,0.,0.,0
 .,0.,0.,0.,0.,0.,0.,0.,0.,0.,0.,0.,0.,0.,0.,0.,0.,0.,0.,0.,0.,0.,0.,0.
 ,0.,0.,0.,0.,0.,0.,0.,0.,0.,0.,0.,0.,0.,0.,0.,0.,0.,0.,0.,0.,0.,0.,0.,
 0.,0.,0.,0.,0.,0.,0.,0.,0.,0.,0.,0.,0.,0.,0.,0.,0.,0.,0.,0.,0.,0.,0.,0
 .,0.,0.,0.,0.,0.,0.,0.,0.,0.,0.,0.,0.,0.,0.,0.,0.,0.,0.,0.,0.,0.,0.,0.
 ,0.,0.,0.,0.,0.,0.,0.,0.,0.,0.,0.,0.,0.,0.,0.,0.,0.,0.,0.,0.,0.,0.,0.,
 0.,0.,0.,0.,0.,0.,0.,0.,0.,0.,0.,0.,0.,0.,0.,0.,0.,0.,0.,0.,0.,0.,0.,0
 .,0.,0.,0.,0.,0.,0.,0.,0.,0.,0.,0.,0.,0.,0.,0.,0.,0.,0.,0.,0.,0.,0.,0.
 ,0.,0.,0.,0.,0.,0.,0.,0.,0.,0.,0.,0.,0.,0.,0.,0.,0.,0.,0.,0.,0.,0.,0.,
 0.,0.,0.,0.,0.,0.,0.,0.,0.,0.,0.,0.,0.,0.,0.,0.,0.,0.,0.,0.,0.,0.,0.,0
 .,0.,0.,0.,0.,0.,0.,0.,0.,0.,0.,0.,0.,0.,0.,0.,0.,0.,0.,0.,0.,0.,0.,0.
 ,0.,0.,0.,0.,0.,0.,0.,0.,0.,0.,0.,0.,0.,0.,0.,0.,0.,0.,0.,0.,0.,0.,0.,
 0.,0.,0.,0.,0.,0.,0.,0.,0.,0.,0.,0.,0.,0.,0.,0.,0.,0.,0.,0.,0.,0.,0.,0
 .,0.,0.,0.,0.,0.,0.,0.,0.,0.,0.,0.,0.,0.,0.,0.,0.,0.,0.,0.,0.,0.,0.,0.
 ,0.,0.,0.,0.,0.,0.,0.,0.,0.,0.,0.,0.,0.,0.,0.,0.,0.,0.,0.,0.,0.,0.,0.,
 0.,0.,0.,0.,0.,0.,0.,0.,0.,0.,0.,0.,0.,0.,0.,0.,0.,0.,0.,0.,0.,0.,0.,0
 .,0.,0.,0.,0.,0.,0.,0.,0.,0.,0.,0.,0.,0.,0.,0.,0.,0.,0.,0.,0.,0.,0.,0.
 ,0.,0.,0.,0.,0.,0.,0.,0.,0.,0.,0.,0.,0.,0.,0.,0.,0.,0.,0.,0.,0.,0.,0.,
 0.,0.,0.,0.,0.,0.,0.,0.,0.,0.,0.,0.,0.,0.,0.,0.,0.,0.,0.,0.,0.,0.,0.,0
 .,0.,0.,0.,0.,0.,0.,0.,0.,0.,0.,0.,0.,0.,0.,0.,0.,0.,0.,0.,0.,0.,0.,0.
 ,0.,0.,0.,0.,0.,0.,0.,0.,0.,0.,0.,0.,0.,0.,0.,0.,0.,0.,0.,0.,0.,0.,0.,
 0.,0.,0.,0.,0.,0.,0.,0.,0.,0.,0.,0.,0.,0.,0.,0.,0.,0.,0.,0.,0.,0.,0.,0
 .,0.,0.,0.,0.,0.,0.,0.,0.,0.,0.,0.,0.,0.,0.,0.,0.,0.,0.,0.,0.,0.,0.,0.
 ,0.,0.,0.,0.,0.,0.,0.,0.,0.,0.,0.,0.,0.,0.,0.,0.,0.,0.,0.,0.,0.,0.,0.,
 0.,0.,0.,0.,0.,0.,0.,0.,0.,0.,0.,0.,0.,0.,0.,0.,0.,0.,0.,0.,0.,0.,0.,0
 .,0.,0.,0.,0.,0.,0.,0.,0.,0.,0.,0.,0.,0.,0.,0.,0.,0.,0.,0.,0.,0.,0.,0.
 ,0.,0.,0.,0.,0.,0.,0.,0.,0.,0.,0.,0.,0.,0.,0.,0.,0.,0.,0.,0.,0.,0.,0.,
 0.,0.,0.,0.,0.,0.,0.,0.,0.,0.,0.,0.,0.,0.,0.,0.,0.,0.,0.,0.,0.,0.,0.,0
 .,0.,0.,0.,0.,0.,0.,0.,0.,0.,0.,0.,0.,0.,0.,0.,0.,0.,0.,0.,0.,0.,0.,0.
 ,0.,0.,0.,0.,0.,0.,0.,0.,0.,0.,0.,0.,0.,0.,0.,0.,0.,0.,0.,0.,0.,0.,0.,
 0.,0.,0.,0.,0.,0.,0.,0.,0.,0.,0.,0.,0.,0.,0.,0.,0.,0.,0.,0.,0.,0.,0.,0
 .,0.,0.,0.,0.,0.,0.,0.,0.,0.,0.,0.,0.,0.,0.,0.,0.,0.,0.,0.,0.,0.,0.,0.
 ,0.,0.,0.,0.,0.,0.,0.,0.,0.,0.,0.,0.,0.,0.,0.,0.,0.,0.,0.,0.,0.,0.,0.,
 0.,0.,0.,0.,0.,0.,0.,0.,0.,0.,0.,0.,0.,0.,0.,0.,0.,0.,0.,0.,0.,0.,0.,0
 .,0.,0.,0.,0.,0.,0.,0.,0.,0.,0.,0.,0.,0.,0.,0.,0.,0.,0.,0.,0.,0.,0.,0.
 ,0.,0.,0.,0.,0.,0.,0.,0.,0.,0.,0.,0.,0.,0.,0.,0.,0.,0.,0.,0.,0.,0.,0.,
 0.,0.,0.,0.,0.,0.,0.,0.,0.,0.,0.,0.,0.,0.,0.,0.,0.,0.,0.,0.,0.,0.,0.,0
 .,0.,0.,0.,0.,0.,0.,0.,0.,0.,0.,0.,0.,0.,0.,0.,0.,0.,0.,0.,0.,0.,0.,0.
 ,0.,0.,0.,0.,0.,0.,0.,0.,0.,0.,0.,0.,0.,0.,0.,0.,0.,0.,0.,0.,0.,0.,0.,
 0.,0.,0.,0.,0.,0.,0.,0.,0.,0.,0.,0.,0.,0.,0.,0.,0.,0.,0.,0.,0.,0.,0.,0
 .,0.,0.,0.,0.,0.,0.,0.,0.,0.,0.,0.,0.,0.,0.,0.,0.,0.,0.,0.,0.,0.,0.,0.
 ,0.,0.,0.,0.,0.,0.,0.,0.,0.,0.,0.,0.,0.,0.,0.,0.,0.,0.,0.,0.,0.,0.,0.,
 0.,0.,0.,0.,0.,0.,0.,0.,0.,0.,0.,0.,0.,0.,0.,0.,0.,0.,0.,0.,0.,0.,0.,0
 .,0.,0.,0.,0.,0.,0.,0.,0.,0.,0.,0.,0.,0.,0.,0.,0.,0.,0.,0.,0.,0.,0.,0.
 ,0.,0.,0.,0.,0.,0.,0.,0.,0.,0.,0.,0.,0.,0.,0.,0.,0.,0.,0.,0.,0.,0.,0.,
 0.,0.,0.,0.,0.,0.,0.,0.,0.,0.,0.,0.,0.,0.,0.,0.,0.,0.,0.,0.,0.,0.,0.,0
 .,0.,0.,0.,0.,0.,0.,0.,0.,0.,0.,0.,0.,0.,0.,0.,0.,0.,0.,0.,0.,0.,0.,0.
 ,0.,0.,0.,0.,0.,0.,0.,0.,0.,0.,0.,0.,0.,0.,0.,0.,0.,0.,0.,0.,0.,0.,0.,
 0.,0.,0.,0.,0.,0.,0.,0.,0.,0.,0.,0.,0.,0.,0.,0.,0.,0.,0.,0.,0.,0.,0.,0
 .,0.,0.,0.,0.,0.,0.,0.,0.,0.,0.,0.,0.,0.,0.,0.,0.,0.,0.,0.,0.,0.,0.,0.
 ,0.,0.,0.,0.,0.,0.,0.,0.,0.,0.,0.,0.,0.,0.,0.,0.,0.,0.,0.,0.,0.,0.,0.,
 0.,0.,0.,0.,0.,0.,0.,0.,0.,0.,0.,0.,0.,0.,0.,0.,0.,0.,0.,0.,0.,0.,0.,0
 .,0.,0.,0.,0.,0.,0.,0.,0.,0.,0.,0.,0.,0.,0.,0.,0.,0.,0.,0.,0.,0.,0.,0.
 ,0.,0.,0.,0.,0.,0.,0.,0.,0.,0.,0.,0.,0.,0.,0.,0.,0.,0.,0.,0.,0.,0.,0.,
 0.,0.,0.,0.,0.,0.,0.,0.,0.,0.,0.,0.,0.,0.,0.,0.,0.,0.,0.,0.,0.,0.,0.,0
 .,0.,0.,0.,0.,0.,0.,0.,0.,0.,0.,0.,0.,0.,0.,0.,0.,0.,0.,0.,0.,0.,0.,0.
 ,0.,0.,0.,0.,0.,0.,0.,0.,0.,0.,0.,0.,0.,0.,0.,0.,0.,0.,0.,0.,0.,0.,0.,
 0.,0.,0.,0.,0.,0.,0.,0.,0.,0.,0.,0.,0.,0.,0.,0.,0.,0.,0.,0.,0.,0.,0.,0
 .,0.,0.,0.,0.,0.,0.,0.,0.,0.,0.,0.,0.,0.,0.,0.,0.,0.,0.,0.,0.,0.,0.,0.
 ,0.,0.,0.,0.,0.,0.,0.,0.,0.,0.,0.,0.,0.,0.,0.,0.,0.,0.,0.,0.,0.,0.,0.,
 0.,0.,0.,0.,0.,0.,0.,0.,0.,0.,0.,0.,0.,0.,0.,0.,0.,0.,0.,0.,0.,0.,0.,0
 .,0.,0.,0.,0.,0.,0.,0.,0.,0.,0.,0.,0.,0.,0.,0.,0.,0.,0.,0.,0.,0.,0.,0.
 ,0.,0.,0.,0.,0.,0.,0.,0.,0.,0.,0.,0.,0.,0.,0.,0.,0.,0.,0.,0.,0.,0.,0.,
 0.,0.,0.,0.,0.,0.,0.,0.,0.,0.,0.,0.,0.,0.,0.,0.,0.,0.,0.,0.,0.,0.,0.,0
 .,0.,0.,0.,0.,0.,0.,0.,0.,0.,0.,0.,0.,0.,0.,0.,0.,0.,0.,0.,0.,0.,0.,0.
 ,0.,0.,0.,0.,0.,0.,0.,0.,0.,0.,0.,0.,0.,0.,0.,0.,0.,0.,0.,0.,0.,0.,0.,
 0.,0.,0.,0.,0.,0.,0.,0.,0.,0.,0.,0.,0.,0.,0.,0.,0.,0.,0.,0.,0.,0.,0.,0
 .,0.,0.,0.,0.,0.,0.,0.,0.,0.,0.,0.,0.,0.,0.,0.,0.,0.,0.,0.,0.,0.,0.,0.
 ,0.,0.,0.,0.,0.,0.,0.,0.,0.,0.,0.,0.,0.,0.,0.,0.,0.,0.,0.,0.,0.,0.,0.,
 0.,0.,0.,0.,0.,0.,0.,0.,0.,0.,0.,0.,0.,0.,0.,0.,0.,0.,0.,0.,0.,0.,0.,0
 .,0.,0.,0.,0.,0.,0.,0.,0.,0.,0.,0.,0.,0.,0.,0.,0.,0.,0.,0.,0.,0.,0.,0.
 ,0.,0.,0.,0.,0.,0.,0.,0.,0.,0.,0.,0.,0.,0.,0.,0.,0.,0.,0.,0.,0.,0.,0.,
 0.,0.,0.,0.,0.,0.,0.,0.,0.,0.,0.,0.,0.,0.,0.,0.,0.,0.,0.,0.,0.,0.,0.,0
 .,0.,0.,0.,0.,0.,0.,0.,0.,0.,0.,0.,0.,0.,0.,0.,0.,0.,0.,0.,0.,0.,0.,0.
 ,0.,0.,0.,0.,0.,0.,0.,0.,0.,0.,0.,0.,0.,0.,0.,0.,0.,0.,0.,0.,0.,0.,0.,
 0.,0.,0.,0.,0.,0.,0.,0.,0.,0.,0.,0.,0.,0.,0.,0.,0.,0.,0.,0.,0.,0.,0.,0
 .,0.,0.,0.,0.,0.,0.,0.,0.,0.,0.,0.,0.,0.,0.,0.,0.,0.,0.,0.,0.,0.,0.,0.
 ,0.,0.,0.,0.,0.,0.,0.,0.,0.,0.,0.,0.,0.,0.,0.,0.,0.,0.,0.,0.,0.,0.,0.,
 0.,0.,0.,0.,0.,0.,0.,0.,0.,0.,0.,0.,0.,0.,0.,0.,0.,0.,0.,0.,0.,0.,0.,0
 .,0.,0.,0.,0.,0.,0.,0.,0.,0.,0.,0.,0.,0.,0.,0.,0.,0.,0.,0.,0.,0.,0.,0.
 ,0.,0.,0.,0.,0.,0.,0.,0.,0.,0.,0.,0.,0.,0.,0.,0.,0.,0.,0.,0.,0.,0.,0.,
 0.,0.,0.,0.,0.,0.,0.,0.,0.,0.,0.,0.,0.,0.,0.,0.,0.,0.,0.,0.,0.,0.,0.,0
 .,0.,0.,0.,0.,0.,0.,0.,0.,0.,0.,0.,0.,0.,0.,0.,0.,0.,0.,0.,0.,0.,0.,0.
 ,0.,0.,0.,0.,0.,0.,0.,0.,0.,0.,0.,0.,0.,0.,0.,0.,0.,0.,0.,0.,0.,0.,0.,
 0.,0.,0.,0.,0.,0.,0.,0.,0.,0.,0.,0.,0.,0.,0.,0.,0.,0.,0.,0.,0.,0.,0.,0
 .,0.,0.,0.,0.,0.,0.,0.,0.,0.,0.,0.,0.,0.,0.,0.,0.,0.,0.,0.,0.,0.,0.,0.
 ,0.,0.,0.,0.,0.,0.,0.,0.,0.,0.,0.,0.,0.,0.,0.,0.,0.,0.,0.,0.,0.,0.,0.,
 0.,0.,0.,0.,0.,0.,0.,0.,0.,0.,0.,0.,0.,0.,0.,0.,0.,0.,0.,0.,0.,0.,0.,0
 .,0.,0.,0.,0.,0.,0.,0.,0.,0.,0.,0.,0.,0.,0.,0.,0.,0.,0.,0.,0.,0.,0.,0.
 ,0.,0.,0.,0.,0.,0.,0.,0.,0.,0.,0.,0.,0.,0.,0.,0.,0.,0.,0.,0.,0.,0.,0.,
 0.,0.,0.,0.,0.,0.,0.,0.,0.,0.,0.,0.,0.,0.,0.,0.,0.,0.,0.,0.,0.,0.,0.,0
 .,0.,0.,0.,0.,0.,0.,0.,0.,0.,0.,0.,0.,0.,0.,0.,0.,0.,0.,0.,0.,0.,0.,0.
 ,0.,0.,0.,0.,0.,0.,0.,0.,0.,0.,0.,0.,0.,0.,0.,0.,0.,0.,0.,0.,0.,0.,0.,
 0.,0.,0.,0.,0.,0.,0.,0.,0.,0.,0.,0.,0.,0.,0.,0.,0.,0.,0.,0.,0.,0.,0.,0
 .,0.,0.,0.,0.,0.,0.,0.,0.,0.,0.,0.,0.,0.,0.,0.,0.,0.,0.,0.,0.,0.,0.,0.
 ,0.,0.,0.,0.,0.,0.,0.,0.,0.,0.,0.,0.,0.,0.,0.,0.,0.,0.,0.,0.,0.,0.,0.,
 0.,0.,0.,0.,0.,0.,0.,0.,0.,0.,0.,0.,0.,0.,0.,0.,0.,0.,0.,0.,0.,0.,0.,0
 .,0.,0.,0.,0.,0.,0.,0.,0.,0.,0.,0.,0.,0.,0.,0.,0.,0.,0.,0.,0.,0.,0.,0.
 ,0.,0.,0.,0.,0.,0.,0.,0.,0.,0.,0.,0.,0.,0.,0.,0.,0.,0.,0.,0.,0.,0.,0.,
 0.,0.,0.,0.,0.,0.,0.,0.,0.,0.,0.,0.,0.,0.,0.,0.,0.,0.,0.,0.,0.,0.,0.,0
 .,0.,0.,0.,0.,0.,0.,0.,0.,0.,0.,0.,0.,0.,0.,0.,0.,0.,0.,0.,0.,0.,0.,0.
 ,0.,0.,0.,0.,0.,0.,0.,0.,0.,0.,0.,0.,0.,0.,0.,0.,0.,0.,0.,0.,0.,0.,0.,
 0.,0.,0.,0.,0.,0.,0.,0.,0.,0.,0.,0.,0.,0.,0.,0.,0.,0.,0.,0.,0.,0.,0.,0
 .,0.,0.,0.,0.,0.,0.,0.,0.,0.,0.,0.,0.,0.,0.,0.,0.,0.,0.,0.,0.,0.,0.,0.
 ,0.,0.,0.,0.,0.,0.,0.,0.,0.,0.,0.,0.,0.,0.,0.,0.,0.,0.,0.,0.,0.,0.,0.,
 0.,0.,0.,0.,0.,0.,0.,0.,0.,0.,0.,0.,0.,0.,0.,0.,0.,0.,0.,0.,0.,0.,0.,0
 .,0.,0.,0.,0.,0.,0.,0.,0.,0.,0.,0.,0.,0.,0.,0.,0.,0.,0.,0.,0.,0.,0.,0.
 ,0.,0.,0.,0.,0.,0.,0.,0.,0.,0.,0.,0.,0.,0.,0.,0.,0.,0.,0.,0.,0.,0.,0.,
 0.,0.,0.,0.,0.,0.,0.,0.,0.,0.,0.,0.,0.,0.,0.,0.,0.,0.,0.,0.,0.,0.,0.,0
 .,0.,0.,0.,0.,0.,0.,0.,0.,0.,0.,0.,0.,0.,0.,0.,0.,0.,0.,0.,0.,0.,0.,0.
 ,0.,0.,0.,0.,0.,0.,0.,0.,0.,0.,0.,0.,0.,0.,0.,0.,0.,0.,0.,0.,0.,0.,0.,
 0.,0.,0.,0.,0.,0.,0.,0.,0.,0.,0.,0.,0.,0.,0.,0.,0.,0.,0.,0.,0.,0.,0.,0
 .,0.,0.,0.,0.,0.,0.,0.,0.,0.,0.,0.,0.,0.,0.,0.,0.,0.,0.,0.,0.,0.,0.,0.
 ,0.,0.,0.,0.,0.,0.,0.,0.,0.,0.,0.,0.,0.,0.,0.,0.,0.,0.,0.,0.,0.,0.,0.,
 0.,0.,0.,0.,0.,0.,0.,0.,0.,0.,0.,0.,0.,0.,0.,0.,0.,0.,0.,0.,0.,0.,0.,0
 .,0.,0.,0.,0.,0.,0.,0.,0.,0.,0.,0.,0.,0.,0.,0.,0.,0.,0.,0.,0.,0.,0.,0.
 ,0.,0.,0.,0.,0.,0.,0.,0.,0.,0.,0.,0.,0.,0.,0.,0.,0.,0.,0.,0.,0.,0.,0.,
 0.,0.,0.,0.,0.,0.,0.,0.,0.,0.,0.,0.,0.,0.,0.,0.,0.,0.,0.,0.,0.,0.,0.,0
 .,0.,0.,0.,0.,0.,0.,0.,0.,0.,0.,0.,0.,0.,0.,0.,0.,0.,0.,0.,0.,0.,0.,0.
 ,0.,0.,0.,0.,0.,0.,0.,0.,0.,0.,0.,0.,0.,0.,0.,0.,0.,0.,0.,0.,0.,0.,0.,
 0.,0.,0.,0.,0.,0.,0.,0.,0.,0.,0.,0.,0.,0.,0.,0.,0.,0.,0.,0.,0.,0.,0.,0
 .,0.,0.,0.,0.,0.,0.,0.,0.,0.,0.,0.,0.,0.,0.,0.,0.,0.,0.,0.,0.,0.,0.,0.
 ,0.,0.,0.,0.,0.,0.,0.,0.,0.,0.,0.,0.,0.,0.,0.,0.,0.,0.,0.,0.,0.,0.,0.,
 0.,0.,0.,0.,0.,0.,0.,0.,0.,0.,0.,0.,0.,0.,0.,0.,0.,0.,0.,0.,0.,0.,0.,0
 .,0.,0.,0.,0.,0.,0.,0.,0.,0.,0.,0.,0.,0.,0.,0.,0.,0.,0.,0.,0.,0.,0.,0.
 ,0.,0.,0.,0.,0.,0.,0.,0.,0.,0.,0.,0.,0.,0.,0.,0.,0.,0.,0.,0.,0.,0.,0.,
 0.,0.,0.,0.,0.,0.,0.,0.,0.,0.,0.,0.,0.,0.,0.,0.,0.,0.,0.,0.,0.,0.,0.,0
 .,0.,0.,0.,0.,0.,0.,0.,0.,0.,0.,0.,0.,0.,0.,0.,0.,0.,0.,0.,0.,0.,0.,0.
 ,0.,0.,0.,0.,0.,0.,0.,0.,0.,0.,0.,0.,0.,0.,0.,0.,0.,0.,0.,0.,0.,0.,0.,
 0.,0.,0.,0.,0.,0.,0.,0.,0.,0.,0.,0.,0.,0.,0.,0.,0.,0.,0.,0.,0.,0.,0.,0
 .,0.,0.,0.,0.,0.,0.,0.,0.,0.,0.,0.,0.,0.,0.,0.,0.,0.,0.,0.,0.,0.,0.,0.
 ,0.,0.,0.,0.,0.,0.,0.,0.,0.,0.,0.,0.,0.,0.,0.,0.,0.,0.,0.,0.,0.,0.,0.,
 0.,0.,0.,0.,0.,0.,0.,0.,0.,0.,0.,0.,0.,0.,0.,0.,0.,0.,0.,0.,0.,0.,0.,0
 .,0.,0.,0.,0.,0.,0.,0.,0.,0.,0.,0.,0.,0.,0.,0.,0.,0.,0.,0.,0.,0.,0.,0.
 ,0.,0.,0.,0.,0.,0.,0.,0.,0.,0.,0.,0.,0.,0.,0.,0.,0.,0.,0.,0.,0.,0.,0.,
 0.,0.,0.,0.,0.,0.,0.,0.,0.,0.,0.,0.,0.,0.,0.,0.,0.,0.,0.,0.,0.,0.,0.,0
 .,0.,0.,0.,0.,0.,0.,0.,0.,0.,0.,0.,0.,0.,0.,0.,0.,0.,0.,0.,0.,0.,0.,0.
 ,0.,0.,0.,0.,0.,0.,0.,0.,0.,0.,0.,0.,0.,0.,0.,0.,0.,0.,0.,0.,0.,0.,0.,
 0.,0.,0.,0.,0.,0.,0.,0.,0.,0.,0.,0.,0.,0.,0.,0.,0.,0.,0.,0.,0.,0.,0.,0
 .,0.,0.,0.,0.,0.,0.,0.,0.,0.,0.,0.,0.,0.,0.,0.,0.,0.,0.,0.,0.,0.,0.,0.
 ,0.,0.,0.,0.,0.,0.,0.,0.,0.,0.,0.,0.,0.,0.,0.,0.,0.,0.,0.,0.,0.,0.,0.,
 0.,0.,0.,0.,0.,0.,0.,0.,0.,0.,0.,0.,0.,0.,0.,0.,0.,0.,0.,0.,0.,0.,0.,0
 .,0.,0.,0.,0.,0.,0.,0.,0.,0.,0.,0.,0.,0.,0.,0.,0.,0.,0.,0.,0.,0.,0.,0.
 ,0.,0.,0.,0.,0.,0.,0.,0.,0.,0.,0.,0.,0.,0.,0.,0.,0.,0.,0.,0.,0.,0.,0.,
 0.,0.,0.,0.,0.,0.,0.,0.,0.,0.,0.,0.,0.,0.,0.,0.,0.,0.,0.,0.,0.,0.,0.,0
 .,0.,0.,0.,0.,0.,0.,0.,0.,0.,0.,0.,0.,0.,0.,0.,0.,0.,0.,0.,0.,0.,0.,0.
 ,0.,0.,0.,0.,0.,0.,0.,0.,0.,0.,0.,0.,0.,0.,0.,0.,0.,0.,0.,0.,0.,0.,0.,
 0.,0.,0.,0.,0.,0.,0.,0.,0.,0.,0.,0.,0.,0.,0.,0.,0.,0.,0.,0.,0.,0.,0.,0
 .,0.,0.,0.,0.,0.,0.,0.,0.,0.,0.,0.,0.,0.,0.,0.,0.,0.,0.,0.,0.,0.,0.,0.
 ,0.,0.,0.,0.,0.,0.,0.,0.,0.,0.,0.,0.,0.,0.,0.,0.,0.,0.,0.,0.,0.,0.,0.,
 0.,0.,0.,0.,0.,0.,0.,0.,0.,0.,0.,0.,0.,0.,0.,0.,0.,0.,0.,0.,0.,0.,0.,0
 .,0.,0.,0.,0.,0.,0.,0.,0.,0.,0.,0.,0.,0.,0.,0.,0.,0.,0.,0.,0.,0.,0.,0.
 ,0.,0.,0.,0.,0.,0.,0.,0.,0.,0.,0.,0.,0.,0.,0.,0.,0.,0.,0.,0.,0.,0.,0.,
 0.,0.,0.,0.,0.,0.,0.,0.,0.,0.,0.,0.,0.,0.,0.,0.,0.,0.,0.,0.,0.,0.,0.,0
 .,0.,0.,0.,0.,0.,0.,0.,0.,0.,0.,0.,0.,0.,0.,0.,0.,0.,0.,0.,0.,0.,0.,0.
 ,0.,0.,0.,0.,0.,0.,0.,0.,0.,0.,0.,0.,0.,0.,0.,0.,0.,0.,0.,0.,0.,0.,0.,
 0.,0.,0.,0.,0.,0.,0.,0.,0.,0.,0.,0.,0.,0.,0.,0.,0.,0.,0.,0.,0.,0.,0.,0
 .,0.,0.,0.,0.,0.,0.,0.,0.,0.,0.,0.,0.,0.,0.,0.,0.,0.,0.,0.,0.,0.,0.,0.
 ,0.,0.,0.,0.,0.,0.,0.,0.,0.,0.,0.,0.,0.,0.,0.,0.,0.,0.,0.,0.,0.,0.,0.,
 0.,0.,0.,0.,0.,0.,0.,0.,0.,0.,0.,0.,0.,0.,0.,0.,0.,0.,0.,0.,0.,0.,0.,0
 .,0.,0.,0.,0.,0.,0.,0.,0.,0.,0.,0.,0.,0.,0.,0.,0.,0.,0.,0.,0.,0.,0.,0.
 ,0.,0.,0.,0.,0.,0.,0.,0.,0.,0.,0.,0.,0.,0.,0.,0.,0.,0.,0.,0.,0.,0.,0.,
 0.,0.,0.,0.,0.,0.,0.,0.,0.,0.,0.,0.,0.,0.,0.,0.,0.,0.,0.,0.,0.,0.,0.,0
 .,0.,0.,0.,0.,0.,0.,0.,0.,0.,0.,0.,0.,0.,0.,0.,0.,0.,0.,0.,0.,0.,0.,0.
 ,0.,0.,0.,0.,0.,0.,0.,0.,0.,0.,0.,0.,0.,0.,0.,0.,0.,0.,0.,0.,0.,0.,0.,
 0.,0.,0.,0.,0.,0.,0.,0.,0.,0.,0.,0.,0.,0.,0.,0.,0.,0.,0.,0.,0.,0.,0.,0
 .,0.,0.,0.,0.,0.,0.,0.,0.,0.,0.,0.,0.,0.,0.,0.,0.,0.,0.,0.,0.,0.,0.,0.
 ,0.,0.,0.,0.,0.,0.,0.,0.,0.,0.,0.,0.,0.,0.,0.,0.,0.,0.,0.,0.,0.,0.,0.,
 0.,0.,0.,0.,0.,0.,0.,0.,0.,0.,0.,0.,0.,0.,0.,0.,0.,0.,0.,0.,0.,0.,0.,0
 .,0.,0.,0.,0.,0.,0.,0.,0.,0.,0.,0.,0.,0.,0.,0.,0.,0.,0.,0.,0.,0.,0.,0.
 ,0.,0.,0.,0.,0.,0.,0.,0.,0.,0.,0.,0.,0.,0.,0.,0.,0.,0.,0.,0.,0.,0.,0.,
 0.,0.,0.,0.,0.,0.,0.,0.,0.,0.,0.,0.,0.,0.,0.,0.,0.,0.,0.,0.,0.,0.,0.,0
 .,0.,0.,0.,0.,0.,0.,0.,0.,0.,0.,0.,0.,0.,0.,0.,0.,0.,0.,0.,0.,0.,0.,0.
 ,0.,0.,0.,0.,0.,0.,0.,0.,0.,0.,0.,0.,0.,0.,0.,0.,0.,0.,0.,0.,0.,0.,0.,
 0.,0.,0.,0.,0.,0.,0.,0.,0.,0.,0.,0.,0.,0.,0.,0.,0.,0.,0.,0.,0.,0.,0.,0
 .,0.,0.,0.,0.,0.,0.,0.,0.,0.,0.,0.,0.,0.,0.,0.,0.,0.,0.,0.,0.,0.,0.,0.
 ,0.,0.,0.,0.,0.,0.,0.,0.,0.,0.,0.,0.||0.,0.,0.,0.,0.,0.,0.,0.,0.,0.,0.
 ,0.,0.,0.,0.,0.,0.,0.,0.,0.,0.,0.,0.,0.,0.,0.,0.,0.,0.,0.,0.,0.,0.,0.,
 0.,0.,0.,0.,0.,0.,0.,0.,0.,0.,0.,0.,0.,0.,0.,0.,0.,0.,0.,0.,0.,0.,0.,0
 .,0.,0.,0.00001362,-0.00001186,-0.00016641,0.,0.,0.,0.,0.,0.,0.,0.,0.,
 0.,0.,0.,0.,0.,0.,0.,0.,0.,0.,0.,0.,0.,0.,0.,0.,0.,0.,0.,0.,0.,0.,0.,0
 .,0.,0.,0.,0.,0.,0.,0.,0.,0.,0.,0.,0.,0.,0.,0.,0.,0.,0.,0.,0.,0.,0.,0.
 ,0.,0.,0.,0.,0.,0.,0.,0.,0.,0.,0.,0.,0.,0.,0.,0.,0.,0.,0.,0.,0.,0.,0.,
 0.,0.|||@


 There ain't no surer way to find out whether you
 like people or hate them than to travel with them.
                                     -- Mark Twain
 Job cpu time:       0 days  0 hours  1 minutes 56.0 seconds.
 File lengths (MBytes):  RWF=    730 Int=      0 D2E=      0 Chk=     11 Scr=      1
 Normal termination of Gaussian 09 at Sun Mar 08 15:44:32 2026.
