 Entering Link 1 = C:\G09W\l1.exe PID=      2596.
  
 Copyright (c) 1988,1990,1992,1993,1995,1998,2003,2009,2013,
            Gaussian, Inc.  All Rights Reserved.
  
 This is part of the Gaussian(R) 09 program.  It is based on
 the Gaussian(R) 03 system (copyright 2003, Gaussian, Inc.),
 the Gaussian(R) 98 system (copyright 1998, Gaussian, Inc.),
 the Gaussian(R) 94 system (copyright 1995, Gaussian, Inc.),
 the Gaussian 92(TM) system (copyright 1992, Gaussian, Inc.),
 the Gaussian 90(TM) system (copyright 1990, Gaussian, Inc.),
 the Gaussian 88(TM) system (copyright 1988, Gaussian, Inc.),
 the Gaussian 86(TM) system (copyright 1986, Carnegie Mellon
 University), and the Gaussian 82(TM) system (copyright 1983,
 Carnegie Mellon University). Gaussian is a federally registered
 trademark of Gaussian, Inc.
  
 This software contains proprietary and confidential information,
 including trade secrets, belonging to Gaussian, Inc.
  
 This software is provided under written license and may be
 used, copied, transmitted, or stored only in accord with that
 written license.
  
 The following legend is applicable only to US Government
 contracts under FAR:
  
                    RESTRICTED RIGHTS LEGEND
  
 Use, reproduction and disclosure by the US Government is
 subject to restrictions as set forth in subparagraphs (a)
 and (c) of the Commercial Computer Software - Restricted
 Rights clause in FAR 52.227-19.
  
 Gaussian, Inc.
 340 Quinnipiac St., Bldg. 40, Wallingford CT 06492
  
  
 ---------------------------------------------------------------
 Warning -- This program may not be used in any manner that
 competes with the business of Gaussian, Inc. or will provide
 assistance to any competitor of Gaussian, Inc.  The licensee
 of this program is prohibited from giving any competitor of
 Gaussian, Inc. access to this program.  By using this program,
 the user acknowledges that Gaussian, Inc. is engaged in the
 business of creating and licensing software in the field of
 computational chemistry and represents and warrants to the
 licensee that it is not a competitor of Gaussian, Inc. and that
 it will not use this program in any manner prohibited above.
 ---------------------------------------------------------------
  

 Cite this work as:
 Gaussian 09, Revision D.01,
 M. J. Frisch, G. W. Trucks, H. B. Schlegel, G. E. Scuseria, 
 M. A. Robb, J. R. Cheeseman, G. Scalmani, V. Barone, B. Mennucci, 
 G. A. Petersson, H. Nakatsuji, M. Caricato, X. Li, H. P. Hratchian, 
 A. F. Izmaylov, J. Bloino, G. Zheng, J. L. Sonnenberg, M. Hada, 
 M. Ehara, K. Toyota, R. Fukuda, J. Hasegawa, M. Ishida, T. Nakajima, 
 Y. Honda, O. Kitao, H. Nakai, T. Vreven, J. A. Montgomery, Jr., 
 J. E. Peralta, F. Ogliaro, M. Bearpark, J. J. Heyd, E. Brothers, 
 K. N. Kudin, V. N. Staroverov, T. Keith, R. Kobayashi, J. Normand, 
 K. Raghavachari, A. Rendell, J. C. Burant, S. S. Iyengar, J. Tomasi, 
 M. Cossi, N. Rega, J. M. Millam, M. Klene, J. E. Knox, J. B. Cross, 
 V. Bakken, C. Adamo, J. Jaramillo, R. Gomperts, R. E. Stratmann, 
 O. Yazyev, A. J. Austin, R. Cammi, C. Pomelli, J. W. Ochterski, 
 R. L. Martin, K. Morokuma, V. G. Zakrzewski, G. A. Voth, 
 P. Salvador, J. J. Dannenberg, S. Dapprich, A. D. Daniels, 
 O. Farkas, J. B. Foresman, J. V. Ortiz, J. Cioslowski, 
 and D. J. Fox, Gaussian, Inc., Wallingford CT, 2013.
 
 ******************************************
 Gaussian 09:  IA32W-G09RevD.01 24-Apr-2013
                05-Jan-2025 
 ******************************************
 %nprocshared=2
 Will use up to    2 processors via shared memory.
 %mem=1GB
 %chk=G:\My Drive\Boro Kaaz\Pristine MoS2\H2S\MoS2+H2S_AMAN_freq.chk
 -----------------------------------
 # freq pm6 scf=qc geom=connectivity
 -----------------------------------
 1/10=4,30=1,38=1,57=2/1,3;
 2/12=2,17=6,18=5,40=1/2;
 3/5=2,16=1,25=1,41=3900000,71=2,140=1/1,2,3;
 4/35=1/1;
 5/5=2,8=3,35=1,38=5,98=1/8;
 8/6=4,10=90,11=11/1;
 11/6=1,8=1,9=11,15=111,16=1/1,2,10;
 10/6=1/2;
 6/7=2,8=2,9=2,10=2,18=1,28=1/1;
 7/8=1,10=1,25=1/1,2,3,16;
 1/10=4,30=1/3;
 99//99;
 -------------------
 Title Card Required
 -------------------
 Symbolic Z-matrix:
 Charge =  0 Multiplicity = 1
 Mo                   -1   -0.73623  -4.97927   0.50029 
 S                    -1   -2.06678  -3.92971   2.22356 
 S                    -1   -2.72196  -4.48538  -0.78599 
 Mo                   -1    2.36003  -4.71641  -0.22231 
 Mo                   -1    5.4563   -4.45354  -0.9449 
 Mo                   -1    8.55257  -4.19068  -1.6675 
 S                    -1    1.02949  -3.66685   1.50096 
 S                    -1    4.12576  -3.40399   0.77837 
 S                    -1    7.22202  -3.14113   0.05577 
 S                    -1    0.3743   -4.22252  -1.50859 
 S                    -1    3.47057  -3.95966  -2.23119 
 S                    -1    6.56684  -3.6968   -2.95379 
 Mo                   -1   -2.61437  -2.40125   0.43317 
 Mo                   -1   -4.49251   0.17678   0.36605 
 Mo                   -1   -6.37065   2.7548    0.29893 
 S                    -1   -3.94492  -1.35169   2.15644 
 S                    -1   -5.82306   1.22633   2.08932 
 S                    -1   -7.7012    3.80436   2.0222 
 S                    -1   -4.6001   -1.90736  -0.85311 
 S                    -1   -6.47824   0.67066  -0.92023 
 S                    -1   -8.35638   3.24868  -0.98735 
 Mo                   -1    0.48189  -2.13838  -0.28943 
 Mo                   -1   -1.39625   0.43964  -0.35655 
 Mo                   -1   -3.27439   3.01766  -0.42367 
 Mo                   -1    3.57816  -1.87552  -1.01202 
 Mo                   -1    1.70002   0.7025   -1.07914 
 Mo                   -1   -0.17812   3.28052  -1.14626 
 Mo                   -1    6.67443  -1.61266  -1.73462 
 Mo                   -1    4.79629   0.96536  -1.80174 
 Mo                   -1    2.91815   3.54339  -1.86886 
 S                    -1   -0.84865  -1.08883   1.43384 
 S                    -1   -2.72679   1.4892    1.36672 
 S                    -1   -4.60493   4.06722   1.2996 
 S                    -1    2.24762  -0.82597   0.71125 
 S                    -1    0.36948   1.75206   0.64413 
 S                    -1   -1.50866   4.33008   0.577 
 S                    -1    5.34388  -0.5631   -0.01135 
 S                    -1    3.46575   2.01492  -0.07847 
 S                    -1    1.58761   4.59294  -0.14559 
 S                    -1   -1.50384  -1.6445   -1.57571 
 S                    -1   -3.38198   0.93352  -1.64283 
 S                    -1   -5.26012   3.51155  -1.70995 
 S                    -1    1.59243  -1.38164  -2.29831 
 S                    -1   -0.28571   1.19639  -2.36543 
 S                    -1   -2.16385   3.77441  -2.43255 
 S                    -1    4.6887   -1.11878  -3.02091 
 S                    -1    2.81056   1.45925  -3.08803 
 S                    -1    0.93242   4.03727  -3.15515 
 S                    0     0.90132   0.09337   2.25834 
 H                    0     2.21132   0.09337   2.25834 
 H                    0     0.46403   1.32823   2.25834 
 

 GradGradGradGradGradGradGradGradGradGradGradGradGradGradGradGradGradGrad
 Berny optimization.
 Initialization pass.
 Trust Radius=3.00D-01 FncErr=1.00D-07 GrdErr=1.00D-07
 Number of steps in this run=      2 maximum allowed number of steps=      2.
 GradGradGradGradGradGradGradGradGradGradGradGradGradGradGradGradGradGrad

 Stoichiometry    H2Mo16S33
 Framework group  C1[X(H2Mo16S33)]
 Deg. of freedom   147
 Full point group                 C1      NOp   1
 Largest Abelian subgroup         C1      NOp   1
 Largest concise Abelian subgroup C1      NOp   1
                         Standard orientation:                         
 ---------------------------------------------------------------------
 Center     Atomic      Atomic             Coordinates (Angstroms)
 Number     Number       Type             X           Y           Z
 ---------------------------------------------------------------------
      1         42           0        0.797322   -4.785480   -0.043961
      2         16           0       -1.044772   -4.785439    1.520730
      3         16           0       -1.044443   -4.785586   -1.609038
      4         42           0        3.560188   -3.190274   -0.043746
      5         42           0        6.323055   -1.595067   -0.043531
      6         42           0        9.085921    0.000139   -0.043316
      7         16           0        1.718094   -3.190232    1.520945
      8         16           0        4.480961   -1.595026    1.521160
      9         16           0        7.243827    0.000181    1.521375
     10         16           0        1.718423   -3.190380   -1.608824
     11         16           0        4.481289   -1.595174   -1.608609
     12         16           0        7.244156    0.000033   -1.608394
     13         42           0       -1.965601   -3.190371   -0.044326
     14         42           0       -4.728523   -1.595262   -0.044692
     15         42           0       -7.491446   -0.000152   -0.045057
     16         16           0       -3.807695   -3.190329    1.520365
     17         16           0       -6.570617   -1.595220    1.519999
     18         16           0       -9.333540   -0.000111    1.519634
     19         16           0       -3.807366   -3.190477   -1.609404
     20         16           0       -6.570288   -1.595368   -1.609770
     21         16           0       -9.333211   -0.000259   -1.610135
     22         42           0        0.797266   -1.595164   -0.044111
     23         42           0       -1.965657   -0.000055   -0.044477
     24         42           0       -4.728579    1.595054   -0.044842
     25         42           0        3.560132    0.000042   -0.043896
     26         42           0        0.797210    1.595151   -0.044262
     27         42           0       -1.965713    3.190260   -0.044627
     28         42           0        6.322999    1.595248   -0.043681
     29         42           0        3.560076    3.190358   -0.044047
     30         42           0        0.797154    4.785467   -0.044412
     31         16           0       -1.044828   -1.595123    1.520580
     32         16           0       -3.807751   -0.000014    1.520214
     33         16           0       -6.570673    1.595096    1.519848
     34         16           0        1.718038    0.000083    1.520795
     35         16           0       -1.044884    1.595193    1.520429
     36         16           0       -3.807807    3.190302    1.520063
     37         16           0        4.480905    1.595290    1.521009
     38         16           0        1.717982    3.190399    1.520644
     39         16           0       -1.044940    4.785508    1.520278
     40         16           0       -1.044499   -1.595271   -1.609189
     41         16           0       -3.807422   -0.000161   -1.609555
     42         16           0       -6.570344    1.594948   -1.609920
     43         16           0        1.718367   -0.000064   -1.608974
     44         16           0       -1.044556    1.595045   -1.609340
     45         16           0       -3.807478    3.190154   -1.609705
     46         16           0        4.481233    1.595142   -1.608759
     47         16           0        1.718311    3.190251   -1.609125
     48         16           0       -1.044612    4.785361   -1.609490
     49         16           0       -0.062761   -0.078247    2.889670
     50          1           0        1.116485    0.421971    3.164006
     51          1           0       -0.973818    0.854385    3.017231
 ---------------------------------------------------------------------
 Rotational constants (GHZ):      0.0262248      0.0093039      0.0074324
 Standard basis: VSTO-6G (5D, 7F)
 There are   492 symmetry adapted cartesian basis functions of A   symmetry.
 There are   443 symmetry adapted basis functions of A   symmetry.
   443 basis functions,  2952 primitive gaussians,   492 cartesian basis functions
   148 alpha electrons      148 beta electrons
       nuclear repulsion energy      4206.5111983376 Hartrees.
 Integral buffers will be    262144 words long.
 Regular integral format.
 Two-electron integral symmetry is turned off.
 Do NDO integrals.
 One-electron integrals computed using PRISM.
 NBasis=   443 RedAO= F EigKep=  0.00D+00  NBF=   443
 NBsUse=   443 1.00D-04 EigRej=  0.00D+00 NBFU=   443
 Nonelectrostatic core Hamiltonian diagonalized for initial guess.
 Keep J ints in memory in canonical form, NReq=6263864.
 Gradient too large for Newton-Raphson -- use scaled steepest descent instead.
     Accept linear search using points  1 and  2.
 Gradient too large for Newton-Raphson -- use scaled steepest descent instead.
     Minimum is close to point  2 DX= -5.06D-04 DF= -1.09D-05 DXR=  1.69D-03 DFR=  2.85D-06 which will be used.
 Gradient too large for Newton-Raphson -- use scaled steepest descent instead.
     Accept linear search using points  3 and  4.
 Gradient too large for Newton-Raphson -- use scaled steepest descent instead.
     Minimum is close to point  3 DX= -2.73D-02 DF= -1.55D-03 DXR=  4.77D-02 DFR=  2.11D-03 which will be used.
 Gradient too large for Newton-Raphson -- use scaled steepest descent instead.
     Accept linear search using points  1 and  2.
 Gradient too large for Newton-Raphson -- use scaled steepest descent instead.
     Accept linear search using points  4 and  5.
     Minimum is close to point  5 DX= -1.85D-01 DF= -4.98D-03 DXR=  9.21D-02 DFR=  7.43D-03 which will be used.
 Gradient too large for Newton-Raphson -- use scaled steepest descent instead.
     Minimum is close to point  3 DX= -1.91D-02 DF= -4.48D-04 DXR=  5.00D-02 DFR=  2.51D-03 which will be used.
 Gradient too large for Newton-Raphson -- use scaled steepest descent instead.
     Accept linear search using points  1 and  2.
 Gradient too large for Newton-Raphson -- use scaled steepest descent instead.
     Minimum is close to point  2 DX=  1.42D-02 DF= -4.77D-05 DXR=  2.76D-02 DFR=  7.64D-04 which will be used.
 Gradient too large for Newton-Raphson -- use scaled steepest descent instead.
 Gradient too large for Newton-Raphson -- use scaled steepest descent instead.
     Accept linear search using points  1 and  2.
 Gradient too large for Newton-Raphson -- use scaled steepest descent instead.
     Minimum is close to point  4 DX=  1.59D-01 DF= -4.04D-04 DXR=  7.72D-02 DFR=  5.79D-03 which will be used.
 Gradient too large for Newton-Raphson -- use scaled steepest descent instead.
     Minimum is close to point  3 DX= -3.44D-02 DF= -3.93D-04 DXR=  9.40D-02 DFR=  8.92D-03 which will be used.
 Gradient too large for Newton-Raphson -- use scaled steepest descent instead.
     Minimum is close to point  2 DX=  4.30D-02 DF= -4.77D-05 DXR=  4.56D-02 DFR=  2.08D-03 which will be used.
 Gradient too large for Newton-Raphson -- use scaled steepest descent instead.
     Accept linear search using points  1 and  2.
 Gradient too large for Newton-Raphson -- use scaled steepest descent instead.
 Gradient too large for Newton-Raphson -- use scaled steepest descent instead.
 Gradient too large for Newton-Raphson -- use scaled steepest descent instead.
     Accept linear search using points  3 and  4.
     Minimum is close to point  4 DX= -1.87D-01 DF= -1.50D-04 DXR=  5.49D-02 DFR=  4.37D-03 which will be used.
 Gradient too large for Newton-Raphson -- use scaled steepest descent instead.
 Gradient too large for Newton-Raphson -- use scaled steepest descent instead.
     Minimum is close to point  4 DX= -1.29D-02 DF= -5.50D-07 DXR=  3.51D-03 DFR=  1.33D-05 which will be used.
 Gradient too large for Newton-Raphson -- use scaled steepest descent instead.
 Gradient too large for Newton-Raphson -- use scaled steepest descent instead.
 Gradient too large for Newton-Raphson -- use scaled steepest descent instead.
 Gradient too large for Newton-Raphson -- use scaled steepest descent instead.
     Accept linear search using points  2 and  3.
     Minimum is close to point  3 DX= -1.51D-01 DF= -1.00D-04 DXR=  8.62D-02 DFR=  6.66D-03 which will be used.
 Gradient too large for Newton-Raphson -- use scaled steepest descent instead.
 Gradient too large for Newton-Raphson -- use scaled steepest descent instead.
     Accept linear search using points  2 and  3.
     Minimum is close to point  3 DX= -1.37D-01 DF= -7.49D-05 DXR=  9.35D-02 DFR=  6.60D-03 which will be used.
 Gradient too large for Newton-Raphson -- use scaled steepest descent instead.
     Accept linear search using points  1 and  2.
 Gradient too large for Newton-Raphson -- use scaled steepest descent instead.
 Gradient too large for Newton-Raphson -- use scaled steepest descent instead.
 Gradient too large for Newton-Raphson -- use scaled steepest descent instead.
     Minimum is close to point  3 DX=  5.86D-02 DF= -1.11D-05 DXR=  3.53D-02 DFR=  1.24D-03 which will be used.
 Gradient too large for Newton-Raphson -- use scaled steepest descent instead.
     Minimum is close to point  3 DX= -3.59D-02 DF= -7.63D-05 DXR=  9.86D-02 DFR=  9.82D-03 which will be used.
 Gradient too large for Newton-Raphson -- use scaled steepest descent instead.
     Minimum is close to point  2 DX=  3.13D-02 DF= -6.94D-06 DXR=  3.76D-02 DFR=  1.42D-03 which will be used.
 Gradient too large for Newton-Raphson -- use scaled steepest descent instead.
     Accept linear search using points  1 and  2.
 Gradient too large for Newton-Raphson -- use scaled steepest descent instead.
     Minimum is close to point  4 DX=  1.46D-01 DF= -3.56D-05 DXR=  6.21D-02 DFR=  3.84D-03 which will be used.
 Gradient too large for Newton-Raphson -- use scaled steepest descent instead.
 Gradient too large for Newton-Raphson -- use scaled steepest descent instead.
 Gradient too large for Newton-Raphson -- use scaled steepest descent instead.
 Gradient too large for Newton-Raphson -- use scaled steepest descent instead.
 Gradient too large for Newton-Raphson -- use scaled steepest descent instead.
 Gradient too large for Newton-Raphson -- use scaled steepest descent instead.
 Gradient too large for Newton-Raphson -- use scaled steepest descent instead.
 Gradient too large for Newton-Raphson -- use scaled steepest descent instead.
 Gradient too large for Newton-Raphson -- use scaled steepest descent instead.
 Gradient too large for Newton-Raphson -- use scaled steepest descent instead.
 Gradient too large for Newton-Raphson -- use scaled steepest descent instead.
 Gradient too large for Newton-Raphson -- use scaled steepest descent instead.
 Gradient too large for Newton-Raphson -- use scaled steepest descent instead.
 Gradient too large for Newton-Raphson -- use scaled steepest descent instead.
 Gradient too large for Newton-Raphson -- use scaled steepest descent instead.
 Gradient too large for Newton-Raphson -- use scaled steepest descent instead.
 Gradient too large for Newton-Raphson -- use scaled steepest descent instead.
 Gradient too large for Newton-Raphson -- use scaled steepest descent instead.
 Gradient too large for Newton-Raphson -- use scaled steepest descent instead.
 Gradient too large for Newton-Raphson -- use scaled steepest descent instead.
     Minimum is close to point  3 DX=  1.44D-01 DF= -1.66D-05 DXR=  8.26D-02 DFR=  6.91D-03 which will be used.
 Gradient too large for Newton-Raphson -- use scaled steepest descent instead.
     Minimum is close to point  3 DX= -2.56D-02 DF= -9.56D-06 DXR=  6.84D-02 DFR=  4.70D-03 which will be used.
 Gradient too large for Newton-Raphson -- use scaled steepest descent instead.
 Gradient too large for Newton-Raphson -- use scaled steepest descent instead.
     Accept linear search using points  1 and  2.
 Gradient too large for Newton-Raphson -- use scaled steepest descent instead.
 Gradient too large for Newton-Raphson -- use scaled steepest descent instead.
     Minimum is close to point  3 DX=  2.81D-02 DF= -2.65D-05 DXR=  8.57D-02 DFR=  7.40D-03 which will be used.
 Gradient too large for Newton-Raphson -- use scaled steepest descent instead.
     Minimum is close to point  6 DX=  4.49D-01 DF= -2.03D-05 DXR=  2.57D-02 DFR=  9.99D-04 which will be used.
 Gradient too large for Newton-Raphson -- use scaled steepest descent instead.
 Gradient too large for Newton-Raphson -- use scaled steepest descent instead.
 Gradient too large for Newton-Raphson -- use scaled steepest descent instead.
     Accept linear search using points  1 and  2.
 Gradient too large for Newton-Raphson -- use scaled steepest descent instead.
 Gradient too large for Newton-Raphson -- use scaled steepest descent instead.
 Gradient too large for Newton-Raphson -- use scaled steepest descent instead.
     Minimum is close to point  3 DX=  1.78D-01 DF= -1.20D-05 DXR=  9.47D-02 DFR=  9.06D-03 which will be used.
 Gradient too large for Newton-Raphson -- use scaled steepest descent instead.
     Minimum is close to point  3 DX= -2.22D-02 DF= -3.97D-06 DXR=  5.89D-02 DFR=  3.48D-03 which will be used.
 Gradient too large for Newton-Raphson -- use scaled steepest descent instead.
 Gradient too large for Newton-Raphson -- use scaled steepest descent instead.
     Accept linear search using points  1 and  2.
 Gradient too large for Newton-Raphson -- use scaled steepest descent instead.
 Gradient too large for Newton-Raphson -- use scaled steepest descent instead.
     Minimum is close to point  3 DX=  2.31D-02 DF= -1.35D-05 DXR=  7.14D-02 DFR=  5.12D-03 which will be used.
 Gradient too large for Newton-Raphson -- use scaled steepest descent instead.
 Gradient too large for Newton-Raphson -- use scaled steepest descent instead.
 Gradient too large for Newton-Raphson -- use scaled steepest descent instead.
     Accept linear search using points  1 and  2.
 Gradient too large for Newton-Raphson -- use scaled steepest descent instead.
 LinEq1:  Iter=  0 NonCon=     1 RMS=1.55D-04 Max=1.20D-02 NDo=     1
 AX will form     1 AO Fock derivatives at one time.
 LinEq1:  Iter=  1 NonCon=     1 RMS=1.45D-04 Max=4.30D-03 NDo=     1
 LinEq1:  Iter=  2 NonCon=     1 RMS=8.50D-05 Max=2.67D-03 NDo=     1
 LinEq1:  Iter=  3 NonCon=     1 RMS=7.91D-05 Max=2.34D-03 NDo=     1
 LinEq1:  Iter=  4 NonCon=     1 RMS=9.40D-05 Max=2.64D-03 NDo=     1
 LinEq1:  Iter=  5 NonCon=     1 RMS=8.84D-05 Max=5.02D-03 NDo=     1
 LinEq1:  Iter=  6 NonCon=     1 RMS=7.94D-05 Max=3.88D-03 NDo=     1
 LinEq1:  Iter=  7 NonCon=     1 RMS=7.20D-05 Max=3.29D-03 NDo=     1
 LinEq1:  Iter=  8 NonCon=     1 RMS=7.62D-05 Max=3.43D-03 NDo=     1
 LinEq1:  Iter=  9 NonCon=     1 RMS=7.74D-05 Max=2.35D-03 NDo=     1
 LinEq1:  Iter= 10 NonCon=     1 RMS=6.53D-05 Max=2.28D-03 NDo=     1
 LinEq1:  Iter= 11 NonCon=     1 RMS=6.83D-05 Max=2.73D-03 NDo=     1
 LinEq1:  Iter= 12 NonCon=     1 RMS=6.35D-05 Max=1.81D-03 NDo=     1
 LinEq1:  Iter= 13 NonCon=     1 RMS=5.36D-05 Max=1.73D-03 NDo=     1
 LinEq1:  Iter= 14 NonCon=     1 RMS=4.45D-05 Max=1.56D-03 NDo=     1
 LinEq1:  Iter= 15 NonCon=     1 RMS=3.83D-05 Max=1.06D-03 NDo=     1
 LinEq1:  Iter= 16 NonCon=     1 RMS=4.11D-05 Max=1.11D-03 NDo=     1
 LinEq1:  Iter= 17 NonCon=     1 RMS=2.97D-05 Max=7.02D-04 NDo=     1
 LinEq1:  Iter= 18 NonCon=     1 RMS=2.13D-05 Max=6.08D-04 NDo=     1
 LinEq1:  Iter= 19 NonCon=     1 RMS=1.83D-05 Max=4.78D-04 NDo=     1
 LinEq1:  Iter= 20 NonCon=     1 RMS=1.35D-05 Max=2.66D-04 NDo=     1
 LinEq1:  Iter= 21 NonCon=     1 RMS=1.13D-05 Max=2.50D-04 NDo=     1
 LinEq1:  Iter= 22 NonCon=     1 RMS=7.55D-06 Max=1.36D-04 NDo=     1
 LinEq1:  Iter= 23 NonCon=     1 RMS=4.66D-06 Max=1.11D-04 NDo=     1
 LinEq1:  Iter= 24 NonCon=     1 RMS=3.42D-06 Max=8.27D-05 NDo=     1
 LinEq1:  Iter= 25 NonCon=     1 RMS=2.46D-06 Max=6.82D-05 NDo=     1
 LinEq1:  Iter= 26 NonCon=     1 RMS=1.70D-06 Max=4.07D-05 NDo=     1
 LinEq1:  Iter= 27 NonCon=     1 RMS=1.78D-06 Max=4.24D-05 NDo=     1
 LinEq1:  Iter= 28 NonCon=     1 RMS=1.83D-06 Max=3.91D-05 NDo=     1
 LinEq1:  Iter= 29 NonCon=     1 RMS=1.33D-06 Max=3.97D-05 NDo=     1
 LinEq1:  Iter= 30 NonCon=     1 RMS=7.35D-07 Max=1.35D-05 NDo=     1
 LinEq1:  Iter= 31 NonCon=     1 RMS=5.89D-07 Max=1.60D-05 NDo=     1
 LinEq1:  Iter= 32 NonCon=     1 RMS=3.50D-07 Max=8.46D-06 NDo=     1
 LinEq1:  Iter= 33 NonCon=     1 RMS=1.81D-07 Max=4.99D-06 NDo=     1
 LinEq1:  Iter= 34 NonCon=     1 RMS=1.19D-07 Max=2.17D-06 NDo=     1
 LinEq1:  Iter= 35 NonCon=     1 RMS=8.67D-08 Max=2.20D-06 NDo=     1
 LinEq1:  Iter= 36 NonCon=     1 RMS=5.09D-08 Max=1.47D-06 NDo=     1
 LinEq1:  Iter= 37 NonCon=     1 RMS=3.26D-08 Max=7.90D-07 NDo=     1
 LinEq1:  Iter= 38 NonCon=     1 RMS=1.97D-08 Max=4.97D-07 NDo=     1
 LinEq1:  Iter= 39 NonCon=     1 RMS=1.34D-08 Max=3.66D-07 NDo=     1
 LinEq1:  Iter= 40 NonCon=     0 RMS=8.67D-09 Max=2.10D-07 NDo=     1
 Linear equations converged to 2.955D-08 2.955D-07 after    40 iterations.
 LinEq1:  Iter=  0 NonCon=     1 RMS=1.40D-04 Max=1.01D-02 NDo=     1
 LinEq1:  Iter=  1 NonCon=     1 RMS=1.32D-04 Max=3.27D-03 NDo=     1
 LinEq1:  Iter=  2 NonCon=     1 RMS=1.07D-04 Max=3.69D-03 NDo=     1
 LinEq1:  Iter=  3 NonCon=     1 RMS=1.22D-04 Max=3.34D-03 NDo=     1
 LinEq1:  Iter=  4 NonCon=     1 RMS=1.17D-04 Max=3.05D-03 NDo=     1
 LinEq1:  Iter=  5 NonCon=     1 RMS=1.29D-04 Max=5.60D-03 NDo=     1
 LinEq1:  Iter=  6 NonCon=     1 RMS=1.33D-04 Max=4.88D-03 NDo=     1
 LinEq1:  Iter=  7 NonCon=     1 RMS=1.31D-04 Max=6.70D-03 NDo=     1
 LinEq1:  Iter=  8 NonCon=     1 RMS=1.20D-04 Max=4.35D-03 NDo=     1
 LinEq1:  Iter=  9 NonCon=     1 RMS=1.23D-04 Max=4.41D-03 NDo=     1
 LinEq1:  Iter= 10 NonCon=     1 RMS=9.77D-05 Max=3.20D-03 NDo=     1
 LinEq1:  Iter= 11 NonCon=     1 RMS=9.36D-05 Max=3.66D-03 NDo=     1
 LinEq1:  Iter= 12 NonCon=     1 RMS=1.10D-04 Max=3.58D-03 NDo=     1
 LinEq1:  Iter= 13 NonCon=     1 RMS=9.05D-05 Max=3.09D-03 NDo=     1
 LinEq1:  Iter= 14 NonCon=     1 RMS=7.50D-05 Max=2.28D-03 NDo=     1
 LinEq1:  Iter= 15 NonCon=     1 RMS=5.83D-05 Max=2.44D-03 NDo=     1
 LinEq1:  Iter= 16 NonCon=     1 RMS=5.60D-05 Max=9.96D-04 NDo=     1
 LinEq1:  Iter= 17 NonCon=     1 RMS=5.53D-05 Max=1.51D-03 NDo=     1
 LinEq1:  Iter= 18 NonCon=     1 RMS=4.50D-05 Max=1.11D-03 NDo=     1
 LinEq1:  Iter= 19 NonCon=     1 RMS=4.03D-05 Max=8.89D-04 NDo=     1
 LinEq1:  Iter= 20 NonCon=     1 RMS=2.75D-05 Max=4.79D-04 NDo=     1
 LinEq1:  Iter= 21 NonCon=     1 RMS=2.20D-05 Max=2.95D-04 NDo=     1
 LinEq1:  Iter= 22 NonCon=     1 RMS=1.68D-05 Max=2.85D-04 NDo=     1
 LinEq1:  Iter= 23 NonCon=     1 RMS=2.02D-05 Max=4.85D-04 NDo=     1
 LinEq1:  Iter= 24 NonCon=     1 RMS=1.56D-05 Max=3.00D-04 NDo=     1
 LinEq1:  Iter= 25 NonCon=     1 RMS=1.12D-05 Max=2.14D-04 NDo=     1
 LinEq1:  Iter= 26 NonCon=     1 RMS=6.15D-06 Max=1.47D-04 NDo=     1
 LinEq1:  Iter= 27 NonCon=     1 RMS=4.50D-06 Max=9.37D-05 NDo=     1
 LinEq1:  Iter= 28 NonCon=     1 RMS=3.21D-06 Max=9.44D-05 NDo=     1
 LinEq1:  Iter= 29 NonCon=     1 RMS=1.58D-06 Max=4.31D-05 NDo=     1
 LinEq1:  Iter= 30 NonCon=     1 RMS=1.33D-06 Max=3.04D-05 NDo=     1
 LinEq1:  Iter= 31 NonCon=     1 RMS=7.95D-07 Max=2.13D-05 NDo=     1
 LinEq1:  Iter= 32 NonCon=     1 RMS=5.04D-07 Max=1.35D-05 NDo=     1
 LinEq1:  Iter= 33 NonCon=     1 RMS=3.53D-07 Max=9.48D-06 NDo=     1
 LinEq1:  Iter= 34 NonCon=     1 RMS=2.31D-07 Max=7.38D-06 NDo=     1
 LinEq1:  Iter= 35 NonCon=     1 RMS=1.28D-07 Max=2.98D-06 NDo=     1
 LinEq1:  Iter= 36 NonCon=     1 RMS=9.10D-08 Max=2.44D-06 NDo=     1
 LinEq1:  Iter= 37 NonCon=     1 RMS=5.22D-08 Max=1.16D-06 NDo=     1
 LinEq1:  Iter= 38 NonCon=     1 RMS=3.14D-08 Max=9.92D-07 NDo=     1
 LinEq1:  Iter= 39 NonCon=     1 RMS=1.93D-08 Max=4.95D-07 NDo=     1
 LinEq1:  Iter= 40 NonCon=     0 RMS=9.24D-09 Max=2.70D-07 NDo=     1
 Linear equations converged to 2.955D-08 2.955D-07 after    40 iterations.
 LinEq1:  Iter=  0 NonCon=     1 RMS=1.33D-04 Max=9.60D-03 NDo=     1
 LinEq1:  Iter=  1 NonCon=     1 RMS=1.23D-04 Max=3.16D-03 NDo=     1
 LinEq1:  Iter=  2 NonCon=     1 RMS=1.04D-04 Max=3.81D-03 NDo=     1
 LinEq1:  Iter=  3 NonCon=     1 RMS=1.17D-04 Max=3.47D-03 NDo=     1
 LinEq1:  Iter=  4 NonCon=     1 RMS=1.14D-04 Max=3.05D-03 NDo=     1
 LinEq1:  Iter=  5 NonCon=     1 RMS=1.24D-04 Max=5.25D-03 NDo=     1
 LinEq1:  Iter=  6 NonCon=     1 RMS=1.27D-04 Max=4.20D-03 NDo=     1
 LinEq1:  Iter=  7 NonCon=     1 RMS=1.25D-04 Max=6.11D-03 NDo=     1
 LinEq1:  Iter=  8 NonCon=     1 RMS=1.17D-04 Max=4.09D-03 NDo=     1
 LinEq1:  Iter=  9 NonCon=     1 RMS=1.19D-04 Max=4.46D-03 NDo=     1
 LinEq1:  Iter= 10 NonCon=     1 RMS=9.46D-05 Max=3.10D-03 NDo=     1
 LinEq1:  Iter= 11 NonCon=     1 RMS=8.74D-05 Max=3.73D-03 NDo=     1
 LinEq1:  Iter= 12 NonCon=     1 RMS=1.02D-04 Max=2.98D-03 NDo=     1
 LinEq1:  Iter= 13 NonCon=     1 RMS=8.68D-05 Max=2.49D-03 NDo=     1
 LinEq1:  Iter= 14 NonCon=     1 RMS=7.18D-05 Max=1.83D-03 NDo=     1
 LinEq1:  Iter= 15 NonCon=     1 RMS=5.66D-05 Max=2.14D-03 NDo=     1
 LinEq1:  Iter= 16 NonCon=     1 RMS=5.48D-05 Max=1.02D-03 NDo=     1
 LinEq1:  Iter= 17 NonCon=     1 RMS=5.45D-05 Max=1.22D-03 NDo=     1
 LinEq1:  Iter= 18 NonCon=     1 RMS=4.41D-05 Max=8.99D-04 NDo=     1
 LinEq1:  Iter= 19 NonCon=     1 RMS=3.99D-05 Max=7.50D-04 NDo=     1
 LinEq1:  Iter= 20 NonCon=     1 RMS=2.73D-05 Max=5.09D-04 NDo=     1
 LinEq1:  Iter= 21 NonCon=     1 RMS=2.23D-05 Max=3.34D-04 NDo=     1
 LinEq1:  Iter= 22 NonCon=     1 RMS=1.77D-05 Max=2.93D-04 NDo=     1
 LinEq1:  Iter= 23 NonCon=     1 RMS=2.16D-05 Max=6.46D-04 NDo=     1
 LinEq1:  Iter= 24 NonCon=     1 RMS=1.53D-05 Max=2.71D-04 NDo=     1
 LinEq1:  Iter= 25 NonCon=     1 RMS=1.08D-05 Max=3.83D-04 NDo=     1
 LinEq1:  Iter= 26 NonCon=     1 RMS=5.31D-06 Max=1.98D-04 NDo=     1
 LinEq1:  Iter= 27 NonCon=     1 RMS=4.52D-06 Max=1.46D-04 NDo=     1
 LinEq1:  Iter= 28 NonCon=     1 RMS=2.83D-06 Max=8.59D-05 NDo=     1
 LinEq1:  Iter= 29 NonCon=     1 RMS=1.57D-06 Max=4.33D-05 NDo=     1
 LinEq1:  Iter= 30 NonCon=     1 RMS=1.23D-06 Max=2.37D-05 NDo=     1
 LinEq1:  Iter= 31 NonCon=     1 RMS=7.20D-07 Max=1.84D-05 NDo=     1
 LinEq1:  Iter= 32 NonCon=     1 RMS=5.23D-07 Max=1.01D-05 NDo=     1
 LinEq1:  Iter= 33 NonCon=     1 RMS=3.05D-07 Max=7.92D-06 NDo=     1
 LinEq1:  Iter= 34 NonCon=     1 RMS=2.05D-07 Max=7.01D-06 NDo=     1
 LinEq1:  Iter= 35 NonCon=     1 RMS=1.33D-07 Max=4.07D-06 NDo=     1
 LinEq1:  Iter= 36 NonCon=     1 RMS=7.76D-08 Max=1.44D-06 NDo=     1
 LinEq1:  Iter= 37 NonCon=     1 RMS=4.44D-08 Max=1.09D-06 NDo=     1
 LinEq1:  Iter= 38 NonCon=     1 RMS=2.89D-08 Max=7.70D-07 NDo=     1
 LinEq1:  Iter= 39 NonCon=     1 RMS=1.55D-08 Max=3.80D-07 NDo=     1
 LinEq1:  Iter= 40 NonCon=     0 RMS=6.61D-09 Max=1.60D-07 NDo=     1
 Linear equations converged to 2.955D-08 2.955D-07 after    40 iterations.
 Incorrect curvature in search direction -- initial direction reversed.
 Gradient too large for Newton-Raphson -- use scaled steepest descent instead.
     Minimum is close to point  3 DX=  4.16D-02 DF= -4.58D-07 DXR=  2.53D-02 DFR=  6.39D-04 which will be used.
 Gradient too large for Newton-Raphson -- use scaled steepest descent instead.
     Minimum is close to point  3 DX= -1.21D-02 DF= -5.07D-07 DXR=  3.11D-02 DFR=  9.69D-04 which will be used.
 Gradient too large for Newton-Raphson -- use scaled steepest descent instead.
     Accept linear search using points  1 and  2.
 Gradient too large for Newton-Raphson -- use scaled steepest descent instead.
     Accept linear search using points  1 and  2.
 LinEq1:  Iter=  0 NonCon=     1 RMS=1.40D-04 Max=1.35D-02 NDo=     1
 LinEq1:  Iter=  1 NonCon=     1 RMS=9.98D-05 Max=2.40D-03 NDo=     1
 LinEq1:  Iter=  2 NonCon=     1 RMS=3.56D-05 Max=2.47D-03 NDo=     1
 LinEq1:  Iter=  3 NonCon=     1 RMS=4.65D-05 Max=2.42D-03 NDo=     1
 LinEq1:  Iter=  4 NonCon=     1 RMS=2.73D-05 Max=9.47D-04 NDo=     1
 LinEq1:  Iter=  5 NonCon=     1 RMS=3.12D-05 Max=1.44D-03 NDo=     1
 LinEq1:  Iter=  6 NonCon=     1 RMS=2.73D-05 Max=8.23D-04 NDo=     1
 LinEq1:  Iter=  7 NonCon=     1 RMS=2.46D-05 Max=9.17D-04 NDo=     1
 LinEq1:  Iter=  8 NonCon=     1 RMS=2.70D-05 Max=1.11D-03 NDo=     1
 LinEq1:  Iter=  9 NonCon=     1 RMS=2.05D-05 Max=9.12D-04 NDo=     1
 LinEq1:  Iter= 10 NonCon=     1 RMS=2.07D-05 Max=6.50D-04 NDo=     1
 LinEq1:  Iter= 11 NonCon=     1 RMS=2.10D-05 Max=7.60D-04 NDo=     1
 LinEq1:  Iter= 12 NonCon=     1 RMS=1.79D-05 Max=7.53D-04 NDo=     1
 LinEq1:  Iter= 13 NonCon=     1 RMS=1.39D-05 Max=3.91D-04 NDo=     1
 LinEq1:  Iter= 14 NonCon=     1 RMS=1.52D-05 Max=3.00D-04 NDo=     1
 LinEq1:  Iter= 15 NonCon=     1 RMS=1.18D-05 Max=3.44D-04 NDo=     1
 LinEq1:  Iter= 16 NonCon=     1 RMS=9.83D-06 Max=2.37D-04 NDo=     1
 LinEq1:  Iter= 17 NonCon=     1 RMS=8.36D-06 Max=2.19D-04 NDo=     1
 LinEq1:  Iter= 18 NonCon=     1 RMS=6.58D-06 Max=1.40D-04 NDo=     1
 LinEq1:  Iter= 19 NonCon=     1 RMS=5.71D-06 Max=1.74D-04 NDo=     1
 LinEq1:  Iter= 20 NonCon=     1 RMS=5.84D-06 Max=1.71D-04 NDo=     1
 LinEq1:  Iter= 21 NonCon=     1 RMS=5.21D-06 Max=1.16D-04 NDo=     1
 LinEq1:  Iter= 22 NonCon=     1 RMS=3.97D-06 Max=1.27D-04 NDo=     1
 LinEq1:  Iter= 23 NonCon=     1 RMS=3.13D-06 Max=9.20D-05 NDo=     1
 LinEq1:  Iter= 24 NonCon=     1 RMS=1.75D-06 Max=4.64D-05 NDo=     1
 LinEq1:  Iter= 25 NonCon=     1 RMS=1.24D-06 Max=2.58D-05 NDo=     1
 LinEq1:  Iter= 26 NonCon=     1 RMS=7.85D-07 Max=1.89D-05 NDo=     1
 LinEq1:  Iter= 27 NonCon=     1 RMS=4.24D-07 Max=8.80D-06 NDo=     1
 LinEq1:  Iter= 28 NonCon=     1 RMS=3.32D-07 Max=7.95D-06 NDo=     1
 LinEq1:  Iter= 29 NonCon=     1 RMS=2.04D-07 Max=6.49D-06 NDo=     1
 LinEq1:  Iter= 30 NonCon=     1 RMS=1.34D-07 Max=2.71D-06 NDo=     1
 LinEq1:  Iter= 31 NonCon=     1 RMS=9.72D-08 Max=2.13D-06 NDo=     1
 LinEq1:  Iter= 32 NonCon=     1 RMS=5.50D-08 Max=1.06D-06 NDo=     1
 LinEq1:  Iter= 33 NonCon=     1 RMS=3.53D-08 Max=6.22D-07 NDo=     1
 LinEq1:  Iter= 34 NonCon=     1 RMS=2.23D-08 Max=3.77D-07 NDo=     1
 LinEq1:  Iter= 35 NonCon=     0 RMS=1.43D-08 Max=2.56D-07 NDo=     1
 Linear equations converged to 2.955D-08 2.955D-07 after    35 iterations.
 Incorrect curvature in search direction -- initial direction reversed.
     Minimum is close to point  4 DX= -8.00D-03 DF= -6.89D-06 DXR=  2.74D-02 DFR=  2.00D-03 which will be used.
 Gradient too large for Newton-Raphson -- use scaled steepest descent instead.
     Accept linear search using points  2 and  3.
 Gradient too large for Newton-Raphson -- use scaled steepest descent instead.
     Minimum is close to point  2 DX=  2.09D-02 DF= -1.31D-06 DXR=  4.01D-02 DFR=  1.61D-03 which will be used.
 Gradient too large for Newton-Raphson -- use scaled steepest descent instead.
 Gradient too large for Newton-Raphson -- use scaled steepest descent instead.
     Accept linear search using points  1 and  2.
 Gradient too large for Newton-Raphson -- use scaled steepest descent instead.
     Accept linear search using points  3 and  4.
 Gradient too large for Newton-Raphson -- use scaled steepest descent instead.
     Minimum is close to point  3 DX=  2.87D-02 DF= -9.75D-06 DXR=  8.74D-02 DFR=  7.69D-03 which will be used.
 Gradient too large for Newton-Raphson -- use scaled steepest descent instead.
     Minimum is close to point  5 DX= -4.49D-01 DF= -2.79D-05 DXR=  8.09D-02 DFR=  7.01D-03 which will be used.
 Gradient too large for Newton-Raphson -- use scaled steepest descent instead.
 Gradient too large for Newton-Raphson -- use scaled steepest descent instead.
 Gradient too large for Newton-Raphson -- use scaled steepest descent instead.
     Minimum is close to point  3 DX= -1.65D-02 DF= -1.55D-05 DXR=  5.82D-02 DFR=  3.39D-03 which will be used.
 Gradient too large for Newton-Raphson -- use scaled steepest descent instead.
 Gradient too large for Newton-Raphson -- use scaled steepest descent instead.
     Accept linear search using points  1 and  2.
 Gradient too large for Newton-Raphson -- use scaled steepest descent instead.
     Accept linear search using points  3 and  4.
 Gradient too large for Newton-Raphson -- use scaled steepest descent instead.
     Minimum is close to point  3 DX= -5.10D-03 DF= -7.50D-07 DXR=  1.73D-02 DFR=  3.00D-04 which will be used.
 Gradient too large for Newton-Raphson -- use scaled steepest descent instead.
 Gradient too large for Newton-Raphson -- use scaled steepest descent instead.
     Minimum is close to point  3 DX=  5.00D-03 DF= -4.89D-07 DXR=  1.64D-02 DFR=  2.69D-04 which will be used.
 Gradient too large for Newton-Raphson -- use scaled steepest descent instead.
 Gradient too large for Newton-Raphson -- use scaled steepest descent instead.
     Minimum is close to point  3 DX= -5.00D-03 DF= -5.32D-07 DXR=  1.69D-02 DFR=  2.87D-04 which will be used.
 Gradient too large for Newton-Raphson -- use scaled steepest descent instead.
     Accept linear search using points  1 and  2.
     Minimum is close to point  2 DX= -1.16D-01 DF= -1.38D-05 DXR=  6.52D-02 DFR=  9.92D-03 which will be used.
 Gradient too large for Newton-Raphson -- use scaled steepest descent instead.
     Minimum is close to point  3 DX= -1.45D-02 DF= -5.17D-06 DXR=  5.07D-02 DFR=  2.57D-03 which will be used.
 Gradient too large for Newton-Raphson -- use scaled steepest descent instead.
     Accept linear search using points  1 and  2.
 Gradient too large for Newton-Raphson -- use scaled steepest descent instead.
     Minimum is close to point  3 DX= -2.72D-03 DF= -1.19D-07 DXR=  9.15D-03 DFR=  8.37D-05 which will be used.
 Gradient too large for Newton-Raphson -- use scaled steepest descent instead.
     Minimum is close to point  2 DX=  1.12D-01 DF= -6.05D-06 DXR=  6.96D-02 DFR=  4.87D-03 which will be used.
 Gradient too large for Newton-Raphson -- use scaled steepest descent instead.
     Minimum is close to point  3 DX=  1.28D-02 DF= -1.79D-06 DXR=  4.10D-02 DFR=  1.68D-03 which will be used.
 Gradient too large for Newton-Raphson -- use scaled steepest descent instead.
     Accept linear search using points  3 and  4.
 Gradient too large for Newton-Raphson -- use scaled steepest descent instead.
     Minimum is close to point  3 DX= -9.94D-03 DF= -1.70D-06 DXR=  3.43D-02 DFR=  1.18D-03 which will be used.
 Gradient too large for Newton-Raphson -- use scaled steepest descent instead.
     Accept linear search using points  1 and  2.
 Gradient too large for Newton-Raphson -- use scaled steepest descent instead.
     Minimum is close to point  3 DX= -1.10D-02 DF= -2.13D-06 DXR=  3.81D-02 DFR=  1.45D-03 which will be used.
 Gradient too large for Newton-Raphson -- use scaled steepest descent instead.
     Accept linear search using points  1 and  2.
     Minimum is close to point  2 DX= -1.58D-01 DF= -1.67D-05 DXR=  9.63D-02 DFR=  1.86D-02 which will be used.
 Gradient too large for Newton-Raphson -- use scaled steepest descent instead.
     Minimum is close to point  3 DX= -1.05D-02 DF= -1.95D-06 DXR=  3.61D-02 DFR=  1.30D-03 which will be used.
 Gradient too large for Newton-Raphson -- use scaled steepest descent instead.
     Accept linear search using points  1 and  2.
     Minimum is close to point  2 DX= -5.66D-02 DF= -2.73D-06 DXR=  3.67D-02 DFR=  2.70D-03 which will be used.
 Gradient too large for Newton-Raphson -- use scaled steepest descent instead.
     Minimum is close to point  3 DX=  1.94D-03 DF= -5.12D-08 DXR=  6.43D-03 DFR=  4.13D-05 which will be used.
 Gradient too large for Newton-Raphson -- use scaled steepest descent instead.
 Gradient too large for Newton-Raphson -- use scaled steepest descent instead.
     Minimum is close to point  3 DX= -1.40D-03 DF= -3.09D-08 DXR=  4.70D-03 DFR=  2.21D-05 which will be used.
 Gradient too large for Newton-Raphson -- use scaled steepest descent instead.
     Minimum is close to point  2 DX= -1.34D-01 DF= -7.83D-06 DXR=  7.60D-02 DFR=  5.80D-03 which will be used.
 Gradient too large for Newton-Raphson -- use scaled steepest descent instead.
     Minimum is close to point  3 DX= -4.94D-03 DF= -4.34D-07 DXR=  1.67D-02 DFR=  2.80D-04 which will be used.
 Gradient too large for Newton-Raphson -- use scaled steepest descent instead.
 Gradient too large for Newton-Raphson -- use scaled steepest descent instead.
     Minimum is close to point  3 DX=  6.32D-03 DF= -5.44D-07 DXR=  2.06D-02 DFR=  4.25D-04 which will be used.
 Gradient too large for Newton-Raphson -- use scaled steepest descent instead.
 Gradient too large for Newton-Raphson -- use scaled steepest descent instead.
     Minimum is close to point  3 DX= -5.40D-03 DF= -4.76D-07 DXR=  1.83D-02 DFR=  3.36D-04 which will be used.
 Gradient too large for Newton-Raphson -- use scaled steepest descent instead.
     Accept linear search using points  1 and  2.
     Minimum is close to point  2 DX= -1.36D-01 DF= -1.36D-05 DXR=  7.72D-02 DFR=  1.33D-02 which will be used.
 Gradient too large for Newton-Raphson -- use scaled steepest descent instead.
     Minimum is close to point  3 DX= -1.58D-02 DF= -4.73D-06 DXR=  5.57D-02 DFR=  3.11D-03 which will be used.
 Gradient too large for Newton-Raphson -- use scaled steepest descent instead.
     Accept linear search using points  1 and  2.
 Gradient too large for Newton-Raphson -- use scaled steepest descent instead.
     Minimum is close to point  3 DX= -6.99D-04 DF= -4.92D-09 DXR=  2.34D-03 DFR=  5.46D-06 which will be used.
 Gradient too large for Newton-Raphson -- use scaled steepest descent instead.
 Gradient too large for Newton-Raphson -- use scaled steepest descent instead.
     Minimum is close to point  3 DX=  1.53D-03 DF= -1.72D-08 DXR=  5.07D-03 DFR=  2.57D-05 which will be used.
 Gradient too large for Newton-Raphson -- use scaled steepest descent instead.
 Gradient too large for Newton-Raphson -- use scaled steepest descent instead.
     Minimum is close to point  3 DX= -9.78D-04 DF= -5.50D-09 DXR=  3.27D-03 DFR=  1.07D-05 which will be used.
 LinEq1:  Iter=  0 NonCon=     1 RMS=1.18D-04 Max=5.39D-03 NDo=     1
 LinEq1:  Iter=  1 NonCon=     1 RMS=1.43D-04 Max=4.11D-03 NDo=     1
 LinEq1:  Iter=  2 NonCon=     1 RMS=3.32D-05 Max=1.28D-03 NDo=     1
 LinEq1:  Iter=  3 NonCon=     1 RMS=1.72D-05 Max=3.32D-04 NDo=     1
 LinEq1:  Iter=  4 NonCon=     1 RMS=2.07D-05 Max=1.25D-03 NDo=     1
 LinEq1:  Iter=  5 NonCon=     1 RMS=1.80D-05 Max=7.66D-04 NDo=     1
 LinEq1:  Iter=  6 NonCon=     1 RMS=1.31D-05 Max=5.82D-04 NDo=     1
 LinEq1:  Iter=  7 NonCon=     1 RMS=1.10D-05 Max=4.09D-04 NDo=     1
 LinEq1:  Iter=  8 NonCon=     1 RMS=1.18D-05 Max=3.51D-04 NDo=     1
 LinEq1:  Iter=  9 NonCon=     1 RMS=1.08D-05 Max=3.37D-04 NDo=     1
 LinEq1:  Iter= 10 NonCon=     1 RMS=1.12D-05 Max=3.46D-04 NDo=     1
 LinEq1:  Iter= 11 NonCon=     1 RMS=9.63D-06 Max=2.26D-04 NDo=     1
 LinEq1:  Iter= 12 NonCon=     1 RMS=8.37D-06 Max=1.86D-04 NDo=     1
 LinEq1:  Iter= 13 NonCon=     1 RMS=6.68D-06 Max=1.20D-04 NDo=     1
 LinEq1:  Iter= 14 NonCon=     1 RMS=4.81D-06 Max=8.40D-05 NDo=     1
 LinEq1:  Iter= 15 NonCon=     1 RMS=3.25D-06 Max=4.21D-05 NDo=     1
 LinEq1:  Iter= 16 NonCon=     1 RMS=3.06D-06 Max=5.34D-05 NDo=     1
 LinEq1:  Iter= 17 NonCon=     1 RMS=3.26D-06 Max=5.46D-05 NDo=     1
 LinEq1:  Iter= 18 NonCon=     1 RMS=2.47D-06 Max=3.80D-05 NDo=     1
 LinEq1:  Iter= 19 NonCon=     1 RMS=1.87D-06 Max=2.37D-05 NDo=     1
 LinEq1:  Iter= 20 NonCon=     1 RMS=1.58D-06 Max=4.13D-05 NDo=     1
 LinEq1:  Iter= 21 NonCon=     1 RMS=1.38D-06 Max=3.17D-05 NDo=     1
 LinEq1:  Iter= 22 NonCon=     1 RMS=1.40D-06 Max=2.99D-05 NDo=     1
 LinEq1:  Iter= 23 NonCon=     1 RMS=9.74D-07 Max=3.01D-05 NDo=     1
 LinEq1:  Iter= 24 NonCon=     1 RMS=7.94D-07 Max=2.20D-05 NDo=     1
 LinEq1:  Iter= 25 NonCon=     1 RMS=4.90D-07 Max=1.08D-05 NDo=     1
 LinEq1:  Iter= 26 NonCon=     1 RMS=3.26D-07 Max=7.84D-06 NDo=     1
 LinEq1:  Iter= 27 NonCon=     1 RMS=1.77D-07 Max=5.84D-06 NDo=     1
 LinEq1:  Iter= 28 NonCon=     1 RMS=1.21D-07 Max=5.04D-06 NDo=     1
 LinEq1:  Iter= 29 NonCon=     1 RMS=9.35D-08 Max=5.24D-06 NDo=     1
 LinEq1:  Iter= 30 NonCon=     1 RMS=4.87D-08 Max=2.83D-06 NDo=     1
 LinEq1:  Iter= 31 NonCon=     1 RMS=3.11D-08 Max=1.72D-06 NDo=     1
 LinEq1:  Iter= 32 NonCon=     1 RMS=1.92D-08 Max=1.06D-06 NDo=     1
 LinEq1:  Iter= 33 NonCon=     1 RMS=1.02D-08 Max=4.73D-07 NDo=     1
 LinEq1:  Iter= 34 NonCon=     0 RMS=5.97D-09 Max=2.15D-07 NDo=     1
 Linear equations converged to 2.955D-08 2.955D-07 after    34 iterations.
     Accept linear search using points  1 and  2.
 LinEq1:  Iter=  0 NonCon=     1 RMS=6.50D-05 Max=1.78D-03 NDo=     1
 LinEq1:  Iter=  1 NonCon=     1 RMS=8.23D-05 Max=2.01D-03 NDo=     1
 LinEq1:  Iter=  2 NonCon=     1 RMS=6.34D-05 Max=1.48D-03 NDo=     1
 LinEq1:  Iter=  3 NonCon=     1 RMS=6.00D-05 Max=1.29D-03 NDo=     1
 LinEq1:  Iter=  4 NonCon=     1 RMS=4.32D-05 Max=1.01D-03 NDo=     1
 LinEq1:  Iter=  5 NonCon=     1 RMS=4.51D-05 Max=8.37D-04 NDo=     1
 LinEq1:  Iter=  6 NonCon=     1 RMS=3.60D-05 Max=7.20D-04 NDo=     1
 LinEq1:  Iter=  7 NonCon=     1 RMS=3.45D-05 Max=1.07D-03 NDo=     1
 LinEq1:  Iter=  8 NonCon=     1 RMS=3.53D-05 Max=8.59D-04 NDo=     1
 LinEq1:  Iter=  9 NonCon=     1 RMS=3.68D-05 Max=9.70D-04 NDo=     1
 LinEq1:  Iter= 10 NonCon=     1 RMS=3.08D-05 Max=8.51D-04 NDo=     1
 LinEq1:  Iter= 11 NonCon=     1 RMS=3.67D-05 Max=1.00D-03 NDo=     1
 LinEq1:  Iter= 12 NonCon=     1 RMS=3.65D-05 Max=7.50D-04 NDo=     1
 LinEq1:  Iter= 13 NonCon=     1 RMS=3.42D-05 Max=8.11D-04 NDo=     1
 LinEq1:  Iter= 14 NonCon=     1 RMS=2.93D-05 Max=6.36D-04 NDo=     1
 LinEq1:  Iter= 15 NonCon=     1 RMS=2.45D-05 Max=4.56D-04 NDo=     1
 LinEq1:  Iter= 16 NonCon=     1 RMS=2.36D-05 Max=5.13D-04 NDo=     1
 LinEq1:  Iter= 17 NonCon=     1 RMS=1.52D-05 Max=4.80D-04 NDo=     1
 LinEq1:  Iter= 18 NonCon=     1 RMS=1.21D-05 Max=3.24D-04 NDo=     1
 LinEq1:  Iter= 19 NonCon=     1 RMS=9.77D-06 Max=3.82D-04 NDo=     1
 LinEq1:  Iter= 20 NonCon=     1 RMS=1.04D-05 Max=4.53D-04 NDo=     1
 LinEq1:  Iter= 21 NonCon=     1 RMS=9.44D-06 Max=3.51D-04 NDo=     1
 LinEq1:  Iter= 22 NonCon=     1 RMS=8.01D-06 Max=3.32D-04 NDo=     1
 LinEq1:  Iter= 23 NonCon=     1 RMS=5.65D-06 Max=2.42D-04 NDo=     1
 LinEq1:  Iter= 24 NonCon=     1 RMS=3.76D-06 Max=1.34D-04 NDo=     1
 LinEq1:  Iter= 25 NonCon=     1 RMS=2.64D-06 Max=1.19D-04 NDo=     1
 LinEq1:  Iter= 26 NonCon=     1 RMS=1.58D-06 Max=7.04D-05 NDo=     1
 LinEq1:  Iter= 27 NonCon=     1 RMS=9.76D-07 Max=3.87D-05 NDo=     1
 LinEq1:  Iter= 28 NonCon=     1 RMS=6.24D-07 Max=2.11D-05 NDo=     1
 LinEq1:  Iter= 29 NonCon=     1 RMS=3.85D-07 Max=1.28D-05 NDo=     1
 LinEq1:  Iter= 30 NonCon=     1 RMS=2.86D-07 Max=8.12D-06 NDo=     1
 LinEq1:  Iter= 31 NonCon=     1 RMS=1.59D-07 Max=4.47D-06 NDo=     1
 LinEq1:  Iter= 32 NonCon=     1 RMS=1.00D-07 Max=2.08D-06 NDo=     1
 LinEq1:  Iter= 33 NonCon=     1 RMS=5.67D-08 Max=1.48D-06 NDo=     1
 LinEq1:  Iter= 34 NonCon=     1 RMS=3.28D-08 Max=5.90D-07 NDo=     1
 LinEq1:  Iter= 35 NonCon=     1 RMS=2.32D-08 Max=5.76D-07 NDo=     1
 LinEq1:  Iter= 36 NonCon=     0 RMS=1.25D-08 Max=2.88D-07 NDo=     1
 Linear equations converged to 2.955D-08 2.955D-07 after    36 iterations.
     Minimum is close to point  2 DX=  1.24D-02 DF= -3.32D-08 DXR=  1.22D-02 DFR=  1.49D-04 which will be used.
 LinEq1:  Iter=  0 NonCon=     1 RMS=3.02D-06 Max=9.54D-05 NDo=     1
 LinEq1:  Iter=  1 NonCon=     1 RMS=3.79D-06 Max=1.01D-04 NDo=     1
 LinEq1:  Iter=  2 NonCon=     1 RMS=2.99D-06 Max=9.21D-05 NDo=     1
 LinEq1:  Iter=  3 NonCon=     1 RMS=3.14D-06 Max=1.24D-04 NDo=     1
 LinEq1:  Iter=  4 NonCon=     1 RMS=3.69D-06 Max=1.22D-04 NDo=     1
 LinEq1:  Iter=  5 NonCon=     1 RMS=3.68D-06 Max=8.18D-05 NDo=     1
 LinEq1:  Iter=  6 NonCon=     1 RMS=2.45D-06 Max=8.04D-05 NDo=     1
 LinEq1:  Iter=  7 NonCon=     1 RMS=2.62D-06 Max=5.36D-05 NDo=     1
 LinEq1:  Iter=  8 NonCon=     1 RMS=2.51D-06 Max=8.09D-05 NDo=     1
 LinEq1:  Iter=  9 NonCon=     1 RMS=2.03D-06 Max=5.73D-05 NDo=     1
 LinEq1:  Iter= 10 NonCon=     1 RMS=1.49D-06 Max=5.76D-05 NDo=     1
 LinEq1:  Iter= 11 NonCon=     1 RMS=1.41D-06 Max=5.26D-05 NDo=     1
 LinEq1:  Iter= 12 NonCon=     1 RMS=1.41D-06 Max=6.12D-05 NDo=     1
 LinEq1:  Iter= 13 NonCon=     1 RMS=1.30D-06 Max=4.84D-05 NDo=     1
 LinEq1:  Iter= 14 NonCon=     1 RMS=1.31D-06 Max=5.69D-05 NDo=     1
 LinEq1:  Iter= 15 NonCon=     1 RMS=1.21D-06 Max=5.67D-05 NDo=     1
 LinEq1:  Iter= 16 NonCon=     1 RMS=1.20D-06 Max=5.13D-05 NDo=     1
 LinEq1:  Iter= 17 NonCon=     1 RMS=9.59D-07 Max=4.65D-05 NDo=     1
 LinEq1:  Iter= 18 NonCon=     1 RMS=6.48D-07 Max=2.09D-05 NDo=     1
 LinEq1:  Iter= 19 NonCon=     1 RMS=5.17D-07 Max=2.16D-05 NDo=     1
 LinEq1:  Iter= 20 NonCon=     1 RMS=3.18D-07 Max=9.24D-06 NDo=     1
 LinEq1:  Iter= 21 NonCon=     1 RMS=2.92D-07 Max=5.94D-06 NDo=     1
 LinEq1:  Iter= 22 NonCon=     1 RMS=2.58D-07 Max=4.98D-06 NDo=     1
 LinEq1:  Iter= 23 NonCon=     1 RMS=2.79D-07 Max=5.48D-06 NDo=     1
 LinEq1:  Iter= 24 NonCon=     1 RMS=2.02D-07 Max=5.07D-06 NDo=     1
 LinEq1:  Iter= 25 NonCon=     1 RMS=1.66D-07 Max=3.52D-06 NDo=     1
 LinEq1:  Iter= 26 NonCon=     1 RMS=8.96D-08 Max=1.73D-06 NDo=     1
 LinEq1:  Iter= 27 NonCon=     1 RMS=4.37D-08 Max=9.38D-07 NDo=     1
 LinEq1:  Iter= 28 NonCon=     1 RMS=3.31D-08 Max=5.55D-07 NDo=     1
 LinEq1:  Iter= 29 NonCon=     1 RMS=1.89D-08 Max=3.45D-07 NDo=     1
 LinEq1:  Iter= 30 NonCon=     1 RMS=1.43D-08 Max=2.37D-07 NDo=     1
 LinEq1:  Iter= 31 NonCon=     1 RMS=7.91D-09 Max=1.33D-07 NDo=     1
 LinEq1:  Iter= 32 NonCon=     1 RMS=4.55D-09 Max=7.68D-08 NDo=     1
 LinEq1:  Iter= 33 NonCon=     1 RMS=2.78D-09 Max=4.11D-08 NDo=     1
 LinEq1:  Iter= 34 NonCon=     0 RMS=1.64D-09 Max=3.00D-08 NDo=     1
 Linear equations converged to 3.317D-09 3.317D-08 after    34 iterations.
 LinEq1:  Iter=  0 NonCon=     1 RMS=1.81D-06 Max=5.48D-05 NDo=     1
 LinEq1:  Iter=  1 NonCon=     1 RMS=2.33D-06 Max=6.44D-05 NDo=     1
 LinEq1:  Iter=  2 NonCon=     1 RMS=1.82D-06 Max=5.12D-05 NDo=     1
 LinEq1:  Iter=  3 NonCon=     1 RMS=2.02D-06 Max=8.46D-05 NDo=     1
 LinEq1:  Iter=  4 NonCon=     1 RMS=2.32D-06 Max=7.53D-05 NDo=     1
 LinEq1:  Iter=  5 NonCon=     1 RMS=2.24D-06 Max=4.70D-05 NDo=     1
 LinEq1:  Iter=  6 NonCon=     1 RMS=1.47D-06 Max=4.77D-05 NDo=     1
 LinEq1:  Iter=  7 NonCon=     1 RMS=1.62D-06 Max=3.36D-05 NDo=     1
 LinEq1:  Iter=  8 NonCon=     1 RMS=1.55D-06 Max=4.86D-05 NDo=     1
 LinEq1:  Iter=  9 NonCon=     1 RMS=1.27D-06 Max=3.95D-05 NDo=     1
 LinEq1:  Iter= 10 NonCon=     1 RMS=1.09D-06 Max=3.71D-05 NDo=     1
 LinEq1:  Iter= 11 NonCon=     1 RMS=1.20D-06 Max=5.03D-05 NDo=     1
 LinEq1:  Iter= 12 NonCon=     1 RMS=1.04D-06 Max=4.16D-05 NDo=     1
 LinEq1:  Iter= 13 NonCon=     1 RMS=9.13D-07 Max=4.00D-05 NDo=     1
 LinEq1:  Iter= 14 NonCon=     1 RMS=9.04D-07 Max=3.63D-05 NDo=     1
 LinEq1:  Iter= 15 NonCon=     1 RMS=8.22D-07 Max=3.97D-05 NDo=     1
 LinEq1:  Iter= 16 NonCon=     1 RMS=7.15D-07 Max=2.83D-05 NDo=     1
 LinEq1:  Iter= 17 NonCon=     1 RMS=5.52D-07 Max=2.40D-05 NDo=     1
 LinEq1:  Iter= 18 NonCon=     1 RMS=3.64D-07 Max=1.02D-05 NDo=     1
 LinEq1:  Iter= 19 NonCon=     1 RMS=2.96D-07 Max=1.29D-05 NDo=     1
 LinEq1:  Iter= 20 NonCon=     1 RMS=1.91D-07 Max=4.81D-06 NDo=     1
 LinEq1:  Iter= 21 NonCon=     1 RMS=1.94D-07 Max=4.48D-06 NDo=     1
 LinEq1:  Iter= 22 NonCon=     1 RMS=1.82D-07 Max=2.74D-06 NDo=     1
 LinEq1:  Iter= 23 NonCon=     1 RMS=1.75D-07 Max=3.26D-06 NDo=     1
 LinEq1:  Iter= 24 NonCon=     1 RMS=1.14D-07 Max=2.55D-06 NDo=     1
 LinEq1:  Iter= 25 NonCon=     1 RMS=9.29D-08 Max=1.72D-06 NDo=     1
 LinEq1:  Iter= 26 NonCon=     1 RMS=5.10D-08 Max=9.37D-07 NDo=     1
 LinEq1:  Iter= 27 NonCon=     1 RMS=2.54D-08 Max=4.70D-07 NDo=     1
 LinEq1:  Iter= 28 NonCon=     1 RMS=1.87D-08 Max=2.93D-07 NDo=     1
 LinEq1:  Iter= 29 NonCon=     1 RMS=1.09D-08 Max=2.21D-07 NDo=     1
 LinEq1:  Iter= 30 NonCon=     1 RMS=8.11D-09 Max=1.17D-07 NDo=     1
 LinEq1:  Iter= 31 NonCon=     1 RMS=4.74D-09 Max=7.64D-08 NDo=     1
 LinEq1:  Iter= 32 NonCon=     1 RMS=2.93D-09 Max=5.13D-08 NDo=     1
 LinEq1:  Iter= 33 NonCon=     1 RMS=1.67D-09 Max=2.30D-08 NDo=     1
 LinEq1:  Iter= 34 NonCon=     0 RMS=9.54D-10 Max=1.65D-08 NDo=     1
 Linear equations converged to 1.982D-09 1.982D-08 after    34 iterations.
 Incorrect curvature in search direction -- initial direction reversed.
 LinEq1:  Iter=  0 NonCon=     1 RMS=3.31D-05 Max=8.69D-04 NDo=     1
 LinEq1:  Iter=  1 NonCon=     1 RMS=5.21D-05 Max=3.39D-03 NDo=     1
 LinEq1:  Iter=  2 NonCon=     1 RMS=3.55D-05 Max=1.75D-03 NDo=     1
 LinEq1:  Iter=  3 NonCon=     1 RMS=4.12D-05 Max=3.58D-03 NDo=     1
 LinEq1:  Iter=  4 NonCon=     1 RMS=4.60D-05 Max=2.38D-03 NDo=     1
 LinEq1:  Iter=  5 NonCon=     1 RMS=3.76D-05 Max=2.31D-03 NDo=     1
 LinEq1:  Iter=  6 NonCon=     1 RMS=4.00D-05 Max=1.54D-03 NDo=     1
 LinEq1:  Iter=  7 NonCon=     1 RMS=4.40D-05 Max=1.51D-03 NDo=     1
 LinEq1:  Iter=  8 NonCon=     1 RMS=3.02D-05 Max=9.44D-04 NDo=     1
 LinEq1:  Iter=  9 NonCon=     1 RMS=2.65D-05 Max=6.30D-04 NDo=     1
 LinEq1:  Iter= 10 NonCon=     1 RMS=2.79D-05 Max=1.12D-03 NDo=     1
 LinEq1:  Iter= 11 NonCon=     1 RMS=2.08D-05 Max=4.24D-04 NDo=     1
 LinEq1:  Iter= 12 NonCon=     1 RMS=1.82D-05 Max=3.08D-04 NDo=     1
 LinEq1:  Iter= 13 NonCon=     1 RMS=1.65D-05 Max=4.39D-04 NDo=     1
 LinEq1:  Iter= 14 NonCon=     1 RMS=1.55D-05 Max=3.51D-04 NDo=     1
 LinEq1:  Iter= 15 NonCon=     1 RMS=1.28D-05 Max=2.97D-04 NDo=     1
 LinEq1:  Iter= 16 NonCon=     1 RMS=1.02D-05 Max=1.79D-04 NDo=     1
 LinEq1:  Iter= 17 NonCon=     1 RMS=7.41D-06 Max=1.88D-04 NDo=     1
 LinEq1:  Iter= 18 NonCon=     1 RMS=4.58D-06 Max=1.77D-04 NDo=     1
 LinEq1:  Iter= 19 NonCon=     1 RMS=3.99D-06 Max=1.10D-04 NDo=     1
 LinEq1:  Iter= 20 NonCon=     1 RMS=3.18D-06 Max=1.01D-04 NDo=     1
 LinEq1:  Iter= 21 NonCon=     1 RMS=3.77D-06 Max=1.07D-04 NDo=     1
 LinEq1:  Iter= 22 NonCon=     1 RMS=2.80D-06 Max=1.06D-04 NDo=     1
 LinEq1:  Iter= 23 NonCon=     1 RMS=2.28D-06 Max=4.39D-05 NDo=     1
 LinEq1:  Iter= 24 NonCon=     1 RMS=1.48D-06 Max=3.52D-05 NDo=     1
 LinEq1:  Iter= 25 NonCon=     1 RMS=8.99D-07 Max=2.14D-05 NDo=     1
 LinEq1:  Iter= 26 NonCon=     1 RMS=5.57D-07 Max=1.48D-05 NDo=     1
 LinEq1:  Iter= 27 NonCon=     1 RMS=3.28D-07 Max=6.89D-06 NDo=     1
 LinEq1:  Iter= 28 NonCon=     1 RMS=2.35D-07 Max=5.59D-06 NDo=     1
 LinEq1:  Iter= 29 NonCon=     1 RMS=1.31D-07 Max=2.73D-06 NDo=     1
 LinEq1:  Iter= 30 NonCon=     1 RMS=1.05D-07 Max=2.22D-06 NDo=     1
 LinEq1:  Iter= 31 NonCon=     1 RMS=5.85D-08 Max=1.36D-06 NDo=     1
 LinEq1:  Iter= 32 NonCon=     1 RMS=3.32D-08 Max=1.03D-06 NDo=     1
 LinEq1:  Iter= 33 NonCon=     1 RMS=2.16D-08 Max=5.45D-07 NDo=     1
 LinEq1:  Iter= 34 NonCon=     1 RMS=1.34D-08 Max=2.97D-07 NDo=     1
 LinEq1:  Iter= 35 NonCon=     0 RMS=8.02D-09 Max=1.82D-07 NDo=     1
 Linear equations converged to 2.955D-08 2.955D-07 after    35 iterations.
 Incorrect curvature in search direction -- initial direction reversed.
     Accept linear search using points  2 and  3.
     Minimum is close to point  3 DX= -1.19D-01 DF= -9.39D-07 DXR=  8.65D-02 DFR=  6.89D-03 which will be used.
 Gradient too large for Newton-Raphson -- use scaled steepest descent instead.
 LinEq1:  Iter=  0 NonCon=     1 RMS=8.76D-05 Max=5.39D-03 NDo=     1
 LinEq1:  Iter=  1 NonCon=     1 RMS=1.32D-04 Max=3.44D-03 NDo=     1
 LinEq1:  Iter=  2 NonCon=     1 RMS=6.99D-05 Max=6.77D-03 NDo=     1
 LinEq1:  Iter=  3 NonCon=     1 RMS=1.06D-04 Max=7.48D-03 NDo=     1
 LinEq1:  Iter=  4 NonCon=     1 RMS=6.25D-05 Max=3.84D-03 NDo=     1
 LinEq1:  Iter=  5 NonCon=     1 RMS=7.15D-05 Max=2.32D-03 NDo=     1
 LinEq1:  Iter=  6 NonCon=     1 RMS=7.63D-05 Max=1.89D-03 NDo=     1
 LinEq1:  Iter=  7 NonCon=     1 RMS=7.26D-05 Max=2.27D-03 NDo=     1
 LinEq1:  Iter=  8 NonCon=     1 RMS=4.48D-05 Max=9.74D-04 NDo=     1
 LinEq1:  Iter=  9 NonCon=     1 RMS=5.64D-05 Max=1.92D-03 NDo=     1
 LinEq1:  Iter= 10 NonCon=     1 RMS=3.54D-05 Max=8.33D-04 NDo=     1
 LinEq1:  Iter= 11 NonCon=     1 RMS=3.26D-05 Max=7.18D-04 NDo=     1
 LinEq1:  Iter= 12 NonCon=     1 RMS=2.48D-05 Max=7.92D-04 NDo=     1
 LinEq1:  Iter= 13 NonCon=     1 RMS=2.61D-05 Max=4.99D-04 NDo=     1
 LinEq1:  Iter= 14 NonCon=     1 RMS=1.82D-05 Max=6.56D-04 NDo=     1
 LinEq1:  Iter= 15 NonCon=     1 RMS=1.39D-05 Max=2.50D-04 NDo=     1
 LinEq1:  Iter= 16 NonCon=     1 RMS=1.21D-05 Max=3.03D-04 NDo=     1
 LinEq1:  Iter= 17 NonCon=     1 RMS=1.13D-05 Max=2.43D-04 NDo=     1
 LinEq1:  Iter= 18 NonCon=     1 RMS=1.11D-05 Max=2.22D-04 NDo=     1
 LinEq1:  Iter= 19 NonCon=     1 RMS=6.75D-06 Max=1.20D-04 NDo=     1
 LinEq1:  Iter= 20 NonCon=     1 RMS=5.65D-06 Max=1.49D-04 NDo=     1
 LinEq1:  Iter= 21 NonCon=     1 RMS=3.00D-06 Max=7.17D-05 NDo=     1
 LinEq1:  Iter= 22 NonCon=     1 RMS=1.63D-06 Max=2.62D-05 NDo=     1
 LinEq1:  Iter= 23 NonCon=     1 RMS=1.36D-06 Max=2.40D-05 NDo=     1
 LinEq1:  Iter= 24 NonCon=     1 RMS=9.15D-07 Max=1.81D-05 NDo=     1
 LinEq1:  Iter= 25 NonCon=     1 RMS=7.89D-07 Max=1.49D-05 NDo=     1
 LinEq1:  Iter= 26 NonCon=     1 RMS=4.29D-07 Max=1.11D-05 NDo=     1
 LinEq1:  Iter= 27 NonCon=     1 RMS=2.56D-07 Max=5.44D-06 NDo=     1
 LinEq1:  Iter= 28 NonCon=     1 RMS=1.70D-07 Max=3.98D-06 NDo=     1
 LinEq1:  Iter= 29 NonCon=     1 RMS=1.13D-07 Max=2.35D-06 NDo=     1
 LinEq1:  Iter= 30 NonCon=     1 RMS=7.65D-08 Max=1.70D-06 NDo=     1
 LinEq1:  Iter= 31 NonCon=     1 RMS=4.81D-08 Max=1.42D-06 NDo=     1
 LinEq1:  Iter= 32 NonCon=     1 RMS=2.96D-08 Max=5.79D-07 NDo=     1
 LinEq1:  Iter= 33 NonCon=     1 RMS=2.01D-08 Max=3.73D-07 NDo=     1
 LinEq1:  Iter= 34 NonCon=     0 RMS=1.13D-08 Max=2.21D-07 NDo=     1
 Linear equations converged to 2.955D-08 2.955D-07 after    34 iterations.
 Incorrect curvature in search direction -- initial direction reversed.
 Gradient too large for Newton-Raphson -- use scaled steepest descent instead.
     Accept linear search using points  2 and  3.
 Gradient too large for Newton-Raphson -- use scaled steepest descent instead.
     Accept linear search using points  1 and  2.
 LinEq1:  Iter=  0 NonCon=     1 RMS=1.07D-04 Max=6.82D-03 NDo=     1
 LinEq1:  Iter=  1 NonCon=     1 RMS=9.07D-05 Max=2.27D-03 NDo=     1
 LinEq1:  Iter=  2 NonCon=     1 RMS=8.67D-05 Max=9.93D-03 NDo=     1
 LinEq1:  Iter=  3 NonCon=     1 RMS=3.63D-05 Max=1.12D-03 NDo=     1
 LinEq1:  Iter=  4 NonCon=     1 RMS=4.74D-05 Max=1.92D-03 NDo=     1
 LinEq1:  Iter=  5 NonCon=     1 RMS=3.29D-05 Max=5.62D-04 NDo=     1
 LinEq1:  Iter=  6 NonCon=     1 RMS=3.17D-05 Max=7.41D-04 NDo=     1
 LinEq1:  Iter=  7 NonCon=     1 RMS=3.08D-05 Max=7.86D-04 NDo=     1
 LinEq1:  Iter=  8 NonCon=     1 RMS=2.22D-05 Max=4.72D-04 NDo=     1
 LinEq1:  Iter=  9 NonCon=     1 RMS=1.53D-05 Max=4.96D-04 NDo=     1
 LinEq1:  Iter= 10 NonCon=     1 RMS=1.67D-05 Max=4.66D-04 NDo=     1
 LinEq1:  Iter= 11 NonCon=     1 RMS=1.49D-05 Max=4.77D-04 NDo=     1
 LinEq1:  Iter= 12 NonCon=     1 RMS=1.27D-05 Max=5.87D-04 NDo=     1
 LinEq1:  Iter= 13 NonCon=     1 RMS=1.01D-05 Max=3.73D-04 NDo=     1
 LinEq1:  Iter= 14 NonCon=     1 RMS=7.54D-06 Max=3.62D-04 NDo=     1
 LinEq1:  Iter= 15 NonCon=     1 RMS=5.76D-06 Max=1.59D-04 NDo=     1
 LinEq1:  Iter= 16 NonCon=     1 RMS=5.71D-06 Max=2.10D-04 NDo=     1
 LinEq1:  Iter= 17 NonCon=     1 RMS=4.62D-06 Max=1.15D-04 NDo=     1
 LinEq1:  Iter= 18 NonCon=     1 RMS=3.67D-06 Max=1.07D-04 NDo=     1
 LinEq1:  Iter= 19 NonCon=     1 RMS=3.08D-06 Max=6.90D-05 NDo=     1
 LinEq1:  Iter= 20 NonCon=     1 RMS=3.36D-06 Max=7.77D-05 NDo=     1
 LinEq1:  Iter= 21 NonCon=     1 RMS=2.51D-06 Max=6.29D-05 NDo=     1
 LinEq1:  Iter= 22 NonCon=     1 RMS=2.26D-06 Max=4.31D-05 NDo=     1
 LinEq1:  Iter= 23 NonCon=     1 RMS=1.18D-06 Max=3.57D-05 NDo=     1
 LinEq1:  Iter= 24 NonCon=     1 RMS=9.51D-07 Max=1.53D-05 NDo=     1
 LinEq1:  Iter= 25 NonCon=     1 RMS=5.94D-07 Max=1.31D-05 NDo=     1
 LinEq1:  Iter= 26 NonCon=     1 RMS=3.31D-07 Max=9.08D-06 NDo=     1
 LinEq1:  Iter= 27 NonCon=     1 RMS=2.03D-07 Max=2.95D-06 NDo=     1
 LinEq1:  Iter= 28 NonCon=     1 RMS=1.35D-07 Max=2.98D-06 NDo=     1
 LinEq1:  Iter= 29 NonCon=     1 RMS=9.55D-08 Max=1.75D-06 NDo=     1
 LinEq1:  Iter= 30 NonCon=     1 RMS=5.41D-08 Max=9.56D-07 NDo=     1
 LinEq1:  Iter= 31 NonCon=     1 RMS=2.27D-08 Max=4.29D-07 NDo=     1
 LinEq1:  Iter= 32 NonCon=     0 RMS=1.44D-08 Max=2.86D-07 NDo=     1
 Linear equations converged to 2.955D-08 2.955D-07 after    32 iterations.
 Incorrect curvature in search direction -- initial direction reversed.
 Gradient too large for Newton-Raphson -- use scaled steepest descent instead.
     Accept linear search using points  2 and  3.
 Gradient too large for Newton-Raphson -- use scaled steepest descent instead.
     Accept linear search using points  1 and  2.
 LinEq1:  Iter=  0 NonCon=     1 RMS=1.19D-04 Max=8.60D-03 NDo=     1
 LinEq1:  Iter=  1 NonCon=     1 RMS=8.12D-05 Max=2.50D-03 NDo=     1
 LinEq1:  Iter=  2 NonCon=     1 RMS=8.91D-05 Max=7.20D-03 NDo=     1
 LinEq1:  Iter=  3 NonCon=     1 RMS=2.92D-05 Max=6.79D-04 NDo=     1
 LinEq1:  Iter=  4 NonCon=     1 RMS=3.40D-05 Max=1.34D-03 NDo=     1
 LinEq1:  Iter=  5 NonCon=     1 RMS=3.64D-05 Max=7.72D-04 NDo=     1
 LinEq1:  Iter=  6 NonCon=     1 RMS=2.22D-05 Max=7.44D-04 NDo=     1
 LinEq1:  Iter=  7 NonCon=     1 RMS=2.34D-05 Max=7.69D-04 NDo=     1
 LinEq1:  Iter=  8 NonCon=     1 RMS=1.79D-05 Max=5.85D-04 NDo=     1
 LinEq1:  Iter=  9 NonCon=     1 RMS=2.08D-05 Max=7.98D-04 NDo=     1
 LinEq1:  Iter= 10 NonCon=     1 RMS=1.37D-05 Max=6.47D-04 NDo=     1
 LinEq1:  Iter= 11 NonCon=     1 RMS=1.12D-05 Max=3.49D-04 NDo=     1
 LinEq1:  Iter= 12 NonCon=     1 RMS=1.09D-05 Max=5.13D-04 NDo=     1
 LinEq1:  Iter= 13 NonCon=     1 RMS=8.80D-06 Max=2.12D-04 NDo=     1
 LinEq1:  Iter= 14 NonCon=     1 RMS=7.58D-06 Max=1.53D-04 NDo=     1
 LinEq1:  Iter= 15 NonCon=     1 RMS=6.78D-06 Max=1.43D-04 NDo=     1
 LinEq1:  Iter= 16 NonCon=     1 RMS=6.74D-06 Max=1.38D-04 NDo=     1
 LinEq1:  Iter= 17 NonCon=     1 RMS=6.01D-06 Max=1.12D-04 NDo=     1
 LinEq1:  Iter= 18 NonCon=     1 RMS=4.31D-06 Max=9.79D-05 NDo=     1
 LinEq1:  Iter= 19 NonCon=     1 RMS=3.24D-06 Max=7.24D-05 NDo=     1
 LinEq1:  Iter= 20 NonCon=     1 RMS=2.06D-06 Max=4.31D-05 NDo=     1
 LinEq1:  Iter= 21 NonCon=     1 RMS=1.55D-06 Max=4.88D-05 NDo=     1
 LinEq1:  Iter= 22 NonCon=     1 RMS=1.47D-06 Max=3.15D-05 NDo=     1
 LinEq1:  Iter= 23 NonCon=     1 RMS=1.34D-06 Max=3.61D-05 NDo=     1
 LinEq1:  Iter= 24 NonCon=     1 RMS=1.03D-06 Max=2.87D-05 NDo=     1
 LinEq1:  Iter= 25 NonCon=     1 RMS=4.80D-07 Max=9.39D-06 NDo=     1
 LinEq1:  Iter= 26 NonCon=     1 RMS=3.67D-07 Max=6.22D-06 NDo=     1
 LinEq1:  Iter= 27 NonCon=     1 RMS=2.04D-07 Max=3.31D-06 NDo=     1
 LinEq1:  Iter= 28 NonCon=     1 RMS=1.52D-07 Max=2.29D-06 NDo=     1
 LinEq1:  Iter= 29 NonCon=     1 RMS=8.16D-08 Max=1.26D-06 NDo=     1
 LinEq1:  Iter= 30 NonCon=     1 RMS=4.56D-08 Max=6.71D-07 NDo=     1
 LinEq1:  Iter= 31 NonCon=     1 RMS=2.90D-08 Max=6.32D-07 NDo=     1
 LinEq1:  Iter= 32 NonCon=     0 RMS=1.56D-08 Max=2.33D-07 NDo=     1
 Linear equations converged to 2.955D-08 2.955D-07 after    32 iterations.
     Minimum is close to point  5 DX=  2.69D-05 DF= -4.11D-07 DXR=  6.01D-03 DFR=  8.75D-05 which will be used.
 Gradient too large for Newton-Raphson -- use scaled steepest descent instead.
     Accept linear search using points  1 and  2.
 Gradient too large for Newton-Raphson -- use scaled steepest descent instead.
     Accept linear search using points  2 and  3.
 Gradient too large for Newton-Raphson -- use scaled steepest descent instead.
     Minimum is close to point  2 DX=  3.41D-02 DF= -1.00D-06 DXR=  6.39D-02 DFR=  4.10D-03 which will be used.
 Gradient too large for Newton-Raphson -- use scaled steepest descent instead.
     Accept linear search using points  1 and  2.
 LinEq1:  Iter=  0 NonCon=     1 RMS=9.28D-05 Max=4.12D-03 NDo=     1
 LinEq1:  Iter=  1 NonCon=     1 RMS=1.23D-04 Max=4.11D-03 NDo=     1
 LinEq1:  Iter=  2 NonCon=     1 RMS=6.00D-05 Max=4.00D-03 NDo=     1
 LinEq1:  Iter=  3 NonCon=     1 RMS=2.34D-05 Max=6.29D-04 NDo=     1
 LinEq1:  Iter=  4 NonCon=     1 RMS=2.84D-05 Max=1.05D-03 NDo=     1
 LinEq1:  Iter=  5 NonCon=     1 RMS=1.33D-05 Max=3.48D-04 NDo=     1
 LinEq1:  Iter=  6 NonCon=     1 RMS=1.72D-05 Max=6.69D-04 NDo=     1
 LinEq1:  Iter=  7 NonCon=     1 RMS=1.03D-05 Max=3.33D-04 NDo=     1
 LinEq1:  Iter=  8 NonCon=     1 RMS=1.13D-05 Max=3.67D-04 NDo=     1
 LinEq1:  Iter=  9 NonCon=     1 RMS=1.05D-05 Max=4.25D-04 NDo=     1
 LinEq1:  Iter= 10 NonCon=     1 RMS=8.73D-06 Max=2.38D-04 NDo=     1
 LinEq1:  Iter= 11 NonCon=     1 RMS=5.94D-06 Max=2.06D-04 NDo=     1
 LinEq1:  Iter= 12 NonCon=     1 RMS=5.43D-06 Max=1.37D-04 NDo=     1
 LinEq1:  Iter= 13 NonCon=     1 RMS=4.36D-06 Max=9.64D-05 NDo=     1
 LinEq1:  Iter= 14 NonCon=     1 RMS=3.73D-06 Max=1.10D-04 NDo=     1
 LinEq1:  Iter= 15 NonCon=     1 RMS=2.97D-06 Max=6.34D-05 NDo=     1
 LinEq1:  Iter= 16 NonCon=     1 RMS=2.97D-06 Max=9.14D-05 NDo=     1
 LinEq1:  Iter= 17 NonCon=     1 RMS=2.56D-06 Max=5.03D-05 NDo=     1
 LinEq1:  Iter= 18 NonCon=     1 RMS=2.64D-06 Max=6.85D-05 NDo=     1
 LinEq1:  Iter= 19 NonCon=     1 RMS=1.84D-06 Max=4.72D-05 NDo=     1
 LinEq1:  Iter= 20 NonCon=     1 RMS=1.35D-06 Max=2.62D-05 NDo=     1
 LinEq1:  Iter= 21 NonCon=     1 RMS=8.78D-07 Max=1.59D-05 NDo=     1
 LinEq1:  Iter= 22 NonCon=     1 RMS=5.29D-07 Max=8.38D-06 NDo=     1
 LinEq1:  Iter= 23 NonCon=     1 RMS=3.97D-07 Max=7.36D-06 NDo=     1
 LinEq1:  Iter= 24 NonCon=     1 RMS=2.86D-07 Max=4.63D-06 NDo=     1
 LinEq1:  Iter= 25 NonCon=     1 RMS=1.94D-07 Max=2.98D-06 NDo=     1
 LinEq1:  Iter= 26 NonCon=     1 RMS=1.27D-07 Max=2.24D-06 NDo=     1
 LinEq1:  Iter= 27 NonCon=     1 RMS=9.41D-08 Max=1.66D-06 NDo=     1
 LinEq1:  Iter= 28 NonCon=     1 RMS=5.00D-08 Max=9.30D-07 NDo=     1
 LinEq1:  Iter= 29 NonCon=     1 RMS=2.60D-08 Max=3.55D-07 NDo=     1
 LinEq1:  Iter= 30 NonCon=     0 RMS=1.90D-08 Max=2.64D-07 NDo=     1
 Linear equations converged to 2.955D-08 2.955D-07 after    30 iterations.
     Accept linear search using points  1 and  2.
 LinEq1:  Iter=  0 NonCon=     1 RMS=4.06D-05 Max=2.06D-03 NDo=     1
 LinEq1:  Iter=  1 NonCon=     1 RMS=4.89D-05 Max=1.68D-03 NDo=     1
 LinEq1:  Iter=  2 NonCon=     1 RMS=3.58D-05 Max=1.12D-03 NDo=     1
 LinEq1:  Iter=  3 NonCon=     1 RMS=3.48D-05 Max=9.95D-04 NDo=     1
 LinEq1:  Iter=  4 NonCon=     1 RMS=4.11D-05 Max=1.14D-03 NDo=     1
 LinEq1:  Iter=  5 NonCon=     1 RMS=3.60D-05 Max=1.01D-03 NDo=     1
 LinEq1:  Iter=  6 NonCon=     1 RMS=3.28D-05 Max=7.87D-04 NDo=     1
 LinEq1:  Iter=  7 NonCon=     1 RMS=3.61D-05 Max=1.38D-03 NDo=     1
 LinEq1:  Iter=  8 NonCon=     1 RMS=3.11D-05 Max=6.09D-04 NDo=     1
 LinEq1:  Iter=  9 NonCon=     1 RMS=2.64D-05 Max=1.28D-03 NDo=     1
 LinEq1:  Iter= 10 NonCon=     1 RMS=2.20D-05 Max=5.51D-04 NDo=     1
 LinEq1:  Iter= 11 NonCon=     1 RMS=2.04D-05 Max=8.40D-04 NDo=     1
 LinEq1:  Iter= 12 NonCon=     1 RMS=2.39D-05 Max=6.82D-04 NDo=     1
 LinEq1:  Iter= 13 NonCon=     1 RMS=1.57D-05 Max=3.95D-04 NDo=     1
 LinEq1:  Iter= 14 NonCon=     1 RMS=1.38D-05 Max=2.86D-04 NDo=     1
 LinEq1:  Iter= 15 NonCon=     1 RMS=1.27D-05 Max=2.32D-04 NDo=     1
 LinEq1:  Iter= 16 NonCon=     1 RMS=1.31D-05 Max=2.64D-04 NDo=     1
 LinEq1:  Iter= 17 NonCon=     1 RMS=1.02D-05 Max=2.03D-04 NDo=     1
 LinEq1:  Iter= 18 NonCon=     1 RMS=9.48D-06 Max=1.50D-04 NDo=     1
 LinEq1:  Iter= 19 NonCon=     1 RMS=7.51D-06 Max=1.28D-04 NDo=     1
 LinEq1:  Iter= 20 NonCon=     1 RMS=6.40D-06 Max=8.85D-05 NDo=     1
 LinEq1:  Iter= 21 NonCon=     1 RMS=5.00D-06 Max=9.94D-05 NDo=     1
 LinEq1:  Iter= 22 NonCon=     1 RMS=4.30D-06 Max=8.33D-05 NDo=     1
 LinEq1:  Iter= 23 NonCon=     1 RMS=2.45D-06 Max=5.77D-05 NDo=     1
 LinEq1:  Iter= 24 NonCon=     1 RMS=1.74D-06 Max=3.63D-05 NDo=     1
 LinEq1:  Iter= 25 NonCon=     1 RMS=1.08D-06 Max=1.77D-05 NDo=     1
 LinEq1:  Iter= 26 NonCon=     1 RMS=6.54D-07 Max=1.16D-05 NDo=     1
 LinEq1:  Iter= 27 NonCon=     1 RMS=4.32D-07 Max=7.97D-06 NDo=     1
 LinEq1:  Iter= 28 NonCon=     1 RMS=2.22D-07 Max=4.72D-06 NDo=     1
 LinEq1:  Iter= 29 NonCon=     1 RMS=1.44D-07 Max=2.25D-06 NDo=     1
 LinEq1:  Iter= 30 NonCon=     1 RMS=9.78D-08 Max=2.06D-06 NDo=     1
 LinEq1:  Iter= 31 NonCon=     1 RMS=6.24D-08 Max=1.37D-06 NDo=     1
 LinEq1:  Iter= 32 NonCon=     1 RMS=4.30D-08 Max=9.04D-07 NDo=     1
 LinEq1:  Iter= 33 NonCon=     1 RMS=2.15D-08 Max=4.60D-07 NDo=     1
 LinEq1:  Iter= 34 NonCon=     1 RMS=1.10D-08 Max=3.22D-07 NDo=     1
 LinEq1:  Iter= 35 NonCon=     0 RMS=8.57D-09 Max=1.49D-07 NDo=     1
 Linear equations converged to 2.955D-08 2.955D-07 after    35 iterations.
     Minimum is close to point  2 DX=  1.93D-02 DF= -3.26D-08 DXR=  1.90D-02 DFR=  3.60D-04 which will be used.
 LinEq1:  Iter=  0 NonCon=     1 RMS=1.03D-06 Max=4.16D-05 NDo=     1
 LinEq1:  Iter=  1 NonCon=     1 RMS=1.59D-06 Max=9.10D-05 NDo=     1
 LinEq1:  Iter=  2 NonCon=     1 RMS=1.18D-06 Max=4.76D-05 NDo=     1
 LinEq1:  Iter=  3 NonCon=     1 RMS=1.17D-06 Max=5.86D-05 NDo=     1
 LinEq1:  Iter=  4 NonCon=     1 RMS=1.12D-06 Max=4.28D-05 NDo=     1
 LinEq1:  Iter=  5 NonCon=     1 RMS=9.67D-07 Max=2.29D-05 NDo=     1
 LinEq1:  Iter=  6 NonCon=     1 RMS=7.45D-07 Max=1.74D-05 NDo=     1
 LinEq1:  Iter=  7 NonCon=     1 RMS=7.84D-07 Max=1.37D-05 NDo=     1
 LinEq1:  Iter=  8 NonCon=     1 RMS=6.95D-07 Max=1.17D-05 NDo=     1
 LinEq1:  Iter=  9 NonCon=     1 RMS=6.69D-07 Max=1.13D-05 NDo=     1
 LinEq1:  Iter= 10 NonCon=     1 RMS=5.70D-07 Max=1.04D-05 NDo=     1
 LinEq1:  Iter= 11 NonCon=     1 RMS=5.37D-07 Max=1.26D-05 NDo=     1
 LinEq1:  Iter= 12 NonCon=     1 RMS=5.35D-07 Max=1.33D-05 NDo=     1
 LinEq1:  Iter= 13 NonCon=     1 RMS=4.48D-07 Max=9.58D-06 NDo=     1
 LinEq1:  Iter= 14 NonCon=     1 RMS=4.29D-07 Max=1.27D-05 NDo=     1
 LinEq1:  Iter= 15 NonCon=     1 RMS=3.82D-07 Max=7.93D-06 NDo=     1
 LinEq1:  Iter= 16 NonCon=     1 RMS=2.99D-07 Max=7.09D-06 NDo=     1
 LinEq1:  Iter= 17 NonCon=     1 RMS=2.01D-07 Max=4.70D-06 NDo=     1
 LinEq1:  Iter= 18 NonCon=     1 RMS=2.27D-07 Max=5.25D-06 NDo=     1
 LinEq1:  Iter= 19 NonCon=     1 RMS=1.96D-07 Max=4.08D-06 NDo=     1
 LinEq1:  Iter= 20 NonCon=     1 RMS=1.69D-07 Max=2.34D-06 NDo=     1
 LinEq1:  Iter= 21 NonCon=     1 RMS=1.14D-07 Max=2.17D-06 NDo=     1
 LinEq1:  Iter= 22 NonCon=     1 RMS=9.89D-08 Max=1.70D-06 NDo=     1
 LinEq1:  Iter= 23 NonCon=     1 RMS=6.33D-08 Max=1.07D-06 NDo=     1
 LinEq1:  Iter= 24 NonCon=     1 RMS=4.73D-08 Max=7.10D-07 NDo=     1
 LinEq1:  Iter= 25 NonCon=     1 RMS=2.68D-08 Max=5.08D-07 NDo=     1
 LinEq1:  Iter= 26 NonCon=     1 RMS=1.55D-08 Max=2.94D-07 NDo=     1
 LinEq1:  Iter= 27 NonCon=     1 RMS=1.00D-08 Max=1.80D-07 NDo=     1
 LinEq1:  Iter= 28 NonCon=     1 RMS=5.55D-09 Max=1.10D-07 NDo=     1
 LinEq1:  Iter= 29 NonCon=     1 RMS=3.25D-09 Max=5.72D-08 NDo=     1
 LinEq1:  Iter= 30 NonCon=     1 RMS=2.10D-09 Max=3.81D-08 NDo=     1
 LinEq1:  Iter= 31 NonCon=     1 RMS=1.23D-09 Max=2.67D-08 NDo=     1
 LinEq1:  Iter= 32 NonCon=     1 RMS=8.41D-10 Max=2.66D-08 NDo=     1
 LinEq1:  Iter= 33 NonCon=     1 RMS=5.00D-10 Max=1.59D-08 NDo=     1
 LinEq1:  Iter= 34 NonCon=     1 RMS=3.20D-10 Max=9.69D-09 NDo=     1
 LinEq1:  Iter= 35 NonCon=     0 RMS=2.13D-10 Max=5.52D-09 NDo=     1
 Linear equations converged to 9.515D-10 9.515D-09 after    35 iterations.
 SCF Done:  E(RPM6) =  -1.44757646526     a.u. after  152 cycles
            Convg  =    0.2568D-06                   948 Fock formations.
              S**2 =  0.0000                  -V/T =  0.9915
 Range of M.O.s used for correlation:     1   443
 NBasis=   443 NAE=   148 NBE=   148 NFC=     0 NFV=     0
 NROrb=    443 NOA=   148 NOB=   148 NVA=   295 NVB=   295
 Symmetrizing basis deriv contribution to polar:
 IMax=3 JMax=2 DiffMx= 0.00D+00
 G2DrvN: will do    52 centers at a time, making    1 passes.
 Calling FoFCou, ICntrl=  3107 FMM=F I1Cent=   0 AccDes= 0.00D+00.
 End of G2Drv F.D. properties file   721 does not exist.
 End of G2Drv F.D. properties file   722 does not exist.
 End of G2Drv F.D. properties file   788 does not exist.
          IDoAtm=00000000000000000000000000000000000000000000000011
          IDoAtm=1
          Differentiating once with respect to electric field.
                with respect to dipole field.
          Differentiating once with respect to nuclear coordinates.
          Electric field/nuclear overlap derivatives assumed to be zero.
 Keep J ints in memory in canonical form, NReq=4351441.
          There are    12 degrees of freedom in the 1st order CPHF.  IDoFFX=5 NUNeed=    12.
 LinEq1:  Iter=  0 NonCon=    12 RMS=2.98D-01 Max=8.02D+00 NDo=    12
 AX will form    12 AO Fock derivatives at one time.
 LinEq1:  Iter=  1 NonCon=    12 RMS=3.28D-01 Max=6.06D+00 NDo=    12
 LinEq1:  Iter=  2 NonCon=    12 RMS=2.62D-01 Max=5.18D+00 NDo=    12
 LinEq1:  Iter=  3 NonCon=    12 RMS=2.21D-01 Max=4.14D+00 NDo=    12
 LinEq1:  Iter=  4 NonCon=    12 RMS=1.91D-01 Max=3.81D+00 NDo=    12
 LinEq1:  Iter=  5 NonCon=    12 RMS=2.36D-01 Max=6.52D+00 NDo=    12
 LinEq1:  Iter=  6 NonCon=    12 RMS=2.18D-01 Max=5.37D+00 NDo=    12
 LinEq1:  Iter=  7 NonCon=    12 RMS=2.00D-01 Max=9.15D+00 NDo=    12
 LinEq1:  Iter=  8 NonCon=    12 RMS=2.09D-01 Max=6.15D+00 NDo=    12
 LinEq1:  Iter=  9 NonCon=    12 RMS=1.52D-01 Max=4.37D+00 NDo=    12
 LinEq1:  Iter= 10 NonCon=    12 RMS=1.36D-01 Max=3.72D+00 NDo=    12
 LinEq1:  Iter= 11 NonCon=    12 RMS=1.22D-01 Max=2.61D+00 NDo=    12
 LinEq1:  Iter= 12 NonCon=    12 RMS=1.28D-01 Max=2.96D+00 NDo=    12
 LinEq1:  Iter= 13 NonCon=    12 RMS=1.05D-01 Max=2.48D+00 NDo=    12
 LinEq1:  Iter= 14 NonCon=    12 RMS=1.07D-01 Max=1.79D+00 NDo=    12
 LinEq1:  Iter= 15 NonCon=    12 RMS=9.55D-02 Max=1.77D+00 NDo=    12
 LinEq1:  Iter= 16 NonCon=    12 RMS=9.58D-02 Max=1.62D+00 NDo=    12
 LinEq1:  Iter= 17 NonCon=    12 RMS=7.30D-02 Max=1.47D+00 NDo=    12
 LinEq1:  Iter= 18 NonCon=    12 RMS=8.35D-02 Max=1.27D+00 NDo=    12
 LinEq1:  Iter= 19 NonCon=    12 RMS=5.80D-02 Max=9.45D-01 NDo=    12
 LinEq1:  Iter= 20 NonCon=    12 RMS=4.36D-02 Max=6.71D-01 NDo=    12
 LinEq1:  Iter= 21 NonCon=    12 RMS=3.14D-02 Max=4.53D-01 NDo=    12
 LinEq1:  Iter= 22 NonCon=    12 RMS=2.39D-02 Max=4.16D-01 NDo=    12
 LinEq1:  Iter= 23 NonCon=    12 RMS=1.68D-02 Max=3.02D-01 NDo=    12
 LinEq1:  Iter= 24 NonCon=    12 RMS=1.30D-02 Max=2.19D-01 NDo=    12
 LinEq1:  Iter= 25 NonCon=    12 RMS=7.50D-03 Max=1.79D-01 NDo=    12
 LinEq1:  Iter= 26 NonCon=    12 RMS=3.46D-03 Max=7.68D-02 NDo=    12
 LinEq1:  Iter= 27 NonCon=    12 RMS=2.33D-03 Max=5.30D-02 NDo=    12
 LinEq1:  Iter= 28 NonCon=    12 RMS=1.28D-03 Max=3.27D-02 NDo=    12
 LinEq1:  Iter= 29 NonCon=    12 RMS=9.53D-04 Max=2.33D-02 NDo=    12
 LinEq1:  Iter= 30 NonCon=    12 RMS=6.08D-04 Max=1.67D-02 NDo=    12
 LinEq1:  Iter= 31 NonCon=    12 RMS=3.01D-04 Max=8.95D-03 NDo=    12
 LinEq1:  Iter= 32 NonCon=    12 RMS=1.70D-04 Max=4.38D-03 NDo=    12
 LinEq1:  Iter= 33 NonCon=    12 RMS=1.23D-04 Max=3.00D-03 NDo=    12
 LinEq1:  Iter= 34 NonCon=    12 RMS=6.52D-05 Max=1.82D-03 NDo=    12
 LinEq1:  Iter= 35 NonCon=    12 RMS=4.04D-05 Max=9.97D-04 NDo=    12
 LinEq1:  Iter= 36 NonCon=    12 RMS=2.77D-05 Max=6.63D-04 NDo=    12
 LinEq1:  Iter= 37 NonCon=    12 RMS=1.15D-05 Max=3.01D-04 NDo=    12
 LinEq1:  Iter= 38 NonCon=    12 RMS=5.56D-06 Max=1.30D-04 NDo=    12
 LinEq1:  Iter= 39 NonCon=    12 RMS=3.70D-06 Max=7.48D-05 NDo=    12
 LinEq1:  Iter= 40 NonCon=    12 RMS=2.71D-06 Max=5.74D-05 NDo=    12
 LinEq1:  Iter= 41 NonCon=     5 RMS=1.33D-06 Max=2.76D-05 NDo=    12
 LinEq1:  Iter= 42 NonCon=     3 RMS=9.31D-07 Max=1.82D-05 NDo=    12
 LinEq1:  Iter= 43 NonCon=     3 RMS=5.69D-07 Max=1.56D-05 NDo=    12
 LinEq1:  Iter= 44 NonCon=     3 RMS=2.89D-07 Max=5.86D-06 NDo=    12
 LinEq1:  Iter= 45 NonCon=     3 RMS=1.94D-07 Max=4.56D-06 NDo=    12
 LinEq1:  Iter= 46 NonCon=     3 RMS=1.13D-07 Max=2.76D-06 NDo=    12
 LinEq1:  Iter= 47 NonCon=     3 RMS=4.12D-08 Max=1.03D-06 NDo=    12
 LinEq1:  Iter= 48 NonCon=     3 RMS=1.44D-08 Max=3.66D-07 NDo=    12
 LinEq1:  Iter= 49 NonCon=     2 RMS=6.22D-09 Max=1.60D-07 NDo=    12
 LinEq1:  Iter= 50 NonCon=     0 RMS=2.38D-09 Max=5.04D-08 NDo=    12
 Linear equations converged to 1.000D-08 1.000D-07 after    50 iterations.
 Isotropic polarizability for W=    0.000000     2867.32 Bohr**3.
 End of Minotr F.D. properties file   721 does not exist.
 End of Minotr F.D. properties file   722 does not exist.
 End of Minotr F.D. properties file   788 does not exist.

 **********************************************************************

            Population analysis using the SCF density.

 **********************************************************************

 Orbital symmetries:
       Occupied  (A) (A) (A) (A) (A) (A) (A) (A) (A) (A) (A) (A)
                 (A) (A) (A) (A) (A) (A) (A) (A) (A) (A) (A) (A)
                 (A) (A) (A) (A) (A) (A) (A) (A) (A) (A) (A) (A)
                 (A) (A) (A) (A) (A) (A) (A) (A) (A) (A) (A) (A)
                 (A) (A) (A) (A) (A) (A) (A) (A) (A) (A) (A) (A)
                 (A) (A) (A) (A) (A) (A) (A) (A) (A) (A) (A) (A)
                 (A) (A) (A) (A) (A) (A) (A) (A) (A) (A) (A) (A)
                 (A) (A) (A) (A) (A) (A) (A) (A) (A) (A) (A) (A)
                 (A) (A) (A) (A) (A) (A) (A) (A) (A) (A) (A) (A)
                 (A) (A) (A) (A) (A) (A) (A) (A) (A) (A) (A) (A)
                 (A) (A) (A) (A) (A) (A) (A) (A) (A) (A) (A) (A)
                 (A) (A) (A) (A) (A) (A) (A) (A) (A) (A) (A) (A)
                 (A) (A) (A) (A)
       Virtual   (A) (A) (A) (A) (A) (A) (A) (A) (A) (A) (A) (A)
                 (A) (A) (A) (A) (A) (A) (A) (A) (A) (A) (A) (A)
                 (A) (A) (A) (A) (A) (A) (A) (A) (A) (A) (A) (A)
                 (A) (A) (A) (A) (A) (A) (A) (A) (A) (A) (A) (A)
                 (A) (A) (A) (A) (A) (A) (A) (A) (A) (A) (A) (A)
                 (A) (A) (A) (A) (A) (A) (A) (A) (A) (A) (A) (A)
                 (A) (A) (A) (A) (A) (A) (A) (A) (A) (A) (A) (A)
                 (A) (A) (A) (A) (A) (A) (A) (A) (A) (A) (A) (A)
                 (A) (A) (A) (A) (A) (A) (A) (A) (A) (A) (A) (A)
                 (A) (A) (A) (A) (A) (A) (A) (A) (A) (A) (A) (A)
                 (A) (A) (A) (A) (A) (A) (A) (A) (A) (A) (A) (A)
                 (A) (A) (A) (A) (A) (A) (A) (A) (A) (A) (A) (A)
                 (A) (A) (A) (A) (A) (A) (A) (A) (A) (A) (A) (A)
                 (A) (A) (A) (A) (A) (A) (A) (A) (A) (A) (A) (A)
                 (A) (A) (A) (A) (A) (A) (A) (A) (A) (A) (A) (A)
                 (A) (A) (A) (A) (A) (A) (A) (A) (A) (A) (A) (A)
                 (A) (A) (A) (A) (A) (A) (A) (A) (A) (A) (A) (A)
                 (A) (A) (A) (A) (A) (A) (A) (A) (A) (A) (A) (A)
                 (A) (A) (A) (A) (A) (A) (A) (A) (A) (A) (A) (A)
                 (A) (A) (A) (A) (A) (A) (A) (A) (A) (A) (A) (A)
                 (A) (A) (A) (A) (A) (A) (A) (A) (A) (A) (A) (A)
                 (A) (A) (A) (A) (A) (A) (A) (A) (A) (A) (A) (A)
                 (A) (A) (A) (A) (A) (A) (A) (A) (A) (A) (A) (A)
                 (A) (A) (A) (A) (A) (A) (A) (A) (A) (A) (A) (A)
                 (A) (A) (A) (A) (A) (A) (A)
 The electronic state is 1-A.
 Alpha  occ. eigenvalues --   -1.23587  -1.10008  -1.07500  -1.04071  -1.01898
 Alpha  occ. eigenvalues --   -0.99739  -0.99448  -0.98922  -0.98837  -0.98302
 Alpha  occ. eigenvalues --   -0.98180  -0.98041  -0.97719  -0.97156  -0.97146
 Alpha  occ. eigenvalues --   -0.96894  -0.96456  -0.96338  -0.95905  -0.95574
 Alpha  occ. eigenvalues --   -0.95564  -0.94792  -0.94694  -0.94568  -0.94400
 Alpha  occ. eigenvalues --   -0.94098  -0.93809  -0.93500  -0.93094  -0.92914
 Alpha  occ. eigenvalues --   -0.92282  -0.91075  -0.88381  -0.58726  -0.51714
 Alpha  occ. eigenvalues --   -0.50346  -0.49889  -0.49166  -0.48683  -0.48292
 Alpha  occ. eigenvalues --   -0.48073  -0.47890  -0.47496  -0.46934  -0.46713
[...]
 .,0.,0.,0.,0.,0.,0.,0.,0.,0.,0.,0.,0.,0.,0.,0.,0.,0.,0.,0.,0.,0.,0.,0.
 ,0.,0.,0.,0.,0.,0.,0.,0.,0.,0.,0.,0.,0.,0.,0.,0.,0.,0.,0.,0.,0.,0.,0.,
 0.,0.,0.,0.,0.,0.,0.,0.,0.,0.,0.,0.,0.,0.,0.,0.,0.,0.,0.,0.,0.,0.,0.,0
 .,0.,0.,0.,0.,0.,0.,0.,0.,0.,0.,0.,0.,0.,0.,0.,0.,0.,0.,0.,0.,0.,0.,0.
 ,0.,0.,0.,0.,0.,0.,0.,0.,0.,0.,0.,0.,0.,0.,0.,0.,0.,0.,0.,0.,0.,0.,0.,
 0.,0.,0.,0.,0.,0.,0.,0.,0.,0.,0.,0.,0.,0.,0.,0.,0.,0.,0.,0.,0.,0.,0.,0
 .,0.,0.,0.,0.,0.,0.,0.,0.,0.,0.,0.,0.,0.,0.,0.,0.,0.,0.,0.,0.,0.,0.,0.
 ,0.,0.,0.,0.,0.,0.,0.,0.,0.,0.,0.,0.,0.,0.,0.,0.,0.,0.,0.,0.,0.,0.,0.,
 0.,0.,0.,0.,0.,0.,0.,0.,0.,0.,0.,0.,0.,0.,0.,0.,0.,0.,0.,0.,0.,0.,0.,0
 .,0.,0.,0.,0.,0.,0.,0.,0.,0.,0.,0.,0.,0.,0.,0.,0.,0.,0.,0.,0.,0.,0.,0.
 ,0.,0.,0.,0.,0.,0.,0.,0.,0.,0.,0.,0.,0.,0.,0.,0.,0.,0.,0.,0.,0.,0.,0.,
 0.,0.,0.,0.,0.,0.,0.,0.,0.,0.,0.,0.,0.,0.,0.,0.,0.,0.,0.,0.,0.,0.,0.,0
 .,0.,0.,0.,0.,0.,0.,0.,0.,0.,0.,0.,0.,0.,0.,0.,0.,0.,0.,0.,0.,0.,0.,0.
 ,0.,0.,0.,0.,0.,0.,0.,0.,0.,0.,0.,0.,0.,0.,0.,0.,0.,0.,0.,0.,0.,0.,0.,
 0.,0.,0.,0.,0.,0.,0.,0.,0.,0.,0.,0.,0.,0.,0.,0.,0.,0.,0.,0.,0.,0.,0.,0
 .,0.,0.,0.,0.,0.,0.,0.,0.,0.,0.,0.,0.,0.,0.,0.,0.,0.,0.,0.,0.,0.,0.,0.
 ,0.,0.,0.,0.,0.,0.,0.,0.,0.,0.,0.,0.,0.,0.,0.,0.,0.,0.,0.,0.,0.,0.,0.,
 0.,0.,0.,0.,0.,0.,0.,0.,0.,0.,0.,0.,0.,0.,0.,0.,0.,0.,0.,0.,0.,0.,0.,0
 .,0.,0.,0.,0.,0.,0.,0.,0.,0.,0.,0.,0.,0.,0.,0.,0.,0.,0.,0.,0.,0.,0.,0.
 ,0.,0.,0.,0.,0.,0.,0.,0.,0.,0.,0.,0.,0.,0.,0.,0.,0.,0.,0.,0.,0.,0.,0.,
 0.,0.,0.,0.,0.,0.,0.,0.,0.,0.,0.,0.,0.,0.,0.,0.,0.,0.,0.,0.,0.,0.,0.,0
 .,0.,0.,0.,0.,0.,0.,0.,0.,0.,0.,0.,0.,0.,0.,0.,0.,0.,0.,0.,0.,0.,0.,0.
 ,0.,0.,0.,0.,0.,0.,0.,0.,0.,0.,0.,0.,0.,0.,0.,0.,0.,0.,0.,0.,0.,0.,0.,
 0.,0.,0.,0.,0.,0.,0.,0.,0.,0.,0.,0.,0.,0.,0.,0.,0.,0.,0.,0.,0.,0.,0.,0
 .,0.,0.,0.,0.,0.,0.,0.,0.,0.,0.,0.,0.,0.,0.,0.,0.,0.,0.,0.,0.,0.,0.,0.
 ,0.,0.,0.,0.,0.,0.,0.,0.,0.,0.,0.,0.,0.,0.,0.,0.,0.,0.,0.,0.,0.,0.,0.,
 0.,0.,0.,0.,0.,0.,0.,0.,0.,0.,0.,0.,0.,0.,0.,0.,0.,0.,0.,0.,0.,0.,0.,0
 .,0.,0.,0.,0.,0.,0.,0.,0.,0.,0.,0.,0.,0.,0.,0.,0.,0.,0.,0.,0.,0.,0.,0.
 ,0.,0.,0.,0.,0.,0.,0.,0.,0.,0.,0.,0.,0.,0.,0.,0.,0.,0.,0.,0.,0.,0.,0.,
 0.,0.,0.,0.,0.,0.,0.,0.,0.,0.,0.,0.,0.,0.,0.,0.,0.,0.,0.,0.,0.,0.,0.,0
 .,0.,0.,0.,0.,0.,0.,0.,0.,0.,0.,0.,0.,0.,0.,0.,0.,0.,0.,0.,0.,0.,0.,0.
 ,0.,0.,0.,0.,0.,0.,0.,0.,0.,0.,0.,0.,0.,0.,0.,0.,0.,0.,0.,0.,0.,0.,0.,
 0.,0.,0.,0.,0.,0.,0.,0.,0.,0.,0.,0.,0.,0.,0.,0.,0.,0.,0.,0.,0.,0.,0.,0
 .,0.,0.,0.,0.,0.,0.,0.,0.,0.,0.,0.,0.,0.,0.,0.,0.,0.,0.,0.,0.,0.,0.,0.
 ,0.,0.,0.,0.,0.,0.,0.,0.,0.,0.,0.,0.,0.,0.,0.,0.,0.,0.,0.,0.,0.,0.,0.,
 0.,0.,0.,0.,0.,0.,0.,0.,0.,0.,0.,0.,0.,0.,0.,0.,0.,0.,0.,0.,0.,0.,0.,0
 .,0.,0.,0.,0.,0.,0.,0.,0.,0.,0.,0.,0.,0.,0.,0.,0.,0.,0.,0.,0.,0.,0.,0.
 ,0.,0.,0.,0.,0.,0.,0.,0.,0.,0.,0.,0.,0.,0.,0.,0.,0.,0.,0.,0.,0.,0.,0.,
 0.,0.,0.,0.,0.,0.,0.,0.,0.,0.,0.,0.,0.,0.,0.,0.,0.,0.,0.,0.,0.,0.,0.,0
 .,0.,0.,0.,0.,0.,0.,0.,0.,0.,0.,0.,0.,0.,0.,0.,0.,0.,0.,0.,0.,0.,0.,0.
 ,0.,0.,0.,0.,0.,0.,0.,0.,0.,0.,0.,0.,0.,0.,0.,0.,0.,0.,0.,0.,0.,0.,0.,
 0.,0.,0.,0.,0.,0.,0.,0.,0.,0.,0.,0.,0.,0.,0.,0.,0.,0.,0.,0.,0.,0.,0.,0
 .,0.,0.,0.,0.,0.,0.,0.,0.,0.,0.,0.,0.,0.,0.,0.,0.,0.,0.,0.,0.,0.,0.,0.
 ,0.,0.,0.,0.,0.,0.,0.,0.,0.,0.,0.,0.,0.,0.,0.,0.,0.,0.,0.,0.,0.,0.,0.,
 0.,0.,0.,0.,0.,0.,0.,0.,0.,0.,0.,0.,0.,0.,0.,0.,0.,0.,0.,0.,0.,0.,0.,0
 .,0.,0.,0.,0.,0.,0.,0.,0.,0.,0.,0.,0.,0.,0.,0.,0.,0.,0.,0.,0.,0.,0.,0.
 ,0.,0.,0.,0.,0.,0.,0.,0.,0.,0.,0.,0.,0.,0.,0.,0.,0.,0.,0.,0.,0.,0.,0.,
 0.,0.,0.,0.,0.,0.,0.,0.,0.,0.,0.,0.,0.,0.,0.,0.,0.,0.,0.,0.,0.,0.,0.,0
 .,0.,0.,0.,0.,0.,0.,0.,0.,0.,0.,0.,0.,0.,0.,0.,0.,0.,0.,0.,0.,0.,0.,0.
 ,0.,0.,0.,0.,0.,0.,0.,0.,0.,0.,0.,0.,0.,0.,0.,0.,0.,0.,0.,0.,0.,0.,0.,
 0.,0.,0.,0.,0.,0.,0.,0.,0.,0.,0.,0.,0.,0.,0.,0.,0.,0.,0.,0.,0.,0.,0.,0
 .,0.,0.,0.,0.,0.,0.,0.,0.,0.,0.,0.,0.,0.,0.,0.,0.,0.,0.,0.,0.,0.,0.,0.
 ,0.,0.,0.,0.,0.,0.,0.,0.,0.,0.,0.,0.,0.,0.,0.,0.,0.,0.,0.,0.,0.,0.,0.,
 0.,0.,0.,0.,0.,0.,0.,0.,0.,0.,0.,0.,0.,0.,0.,0.,0.,0.,0.,0.,0.,0.,0.,0
 .,0.,0.,0.,0.,0.,0.,0.,0.,0.,0.,0.,0.,0.,0.,0.,0.,0.,0.,0.,0.,0.,0.,0.
 ,0.,0.,0.,0.,0.,0.,0.,0.,0.,0.,0.,0.,0.,0.,0.,0.,0.,0.,0.,0.,0.,0.,0.,
 0.,0.,0.,0.,0.,0.,0.,0.,0.,0.,0.,0.,0.,0.,0.,0.,0.,0.,0.,0.,0.,0.,0.,0
 .,0.,0.,0.,0.,0.,0.,0.,0.,0.,0.,0.,0.,0.,0.,0.,0.,0.,0.,0.,0.,0.,0.,0.
 ,0.,0.,0.,0.,0.,0.,0.,0.,0.,0.,0.,0.,0.,0.,0.,0.,0.,0.,0.,0.,0.,0.,0.,
 0.,0.,0.,0.,0.,0.,0.,0.,0.,0.,0.,0.,0.,0.,0.,0.,0.,0.,0.,0.,0.,0.,0.,0
 .,0.,0.,0.,0.,0.,0.,0.,0.,0.,0.,0.,0.,0.,0.,0.,0.,0.,0.,0.,0.,0.,0.,0.
 ,0.,0.,0.,0.,0.,0.,0.,0.,0.,0.,0.,0.,0.,0.,0.,0.,0.,0.,0.,0.,0.,0.,0.,
 0.,0.,0.,0.,0.,0.,0.,0.,0.,0.,0.,0.,0.,0.,0.,0.,0.,0.,0.,0.,0.,0.,0.,0
 .,0.,0.,0.,0.,0.,0.,0.,0.,0.,0.,0.,0.,0.,0.,0.,0.,0.,0.,0.,0.,0.,0.,0.
 ,0.,0.,0.,0.,0.,0.,0.,0.,0.,0.,0.,0.,0.,0.,0.,0.,0.,0.,0.,0.,0.,0.,0.,
 0.,0.,0.,0.,0.,0.,0.,0.,0.,0.,0.,0.,0.,0.,0.,0.,0.,0.,0.,0.,0.,0.,0.,0
 .,0.,0.,0.,0.,0.,0.,0.,0.,0.,0.,0.,0.,0.,0.,0.,0.,0.,0.,0.,0.,0.,0.,0.
 ,0.,0.,0.,0.,0.,0.,0.,0.,0.,0.,0.,0.,0.,0.,0.,0.,0.,0.,0.,0.,0.,0.,0.,
 0.,0.,0.,0.,0.,0.,0.,0.,0.,0.,0.,0.,0.,0.,0.,0.,0.,0.,0.,0.,0.,0.,0.,0
 .,0.,0.,0.,0.,0.,0.,0.,0.,0.,0.,0.,0.,0.,0.,0.,0.,0.,0.,0.,0.,0.,0.,0.
 ,0.,0.,0.,0.,0.,0.,0.,0.,0.,0.,0.,0.,0.,0.,0.,0.,0.,0.,0.,0.,0.,0.,0.,
 0.,0.,0.,0.,0.,0.,0.,0.,0.,0.,0.,0.,0.,0.,0.,0.,0.,0.,0.,0.,0.,0.,0.,0
 .,0.,0.,0.,0.,0.,0.,0.,0.,0.,0.,0.,0.,0.,0.,0.,0.,0.,0.,0.,0.,0.,0.,0.
 ,0.,0.,0.,0.,0.,0.,0.,0.,0.,0.,0.,0.,0.,0.,0.,0.,0.,0.,0.,0.,0.,0.,0.,
 0.,0.,0.,0.,0.,0.,0.,0.,0.,0.,0.,0.,0.,0.,0.,0.,0.,0.,0.,0.,0.,0.,0.,0
 .,0.,0.,0.,0.,0.,0.,0.,0.,0.,0.,0.,0.,0.,0.,0.,0.,0.,0.,0.,0.,0.,0.,0.
 ,0.,0.,0.,0.,0.,0.,0.,0.,0.,0.,0.,0.,0.,0.,0.,0.,0.,0.,0.,0.,0.,0.,0.,
 0.,0.,0.,0.,0.,0.,0.,0.,0.,0.,0.,0.,0.,0.,0.,0.,0.,0.,0.,0.,0.,0.,0.,0
 .,0.,0.,0.,0.,0.,0.,0.,0.,0.,0.,0.,0.,0.,0.,0.,0.,0.,0.,0.,0.,0.,0.,0.
 ,0.,0.,0.,0.,0.,0.,0.,0.,0.,0.,0.,0.,0.,0.,0.,0.,0.,0.,0.,0.,0.,0.,0.,
 0.,0.,0.,0.,0.,0.,0.,0.,0.,0.,0.,0.,0.,0.,0.,0.,0.,0.,0.,0.,0.,0.,0.,0
 .,0.,0.,0.,0.,0.,0.,0.,0.,0.,0.,0.,0.,0.,0.,0.,0.,0.,0.,0.,0.,0.,0.,0.
 ,0.,0.,0.,0.,0.,0.,0.,0.,0.,0.,0.,0.,0.,0.,0.,0.,0.,0.,0.,0.,0.,0.,0.,
 0.,0.,0.,0.,0.,0.,0.,0.,0.,0.,0.,0.,0.,0.,0.,0.,0.,0.,0.,0.,0.,0.,0.,0
 .,0.,0.,0.,0.,0.,0.,0.,0.,0.,0.,0.,0.,0.,0.,0.,0.,0.,0.,0.,0.,0.,0.,0.
 ,0.,0.,0.,0.,0.,0.,0.,0.,0.,0.,0.,0.,0.,0.,0.,0.,0.,0.,0.,0.,0.,0.,0.,
 0.,0.,0.,0.,0.,0.,0.,0.,0.,0.,0.,0.,0.,0.,0.,0.,0.,0.,0.,0.,0.,0.,0.,0
 .,0.,0.,0.,0.,0.,0.,0.,0.,0.,0.,0.,0.,0.,0.,0.,0.,0.,0.,0.,0.,0.,0.,0.
 ,0.,0.,0.,0.,0.,0.,0.,0.,0.,0.,0.,0.,0.,0.,0.,0.,0.,0.,0.,0.,0.,0.,0.,
 0.,0.,0.,0.,0.,0.,0.,0.,0.,0.,0.,0.,0.,0.,0.,0.,0.,0.,0.,0.,0.,0.,0.,0
 .,0.,0.,0.,0.,0.,0.,0.,0.,0.,0.,0.,0.,0.,0.,0.,0.,0.,0.,0.,0.,0.,0.,0.
 ,0.,0.,0.,0.,0.,0.,0.,0.,0.,0.,0.,0.,0.,0.,0.,0.,0.,0.,0.,0.,0.,0.,0.,
 0.,0.,0.,0.,0.,0.,0.,0.,0.,0.,0.,0.,0.,0.,0.,0.,0.,0.,0.,0.,0.,0.,0.,0
 .,0.,0.,0.,0.,0.,0.,0.,0.,0.,0.,0.,0.,0.,0.,0.,0.,0.,0.,0.,0.,0.,0.,0.
 ,0.,0.,0.,0.,0.,0.,0.,0.,0.,0.,0.,0.,0.,0.,0.,0.,0.,0.,0.,0.,0.,0.,0.,
 0.,0.,0.,0.,0.,0.,0.,0.,0.,0.,0.,0.,0.,0.,0.,0.,0.,0.,0.,0.,0.,0.,0.,0
 .,0.,0.,0.,0.,0.,0.,0.,0.,0.,0.,0.,0.,0.,0.,0.,0.,0.,0.,0.,0.,0.,0.,0.
 ,0.,0.,0.,0.,0.,0.,0.,0.,0.,0.,0.,0.,0.,0.,0.,0.,0.,0.,0.,0.,0.,0.,0.,
 0.,0.,0.,0.,0.,0.,0.,0.,0.,0.,0.,0.,0.,0.,0.,0.,0.,0.,0.,0.,0.,0.,0.,0
 .,0.,0.,0.,0.,0.,0.,0.,0.,0.,0.,0.,0.,0.,0.,0.,0.,0.,0.,0.,0.,0.,0.,0.
 ,0.,0.,0.,0.,0.,0.,0.,0.,0.,0.,0.,0.,0.,0.,0.,0.,0.,0.,0.,0.,0.,0.,0.,
 0.,0.,0.,0.,0.,0.,0.,0.,0.,0.,0.,0.,0.,0.,0.,0.,0.,0.,0.,0.,0.,0.,0.,0
 .,0.,0.,0.,0.,0.,0.,0.,0.,0.,0.,0.,0.,0.,0.,0.,0.,0.,0.,0.,0.,0.,0.,0.
 ,0.,0.,0.,0.,0.,0.,0.,0.,0.,0.,0.,0.,0.,0.,0.,0.,0.,0.,0.,0.,0.,0.,0.,
 0.,0.,0.,0.,0.,0.,0.,0.,0.,0.,0.,0.,0.,0.,0.,0.,0.,0.,0.,0.,0.,0.,0.,0
 .,0.,0.,0.,0.,0.,0.,0.,0.,0.,0.,0.,0.,0.,0.,0.,0.,0.,0.,0.,0.,0.,0.,0.
 ,0.,0.,0.,0.,0.,0.,0.,0.,0.,0.,0.,0.,0.,0.,0.,0.,0.,0.,0.,0.,0.,0.,0.,
 0.,0.,0.,0.,0.,0.,0.,0.,0.,0.,0.,0.,0.,0.,0.,0.,0.,0.,0.,0.,0.,0.,0.,0
 .,0.,0.,0.,0.,0.,0.,0.,0.,0.,0.,0.,0.,0.,0.,0.,0.,0.,0.,0.,0.,0.,0.,0.
 ,0.,0.,0.,0.,0.,0.,0.,0.,0.,0.,0.,0.,0.,0.,0.,0.,0.,0.,0.,0.,0.,0.,0.,
 0.,0.,0.,0.,0.,0.,0.,0.,0.,0.,0.,0.,0.,0.,0.,0.,0.,0.,0.,0.,0.,0.,0.,0
 .,0.,0.,0.,0.,0.,0.,0.,0.,0.,0.,0.,0.,0.,0.,0.,0.,0.,0.,0.,0.,0.,0.,0.
 ,0.,0.,0.,0.,0.,0.,0.,0.,0.,0.,0.,0.,0.,0.,0.,0.,0.,0.,0.,0.,0.,0.,0.,
 0.,0.,0.,0.,0.,0.,0.,0.,0.,0.,0.,0.,0.,0.,0.,0.,0.,0.,0.,0.,0.,0.,0.,0
 .,0.,0.,0.,0.,0.,0.,0.,0.,0.,0.,0.,0.,0.,0.,0.,0.,0.,0.,0.,0.,0.,0.,0.
 ,0.,0.,0.,0.,0.,0.,0.,0.,0.,0.,0.,0.,0.,0.,0.,0.,0.,0.,0.,0.,0.,0.,0.,
 0.,0.,0.,0.,0.,0.,0.,0.,0.,0.,0.,0.,0.,0.,0.,0.,0.,0.,0.,0.,0.,0.,0.,0
 .,0.,0.,0.,0.,0.,0.,0.,0.,0.,0.,0.,0.,0.,0.,0.,0.,0.,0.,0.,0.,0.,0.,0.
 ,0.,0.,0.,0.,0.,0.,0.,0.,0.,0.,0.,0.,0.,0.,0.,0.,0.,0.,0.,0.,0.,0.,0.,
 0.,0.,0.,0.,0.,0.,0.,0.,0.,0.,0.,0.,0.,0.,0.,0.,0.,0.,0.,0.,0.,0.,0.,0
 .,0.,0.,0.,0.,0.,0.,0.,0.,0.,0.,0.,0.,0.,0.,0.,0.,0.,0.,0.,0.,0.,0.,0.
 ,0.,0.,0.,0.,0.,0.,0.,0.,0.,0.,0.,0.,0.,0.,0.,0.,0.,0.,0.,0.,0.,0.,0.,
 0.,0.,0.,0.,0.,0.,0.,0.,0.,0.,0.,0.,0.,0.,0.,0.,0.,0.,0.,0.,0.,0.,0.,0
 .,0.,0.,0.,0.,0.,0.,0.,0.,0.,0.,0.,0.,0.,0.,0.,0.,0.,0.,0.,0.,0.,0.,0.
 ,0.,0.,0.,0.,0.,0.,0.,0.,0.,0.,0.,0.,0.,0.,0.,0.,0.,0.,0.,0.,0.,0.,0.,
 0.,0.,0.,0.,0.,0.,0.,0.,0.,0.,0.,0.,0.,0.,0.,0.,0.,0.,0.,0.,0.,0.,0.,0
 .,0.,0.,0.,0.,0.,0.,0.,0.,0.,0.,0.,0.,0.,0.,0.,0.,0.,0.,0.,0.,0.,0.,0.
 ,0.,0.,0.,0.,0.,0.,0.,0.,0.,0.,0.,0.,0.,0.,0.,0.,0.,0.,0.,0.,0.,0.,0.,
 0.,0.,0.,0.,0.,0.,0.,0.,0.,0.,0.,0.,0.,0.,0.,0.,0.,0.,0.,0.,0.,0.,0.,0
 .,0.,0.,0.,0.,0.,0.,0.,0.,0.,0.,0.,0.,0.,0.,0.,0.,0.,0.,0.,0.,0.,0.,0.
 ,0.,0.,0.,0.,0.,0.,0.,0.,0.,0.,0.,0.,0.,0.,0.,0.,0.,0.,0.,0.,0.,0.,0.,
 0.,0.,0.,0.,0.,0.,0.,0.,0.,0.,0.,0.,0.,0.,0.,0.,0.,0.,0.,0.,0.,0.,0.,0
 .,0.,0.,0.,0.,0.,0.,0.,0.,0.,0.,0.,0.,0.,0.,0.,0.,0.,0.,0.,0.,0.,0.,0.
 ,0.,0.,0.,0.,0.,0.,0.,0.,0.,0.,0.,0.,0.,0.,0.,0.,0.,0.,0.,0.,0.,0.,0.,
 0.,0.,0.,0.,0.,0.,0.,0.,0.,0.,0.,0.,0.,0.,0.,0.,0.,0.,0.,0.,0.,0.,0.,0
 .,0.,0.,0.,0.,0.,0.,0.,0.,0.,0.,0.,0.,0.,0.,0.,0.,0.,0.,0.,0.,0.,0.,0.
 ,0.,0.,0.,0.,0.,0.,0.,0.,0.,0.,0.,0.,0.,0.,0.,0.,0.,0.,0.,0.,0.,0.,0.,
 0.,0.,0.,0.,0.,0.,0.,0.,0.,0.,0.,0.,0.,0.,0.,0.,0.,0.,0.,0.,0.,0.,0.,0
 .,0.,0.,0.,0.,0.,0.,0.,0.,0.,0.,0.,0.,0.,0.,0.,0.,0.,0.,0.,0.,0.,0.,0.
 ,0.,0.,0.,0.,0.,0.,0.,0.,0.,0.,0.,0.,0.,0.,0.,0.,0.,0.,0.,0.,0.,0.,0.,
 0.,0.,0.,0.,0.,0.,0.,0.,0.,0.,0.,0.,0.,0.,0.,0.,0.,0.,0.,0.,0.,0.,0.,0
 .,0.,0.,0.,0.,0.,0.,0.,0.,0.,0.,0.,0.,0.,0.,0.,0.,0.,0.,0.,0.,0.,0.,0.
 ,0.,0.,0.,0.,0.,0.,0.,0.,0.,0.,0.,0.,0.,0.,0.,0.,0.,0.,0.,0.,0.,0.,0.,
 0.,0.,0.,0.,0.,0.,0.,0.,0.,0.,0.,0.,0.,0.,0.,0.,0.,0.,0.,0.,0.,0.,0.,0
 .,0.,0.,0.,0.,0.,0.,0.,0.,0.,0.,0.,0.,0.,0.,0.,0.,0.,0.,0.,0.,0.,0.,0.
 ,0.,0.,0.,0.,0.,0.,0.,0.,0.,0.,0.,0.,0.,0.,0.,0.,0.,0.,0.,0.,0.,0.,0.,
 0.,0.,0.,0.,0.,0.,0.,0.,0.,0.,0.,0.,0.,0.,0.,0.,0.,0.,0.,0.,0.,0.,0.,0
 .,0.,0.,0.,0.,0.,0.,0.,0.,0.,0.,0.,0.,0.,0.,0.,0.,0.,0.,0.,0.,0.,0.,0.
 ,0.,0.,0.,0.,0.,0.,0.,0.,0.,0.,0.,0.,0.,0.,0.,0.,0.,0.,0.,0.,0.,0.,0.,
 0.,0.,0.,0.,0.,0.,0.,0.,0.,0.,0.,0.,0.,0.,0.,0.,0.,0.,0.,0.,0.,0.,0.,0
 .,0.,0.,0.,0.,0.,0.,0.,0.,0.,0.,0.,0.,0.,0.,0.,0.,0.,0.,0.,0.,0.,0.,0.
 ,0.,0.,0.,0.,0.,0.,0.,0.,0.,0.,0.,0.,0.,0.,0.,0.,0.,0.,0.,0.,0.,0.,0.,
 0.,0.,0.,0.,0.,0.,0.,0.,0.,0.,0.,0.,0.,0.,0.,0.,0.,0.,0.,0.,0.,0.,0.,0
 .,0.,0.,0.,0.,0.,0.,0.,0.,0.,0.,0.,0.,0.,0.,0.,0.,0.,0.,0.,0.,0.,0.,0.
 ,0.,0.,0.,0.,0.,0.,0.,0.,0.,0.,0.,0.,0.,0.,0.,0.,0.,0.,0.,0.,0.,0.,0.,
 0.,0.,0.,0.,0.,0.,0.,0.,0.,0.,0.,0.,0.,0.,0.,0.,0.,0.,0.,0.,0.,0.,0.,0
 .,0.,0.,0.,0.,0.,0.,0.,0.,0.,0.,0.,0.,0.,0.,0.,0.,0.,0.,0.,0.,0.,0.,0.
 ,0.,0.,0.,0.,0.,0.,0.,0.,0.,0.,0.,0.,0.,0.,0.,0.,0.,0.,0.,0.,0.,0.,0.,
 0.,0.,0.,0.,0.,0.,0.,0.,0.,0.,0.,0.,0.,0.,0.,0.,0.,0.,0.,0.,0.,0.,0.,0
 .,0.,0.,0.,0.,0.,0.,0.,0.,0.,0.,0.,0.,0.,0.,0.,0.,0.,0.,0.,0.,0.,0.,0.
 ,0.,0.,0.,0.,0.,0.,0.,0.,0.,0.,0.,0.,0.,0.,0.,0.,0.,0.,0.,0.,0.,0.,0.,
 0.,0.,0.,0.,0.,0.,0.,0.,0.,0.,0.,0.,0.,0.,0.,0.,0.,0.,0.,0.,0.,0.,0.,0
 .,0.,0.,0.,0.,0.,0.,0.,0.,0.,0.,0.,0.,0.,0.,0.,0.,0.,0.,0.,0.,0.,0.,0.
 ,0.,0.,0.,0.,0.,0.,0.,0.,0.,0.,0.,0.,0.,0.,0.,0.,0.,0.,0.,0.,0.,0.,0.,
 0.,0.,0.,0.,0.,0.,0.,0.,0.,0.,0.,0.,0.,0.,0.,0.,0.,0.,0.,0.,0.,0.,0.,0
 .,0.,0.,0.,0.,0.,0.,0.,0.,0.,0.,0.,0.,0.,0.,0.,0.,0.,0.,0.,0.,0.,0.,0.
 ,0.,0.,0.,0.,0.,0.,0.,0.,0.,0.,0.,0.,0.,0.,0.,0.,0.,0.,0.,0.,0.,0.,0.,
 0.,0.,0.,0.,0.,0.,0.,0.,0.,0.,0.,0.,0.,0.,0.,0.,0.,0.,0.,0.,0.,0.,0.,0
 .,0.,0.,0.,0.,0.,0.,0.,0.,0.,0.,0.,0.,0.,0.,0.,0.,0.,0.,0.,0.,0.,0.,0.
 ,0.,0.,0.,0.,0.,0.,0.,0.,0.,0.,0.,0.,0.,0.,0.,0.,0.,0.,0.,0.,0.,0.,0.,
 0.,0.,0.,0.,0.,0.,0.,0.,0.,0.,0.,0.,0.,0.,0.,0.,0.,0.,0.,0.,0.,0.,0.,0
 .,0.,0.,0.,0.,0.,0.,0.,0.,0.,0.,0.,0.,0.,0.,0.,0.,0.,0.,0.,0.,0.,0.,0.
 ,0.,0.,0.,0.,0.,0.,0.,0.,0.,0.,0.,0.,0.,0.,0.,0.,0.,0.,0.,0.,0.,0.,0.,
 0.,0.,0.,0.,0.,0.,0.,0.,0.,0.,0.,0.,0.,0.,0.,0.,0.,0.,0.,0.,0.,0.,0.,0
 .,0.,0.,0.,0.,0.,0.,0.,0.,0.,0.,0.,0.,0.,0.,0.,0.,0.,0.,0.,0.,0.,0.,0.
 ,0.,0.,0.,0.,0.,0.,0.,0.,0.,0.,0.,0.,0.,0.,0.,0.,0.,0.,0.,0.,0.,0.,0.,
 0.,0.,0.,0.,0.,0.,0.,0.,0.,0.,0.,0.,0.,0.,0.,0.,0.,0.,0.,0.,0.,0.,0.,0
 .,0.,0.,0.,0.,0.,0.,0.,0.,0.,0.,0.,0.,0.,0.,0.,0.,0.,0.,0.,0.,0.,0.,0.
 ,0.,0.,0.,0.,0.,0.,0.,0.,0.,0.,0.,0.,0.,0.,0.,0.,0.,0.,0.,0.,0.,0.,0.,
 0.,0.,0.,0.,0.,0.,0.,0.,0.,0.,0.,0.,0.,0.,0.,0.,0.,0.,0.,0.,0.,0.,0.,0
 .,0.,0.,0.,0.,0.,0.,0.,0.,0.,0.,0.,0.,0.,0.,0.,0.,0.,0.,0.,0.,0.,0.,0.
 ,0.,0.,0.,0.,0.,0.,0.,0.,0.,0.,0.,0.,0.,0.,0.,0.,0.,0.,0.,0.,0.,0.,0.,
 0.,0.,0.,0.,0.,0.,0.,0.,0.,0.,0.,0.,0.,0.,0.,0.,0.,0.,0.,0.,0.,0.,0.,0
 .,0.,0.,0.,0.,0.,0.,0.,0.,0.,0.,0.,0.,0.,0.,0.,0.,0.,0.,0.,0.,0.,0.,0.
 ,0.,0.,0.,0.,0.,0.,0.,0.,0.,0.,0.,0.,0.,0.,0.,0.,0.,0.,0.,0.,0.,0.,0.,
 0.,0.,0.,0.,0.,0.,0.,0.,0.,0.,0.,0.,0.,0.,0.,0.,0.,0.,0.,0.,0.,0.,0.,0
 .,0.,0.,0.,0.,0.,0.,0.,0.,0.,0.,0.,0.,0.,0.,0.,0.,0.,0.,0.,0.,0.,0.,0.
 ,0.,0.,0.,0.,0.,0.,0.,0.,0.,0.,0.,0.,0.,0.,0.,0.,0.,0.,0.,0.,0.,0.,0.,
 0.,0.,0.,0.,0.,0.,0.,0.,0.,0.,0.,0.,0.,0.,0.,0.,0.,0.,0.,0.,0.,0.,0.,0
 .,0.,0.,0.,0.,0.,0.,0.,0.,0.,0.,0.,0.,0.,0.,0.,0.,0.,0.,0.,0.,0.,0.,0.
 ,0.,0.,0.,0.,0.,0.,0.,0.,0.,0.,0.,0.,0.,0.,0.,0.,0.,0.,0.,0.,0.,0.,0.,
 0.,0.,0.,0.,0.,0.,0.,0.,0.,0.,0.,0.,0.,0.,0.,0.,0.,0.,0.,0.,0.,0.,0.,0
 .,0.,0.,0.,0.,0.,0.,0.,0.,0.,0.,0.,0.,0.,0.,0.,0.,0.,0.,0.,0.,0.,0.,0.
 ,0.,0.,0.,0.,0.,0.,0.,0.,0.,0.,0.,0.,0.,0.,0.,0.,0.,0.,0.,0.,0.,0.,0.,
 0.,0.,0.,0.,0.,0.,0.,0.,0.,0.,0.,0.,0.,0.,0.,0.,0.,0.,0.,0.,0.,0.,0.,0
 .,0.,0.,0.,0.,0.,0.,0.,0.,0.,0.,0.,0.,0.,0.,0.,0.,0.,0.,0.,0.,0.,0.,0.
 ,0.,0.,0.,0.,0.,0.,0.,0.,0.,0.,0.,0.,0.,0.,0.,0.,0.,0.,0.,0.,0.,0.,0.,
 0.,0.,0.,0.,0.,0.,0.,0.,0.,0.,0.,0.,0.,0.,0.,0.,0.,0.,0.,0.,0.,0.,0.,0
 .,0.,0.,0.,0.,0.,0.,0.,0.,0.,0.,0.,0.,0.,0.,0.,0.,0.,0.,0.,0.,0.,0.,0.
 ,0.,0.,0.,0.,0.,0.,0.,0.,0.,0.,0.,0.,0.,0.,0.,0.,0.,0.,0.,0.,0.,0.,0.,
 0.,0.,0.,0.,0.,0.,0.,0.,0.,0.,0.,0.,0.,0.,0.,0.,0.,0.,0.,0.,0.,0.,0.,0
 .,0.,0.,0.,0.,0.,0.,0.,0.,0.,0.,0.,0.,0.,0.,0.,0.,0.,0.,0.,0.,0.,0.,0.
 ,0.,0.,0.,0.,0.,0.,0.,0.,0.,0.,0.,0.,0.,0.,0.,0.,0.,0.,0.,0.,0.,0.,0.,
 0.,0.,0.,0.,0.,0.,0.,0.,0.,0.,0.,0.,0.,0.,0.,0.,0.,0.,0.,0.,0.,0.,0.,0
 .,0.,0.,0.,0.,0.,0.,0.,0.,0.,0.,0.,0.,0.,0.29323451,0.,0.,0.,0.,0.,0.,
 0.,0.,0.,0.,0.,0.,0.,0.,0.,0.,0.,0.,0.,0.,0.,0.,0.,0.,0.,0.,0.,0.,0.,0
 .,0.,0.,0.,0.,0.,0.,0.,0.,0.,0.,0.,0.,0.,0.,0.,0.,0.,0.,0.,0.,0.,0.,0.
 ,0.,0.,0.,0.,0.,0.,0.,0.,0.,0.,0.,0.,0.,0.,0.,0.,0.,0.,0.,0.,0.,0.,0.,
 0.,0.,0.,0.,0.,0.,0.,0.,0.,0.,0.,0.,0.,0.,0.,0.,0.,0.,0.,0.,0.,0.,0.,0
 .,0.,0.,0.,0.,0.,0.,0.,0.,0.,0.,0.,0.,0.,0.,0.,0.,0.,0.,0.,0.,0.,0.,0.
 ,0.,0.,0.,0.,0.,0.,0.,0.,0.,0.,0.,0.,0.,0.,0.,0.,0.,0.,0.,0.,0.,-0.074
 40330,0.25543138,0.,0.,0.,0.,0.,0.,0.,0.,0.,0.,0.,0.,0.,0.,0.,0.,0.,0.
 ,0.,0.,0.,0.,0.,0.,0.,0.,0.,0.,0.,0.,0.,0.,0.,0.,0.,0.,0.,0.,0.,0.,0.,
 0.,0.,0.,0.,0.,0.,0.,0.,0.,0.,0.,0.,0.,0.,0.,0.,0.,0.,0.,0.,0.,0.,0.,0
 .,0.,0.,0.,0.,0.,0.,0.,0.,0.,0.,0.,0.,0.,0.,0.,0.,0.,0.,0.,0.,0.,0.,0.
 ,0.,0.,0.,0.,0.,0.,0.,0.,0.,0.,0.,0.,0.,0.,0.,0.,0.,0.,0.,0.,0.,0.,0.,
 0.,0.,0.,0.,0.,0.,0.,0.,0.,0.,0.,0.,0.,0.,0.,0.,0.,0.,0.,0.,0.,0.,0.,0
 .,0.,0.,0.,0.,0.,0.,0.,0.,0.,0.02729779,0.02612644,-0.04952870,0.,0.,0
 .,0.,0.,0.,0.,0.,0.,0.,0.,0.,0.,0.,0.,0.,0.,0.,0.,0.,0.,0.,0.,0.,0.,0.
 ,0.,0.,0.,0.,0.,0.,0.,0.,0.,0.,0.,0.,0.,0.,0.,0.,0.,0.,0.,0.,0.,0.,0.,
 0.,0.,0.,0.,0.,0.,0.,0.,0.,0.,0.,0.,0.,0.,0.,0.,0.,0.,0.,0.,0.,0.,0.,0
 .,0.,0.,0.,0.,0.,0.,0.,0.,0.,0.,0.,0.,0.,0.,0.,0.,0.,0.,0.,0.,0.,0.,0.
 ,0.,0.,0.,0.,0.,0.,0.,0.,0.,0.,0.,0.,0.,0.,0.,0.,0.,0.,0.,0.,0.,0.,0.,
 0.,0.,0.,0.,0.,0.,0.,0.,0.,0.,0.,0.,0.,0.,0.,0.,0.,0.,0.,0.,0.,0.,0.,0
 .,0.,-0.27583864,-0.01465303,-0.00108928,0.27068496,0.,0.,0.,0.,0.,0.,
 0.,0.,0.,0.,0.,0.,0.,0.,0.,0.,0.,0.,0.,0.,0.,0.,0.,0.,0.,0.,0.,0.,0.,0
 .,0.,0.,0.,0.,0.,0.,0.,0.,0.,0.,0.,0.,0.,0.,0.,0.,0.,0.,0.,0.,0.,0.,0.
 ,0.,0.,0.,0.,0.,0.,0.,0.,0.,0.,0.,0.,0.,0.,0.,0.,0.,0.,0.,0.,0.,0.,0.,
 0.,0.,0.,0.,0.,0.,0.,0.,0.,0.,0.,0.,0.,0.,0.,0.,0.,0.,0.,0.,0.,0.,0.,0
 .,0.,0.,0.,0.,0.,0.,0.,0.,0.,0.,0.,0.,0.,0.,0.,0.,0.,0.,0.,0.,0.,0.,0.
 ,0.,0.,0.,0.,0.,0.,0.,0.,0.,0.,0.,0.,0.,0.,0.,0.,0.,0.,0.,0.,0.,-0.071
 51783,0.00621628,0.00536842,0.03007619,-0.02342929,0.,0.,0.,0.,0.,0.,0
 .,0.,0.,0.,0.,0.,0.,0.,0.,0.,0.,0.,0.,0.,0.,0.,0.,0.,0.,0.,0.,0.,0.,0.
 ,0.,0.,0.,0.,0.,0.,0.,0.,0.,0.,0.,0.,0.,0.,0.,0.,0.,0.,0.,0.,0.,0.,0.,
 0.,0.,0.,0.,0.,0.,0.,0.,0.,0.,0.,0.,0.,0.,0.,0.,0.,0.,0.,0.,0.,0.,0.,0
 .,0.,0.,0.,0.,0.,0.,0.,0.,0.,0.,0.,0.,0.,0.,0.,0.,0.,0.,0.,0.,0.,0.,0.
 ,0.,0.,0.,0.,0.,0.,0.,0.,0.,0.,0.,0.,0.,0.,0.,0.,0.,0.,0.,0.,0.,0.,0.,
 0.,0.,0.,0.,0.,0.,0.,0.,0.,0.,0.,0.,0.,0.,0.,0.,0.,0.,0.,0.,0.,-0.0739
 5929,0.00611629,0.04480629,0.04501952,-0.00521084,-0.02081590,0.,0.,0.
 ,0.,0.,0.,0.,0.,0.,0.,0.,0.,0.,0.,0.,0.,0.,0.,0.,0.,0.,0.,0.,0.,0.,0.,
 0.,0.,0.,0.,0.,0.,0.,0.,0.,0.,0.,0.,0.,0.,0.,0.,0.,0.,0.,0.,0.,0.,0.,0
 .,0.,0.,0.,0.,0.,0.,0.,0.,0.,0.,0.,0.,0.,0.,0.,0.,0.,0.,0.,0.,0.,0.,0.
 ,0.,0.,0.,0.,0.,0.,0.,0.,0.,0.,0.,0.,0.,0.,0.,0.,0.,0.,0.,0.,0.,0.,0.,
 0.,0.,0.,0.,0.,0.,0.,0.,0.,0.,0.,0.,0.,0.,0.,0.,0.,0.,0.,0.,0.,0.,0.,0
 .,0.,0.,0.,0.,0.,0.,0.,0.,0.,0.,0.,0.,0.,0.,0.,0.,0.,0.,0.,0.,0.,0.,0.
 ,0.,-0.03177961,0.07425226,-0.01223887,0.00336470,0.00778711,-0.003513
 83,0.01889628,0.,0.,0.,0.,0.,0.,0.,0.,0.,0.,0.,0.,0.,0.,0.,0.,0.,0.,0.
 ,0.,0.,0.,0.,0.,0.,0.,0.,0.,0.,0.,0.,0.,0.,0.,0.,0.,0.,0.,0.,0.,0.,0.,
 0.,0.,0.,0.,0.,0.,0.,0.,0.,0.,0.,0.,0.,0.,0.,0.,0.,0.,0.,0.,0.,0.,0.,0
 .,0.,0.,0.,0.,0.,0.,0.,0.,0.,0.,0.,0.,0.,0.,0.,0.,0.,0.,0.,0.,0.,0.,0.
 ,0.,0.,0.,0.,0.,0.,0.,0.,0.,0.,0.,0.,0.,0.,0.,0.,0.,0.,0.,0.,0.,0.,0.,
 0.,0.,0.,0.,0.,0.,0.,0.,0.,0.,0.,0.,0.,0.,0.,0.,0.,0.,0.,0.,0.,0.,0.,0
 .,0.,0.,0.,0.,0.,0.,0.,0.,0.07612910,-0.23788719,0.00400460,0.00264471
 ,0.00571755,-0.00857823,-0.07855955,0.21280523,0.,0.,0.,0.,0.,0.,0.,0.
 ,0.,0.,0.,0.,0.,0.,0.,0.,0.,0.,0.,0.,0.,0.,0.,0.,0.,0.,0.,0.,0.,0.,0.,
 0.,0.,0.,0.,0.,0.,0.,0.,0.,0.,0.,0.,0.,0.,0.,0.,0.,0.,0.,0.,0.,0.,0.,0
 .,0.,0.,0.,0.,0.,0.,0.,0.,0.,0.,0.,0.,0.,0.,0.,0.,0.,0.,0.,0.,0.,0.,0.
 ,0.,0.,0.,0.,0.,0.,0.,0.,0.,0.,0.,0.,0.,0.,0.,0.,0.,0.,0.,0.,0.,0.,0.,
 0.,0.,0.,0.,0.,0.,0.,0.,0.,0.,0.,0.,0.,0.,0.,0.,0.,0.,0.,0.,0.,0.,0.,0
 .,0.,0.,0.,0.,0.,0.,0.,0.,0.,0.,0.,0.,0.,0.,0.,0.,0.,0.,0.,0.01653498,
 -0.08025968,0.03690449,-0.00640844,-0.00246596,0.00121566,-0.01368845,
 0.05001714,-0.01074601||0.,0.,0.,0.,0.,0.,0.,0.,0.,0.,0.,0.,0.,0.,0.,0
 .,0.,0.,0.,0.,0.,0.,0.,0.,0.,0.,0.,0.,0.,0.,0.,0.,0.,0.,0.,0.,0.,0.,0.
 ,0.,0.,0.,0.,0.,0.,0.,0.,0.,0.,0.,0.,0.,0.,0.,0.,0.,0.,0.,0.,0.,0.,0.,
 0.,0.,0.,0.,0.,0.,0.,0.,0.,0.,0.,0.,0.,0.,0.,0.,0.,0.,0.,0.,0.,0.,0.,0
 .,0.,0.,0.,0.,0.,0.,0.,0.,0.,0.,0.,0.,0.,0.,0.,0.,0.,0.,0.,0.,0.,0.,0.
 ,0.,0.,0.,0.,0.,0.,0.,0.,0.,0.,0.,0.,0.,0.,0.,0.,0.,0.,0.,0.,0.,0.,0.,
 0.,0.,0.,0.,0.,0.,0.,0.,0.,0.,0.,0.,0.04114236,0.07139191,-0.04071880,
 -0.04375797,-0.01451962,-0.02817387,0.01434241,-0.05413737,-0.02358547
 |||@


 The juvenile sea squirt wanders through the sea searching
 for a suitable rock or hunk of coral to cling to and make
 its home for life.  For this task it has a rudimentary
 nervous system.  When it finds its spot and takes root, it
 doesn't need its brain any more so it eats it.
 It's rather like getting tenure.

                               -- source unknown
 Job cpu time:       0 days  0 hours  4 minutes 49.0 seconds.
 File lengths (MBytes):  RWF=   1410 Int=      0 D2E=      0 Chk=     12 Scr=      1
 Normal termination of Gaussian 09 at Sun Jan 05 16:29:49 2025.
