 Entering Link 1 = C:\G09W\l1.exe PID=      9268.
  
 Copyright (c) 1988,1990,1992,1993,1995,1998,2003,2009,2013,
            Gaussian, Inc.  All Rights Reserved.
  
 This is part of the Gaussian(R) 09 program.  It is based on
 the Gaussian(R) 03 system (copyright 2003, Gaussian, Inc.),
 the Gaussian(R) 98 system (copyright 1998, Gaussian, Inc.),
 the Gaussian(R) 94 system (copyright 1995, Gaussian, Inc.),
 the Gaussian 92(TM) system (copyright 1992, Gaussian, Inc.),
 the Gaussian 90(TM) system (copyright 1990, Gaussian, Inc.),
 the Gaussian 88(TM) system (copyright 1988, Gaussian, Inc.),
 the Gaussian 86(TM) system (copyright 1986, Carnegie Mellon
 University), and the Gaussian 82(TM) system (copyright 1983,
 Carnegie Mellon University). Gaussian is a federally registered
 trademark of Gaussian, Inc.
  
 This software contains proprietary and confidential information,
 including trade secrets, belonging to Gaussian, Inc.
  
 This software is provided under written license and may be
 used, copied, transmitted, or stored only in accord with that
 written license.
  
 The following legend is applicable only to US Government
 contracts under FAR:
  
                    RESTRICTED RIGHTS LEGEND
  
 Use, reproduction and disclosure by the US Government is
 subject to restrictions as set forth in subparagraphs (a)
 and (c) of the Commercial Computer Software - Restricted
 Rights clause in FAR 52.227-19.
  
 Gaussian, Inc.
 340 Quinnipiac St., Bldg. 40, Wallingford CT 06492
  
  
 ---------------------------------------------------------------
 Warning -- This program may not be used in any manner that
 competes with the business of Gaussian, Inc. or will provide
 assistance to any competitor of Gaussian, Inc.  The licensee
 of this program is prohibited from giving any competitor of
 Gaussian, Inc. access to this program.  By using this program,
 the user acknowledges that Gaussian, Inc. is engaged in the
 business of creating and licensing software in the field of
 computational chemistry and represents and warrants to the
 licensee that it is not a competitor of Gaussian, Inc. and that
 it will not use this program in any manner prohibited above.
 ---------------------------------------------------------------
  

 Cite this work as:
 Gaussian 09, Revision D.01,
 M. J. Frisch, G. W. Trucks, H. B. Schlegel, G. E. Scuseria, 
 M. A. Robb, J. R. Cheeseman, G. Scalmani, V. Barone, B. Mennucci, 
 G. A. Petersson, H. Nakatsuji, M. Caricato, X. Li, H. P. Hratchian, 
 A. F. Izmaylov, J. Bloino, G. Zheng, J. L. Sonnenberg, M. Hada, 
 M. Ehara, K. Toyota, R. Fukuda, J. Hasegawa, M. Ishida, T. Nakajima, 
 Y. Honda, O. Kitao, H. Nakai, T. Vreven, J. A. Montgomery, Jr., 
 J. E. Peralta, F. Ogliaro, M. Bearpark, J. J. Heyd, E. Brothers, 
 K. N. Kudin, V. N. Staroverov, T. Keith, R. Kobayashi, J. Normand, 
 K. Raghavachari, A. Rendell, J. C. Burant, S. S. Iyengar, J. Tomasi, 
 M. Cossi, N. Rega, J. M. Millam, M. Klene, J. E. Knox, J. B. Cross, 
 V. Bakken, C. Adamo, J. Jaramillo, R. Gomperts, R. E. Stratmann, 
 O. Yazyev, A. J. Austin, R. Cammi, C. Pomelli, J. W. Ochterski, 
 R. L. Martin, K. Morokuma, V. G. Zakrzewski, G. A. Voth, 
 P. Salvador, J. J. Dannenberg, S. Dapprich, A. D. Daniels, 
 O. Farkas, J. B. Foresman, J. V. Ortiz, J. Cioslowski, 
 and D. J. Fox, Gaussian, Inc., Wallingford CT, 2013.
 
 ******************************************
 Gaussian 09:  IA32W-G09RevD.01 24-Apr-2013
                14-Jan-2025 
 ******************************************
 %nprocshared=2
 Will use up to    2 processors via shared memory.
 %mem=1GB
 %chk=C:\Users\Yash Shaw\Downloads\MoS2+NO2.chk
 -----------------------------------
 # freq pm6 scf=qc geom=connectivity
 -----------------------------------
 1/10=4,30=1,38=1,57=2/1,3;
 2/12=2,17=6,18=5,40=1/2;
 3/5=2,16=1,25=1,41=3900000,71=2,140=1/1,2,3;
 4/35=1/1;
 5/5=2,8=3,35=1,38=5,98=1/8;
 8/6=4,10=90,11=11/1;
 11/6=1,8=1,9=11,15=111,16=1/1,2,10;
 10/6=1/2;
 6/7=2,8=2,9=2,10=2,18=1,28=1/1;
 7/8=1,10=1,25=1/1,2,3,16;
 1/10=4,30=1/3;
 99//99;
 -----------------
 MoS2+NO2_semi_emp
 -----------------
 Symbolic Z-matrix:
 Charge =  0 Multiplicity = 2
 Mo                   -1    2.00263  -0.24087   11.96981 
 S                    -1    0.40747   0.6801    13.5347 
 S                    -1    0.40747   0.6801    10.40493 
 Mo                   -1    5.19294  -0.24087   11.96981 
 Mo                   -1    8.38326  -0.24087   11.96981 
 Mo                   -1    11.57357  -0.24087   11.96981 
 S                    -1    3.59778   0.6801    13.5347 
 S                    -1    6.7881    0.6801    13.5347 
 S                    -1    9.97841   0.6801    13.5347 
 S                    -1    3.59778   0.6801    10.40493 
 S                    -1    6.7881    0.6801    10.40493 
 S                    -1    9.97841   0.6801    10.40493 
 Mo                   -1    0.40747   2.52203   11.96981 
 Mo                   -1   -1.18769   5.28492   11.96981 
 Mo                   -1   -2.78285   8.04782   11.96981 
 S                    -1   -1.18769   3.44299   13.5347 
 S                    -1   -2.78285   6.20589   13.5347 
 S                    -1   -4.37801   8.96878   13.5347 
 S                    -1   -1.18769   3.44299   10.40493 
 S                    -1   -2.78285   6.20589   10.40493 
 S                    -1   -4.37801   8.96878   10.40493 
 Mo                   -1    3.59778   2.52203   11.96981 
 Mo                   -1    2.00263   5.28492   11.96981 
 Mo                   -1    0.40747   8.04782   11.96981 
 Mo                   -1    6.7881    2.52203   11.96981 
 Mo                   -1    5.19294   5.28492   11.96981 
 Mo                   -1    3.59778   8.04782   11.96981 
 Mo                   -1    9.97841   2.52203   11.96981 
 Mo                   -1    8.38326   5.28492   11.96981 
 Mo                   -1    6.7881    8.04782   11.96981 
 S                    -1    2.00263   3.44299   13.5347 
 S                    -1    0.40747   6.20589   13.5347 
 S                    -1   -1.18769   8.96878   13.5347 
 S                    -1    5.19294   3.44299   13.5347 
 S                    -1    3.59778   6.20589   13.5347 
 S                    -1    2.00263   8.96878   13.5347 
 S                    -1    8.38326   3.44299   13.5347 
 S                    -1    6.7881    6.20589   13.5347 
 S                    -1    5.19294   8.96878   13.5347 
 S                    -1    2.00263   3.44299   10.40493 
 S                    -1    0.40747   6.20589   10.40493 
 S                    -1   -1.18769   8.96878   10.40493 
 S                    -1    5.19294   3.44299   10.40493 
 S                    -1    3.59778   6.20589   10.40493 
 S                    -1    2.00263   8.96878   10.40493 
 S                    -1    8.38326   3.44299   10.40493 
 S                    -1    6.7881    6.20589   10.40493 
 S                    -1    5.19294   8.96878   10.40493 
 N                    0     2.78256   4.82426   15.3098 
 O                    0     2.10256   3.64646   15.3098 
 O                    0     3.97936   4.82426   15.3098 
 

 GradGradGradGradGradGradGradGradGradGradGradGradGradGradGradGradGradGrad
 Berny optimization.
 Initialization pass.
 Trust Radius=3.00D-01 FncErr=1.00D-07 GrdErr=1.00D-07
 Number of steps in this run=      2 maximum allowed number of steps=      2.
 GradGradGradGradGradGradGradGradGradGradGradGradGradGradGradGradGradGrad

 Stoichiometry    Mo16NO2S32(2)
 Framework group  C1[X(Mo16NO2S32)]
 Deg. of freedom   147
 Full point group                 C1      NOp   1
 Largest Abelian subgroup         C1      NOp   1
 Largest concise Abelian subgroup C1      NOp   1
                         Standard orientation:                         
 ---------------------------------------------------------------------
 Center     Atomic      Atomic             Coordinates (Angstroms)
 Number     Number       Type             X           Y           Z
 ---------------------------------------------------------------------
      1         42           0        0.806565   -4.780597   -0.078013
      2         16           0       -1.039097   -4.784592    1.482463
      3         16           0       -1.031621   -4.773925   -1.647279
      4         42           0        3.570597   -3.187457   -0.065981
      5         42           0        6.334629   -1.594317   -0.053948
      6         42           0        9.098662   -0.001177   -0.041916
      7         16           0        1.724935   -3.191452    1.494495
      8         16           0        4.488968   -1.598312    1.506527
      9         16           0        7.253000   -0.005172    1.518560
     10         16           0        1.732411   -3.180785   -1.635247
     11         16           0        4.496444   -1.587645   -1.623214
     12         16           0        7.260476    0.005495   -1.611182
     13         42           0       -1.955174   -3.183441   -0.079166
     14         42           0       -4.716914   -1.586285   -0.080319
     15         42           0       -7.478653    0.010872   -0.081473
     16         16           0       -3.800836   -3.187436    1.481309
     17         16           0       -6.562576   -1.590280    1.480156
     18         16           0       -9.324315    0.006877    1.479003
     19         16           0       -3.793360   -3.176769   -1.648432
     20         16           0       -6.555100   -1.579612   -1.649585
     21         16           0       -9.316839    0.017544   -1.650739
     22         42           0        0.808858   -1.590301   -0.067134
     23         42           0       -1.952882    0.006855   -0.068287
     24         42           0       -4.714621    1.604012   -0.069440
     25         42           0        3.572890    0.002839   -0.055102
     26         42           0        0.811151    1.599995   -0.056255
     27         42           0       -1.950589    3.197152   -0.057408
     28         42           0        6.336922    1.595979   -0.043069
     29         42           0        3.575183    3.193136   -0.044222
     30         42           0        0.813443    4.790292   -0.045376
     31         16           0       -1.036804   -1.594296    1.493342
     32         16           0       -3.798544    0.002860    1.492189
     33         16           0       -6.560283    1.600017    1.491035
     34         16           0        1.727228   -0.001156    1.505374
     35         16           0       -1.034511    1.596001    1.504221
     36         16           0       -3.796251    3.193157    1.503068
     37         16           0        4.491260    1.591984    1.517406
     38         16           0        1.729521    3.189141    1.516253
     39         16           0       -1.032218    4.786297    1.515100
     40         16           0       -1.029328   -1.583629   -1.636400
     41         16           0       -3.791068    0.013528   -1.637553
     42         16           0       -6.552807    1.610684   -1.638706
     43         16           0        1.734704    0.009512   -1.624368
     44         16           0       -1.027035    1.606668   -1.625521
     45         16           0       -3.788775    3.203824   -1.626674
     46         16           0        4.498736    1.602652   -1.612335
     47         16           0        1.736997    3.199808   -1.613488
     48         16           0       -1.024743    4.796964   -1.614642
     49          7           0       -1.055096   -0.014166    3.273799
     50          8           0       -1.056073   -1.374158    3.269161
     51          8           0       -0.018210    0.583477    3.278312
 ---------------------------------------------------------------------
 Rotational constants (GHZ):      0.0258930      0.0092617      0.0074248
 Standard basis: VSTO-6G (5D, 7F)
 There are   492 symmetry adapted cartesian basis functions of A   symmetry.
 There are   444 symmetry adapted basis functions of A   symmetry.
   444 basis functions,  2952 primitive gaussians,   492 cartesian basis functions
   153 alpha electrons      152 beta electrons
       nuclear repulsion energy      4481.4862474794 Hartrees.
 Integral buffers will be    262144 words long.
 Regular integral format.
 Two-electron integral symmetry is turned off.
 Do NDO integrals.
 One-electron integrals computed using PRISM.
 NBasis=   444 RedAO= F EigKep=  0.00D+00  NBF=   444
 NBsUse=   444 1.00D-04 EigRej=  0.00D+00 NBFU=   444
 Nonelectrostatic core Hamiltonian diagonalized for initial guess.
 Initial guess <Sx>= 0.0000 <Sy>= 0.0000 <Sz>= 0.5000 <S**2>= 0.7500 S= 0.5000
 Keep J ints in memory in canonical form, NReq=6469518.
 Gradient too large for Newton-Raphson -- use scaled steepest descent instead.
     Accept linear search using points  1 and  2.
 Gradient too large for Newton-Raphson -- use scaled steepest descent instead.
     Minimum is close to point  2 DX=  8.67D-03 DF= -3.51D-03 DXR=  2.81D-02 DFR=  7.90D-04 which will be used.
 Gradient too large for Newton-Raphson -- use scaled steepest descent instead.
     Minimum is close to point  5 DX=  4.17D-02 DF= -7.17D-03 DXR=  6.50D-02 DFR=  4.13D-03 which will be used.
 Gradient too large for Newton-Raphson -- use scaled steepest descent instead.
 Gradient too large for Newton-Raphson -- use scaled steepest descent instead.
     Accept linear search using points  1 and  2.
 Gradient too large for Newton-Raphson -- use scaled steepest descent instead.
     Accept linear search using points  3 and  4.
 Gradient too large for Newton-Raphson -- use scaled steepest descent instead.
     Accept linear search using points  1 and  2.
 Gradient too large for Newton-Raphson -- use scaled steepest descent instead.
     Accept linear search using points  3 and  4.
     Minimum is close to point  4 DX= -4.77D-02 DF= -9.22D-05 DXR=  3.07D-02 DFR=  3.85D-04 which will be used.
 Gradient too large for Newton-Raphson -- use scaled steepest descent instead.
     Minimum is close to point  3 DX=  2.92D-02 DF= -1.24D-03 DXR=  8.86D-02 DFR=  7.91D-03 which will be used.
 Gradient too large for Newton-Raphson -- use scaled steepest descent instead.
     Accept linear search using points  4 and  5.
     Minimum is close to point  5 DX= -2.97D-01 DF= -1.66D-03 DXR=  7.23D-02 DFR=  6.89D-03 which will be used.
 Gradient too large for Newton-Raphson -- use scaled steepest descent instead.
     Minimum is close to point  3 DX=  2.63D-02 DF= -7.54D-04 DXR=  8.07D-02 DFR=  6.55D-03 which will be used.
 Gradient too large for Newton-Raphson -- use scaled steepest descent instead.
     Accept linear search using points  3 and  4.
     Minimum is close to point  4 DX= -1.92D-01 DF= -4.38D-04 DXR=  5.33D-02 DFR=  4.09D-03 which will be used.
 Gradient too large for Newton-Raphson -- use scaled steepest descent instead.
     Minimum is close to point  3 DX=  2.01D-02 DF= -8.05D-05 DXR=  3.87D-02 DFR=  1.50D-03 which will be used.
 Gradient too large for Newton-Raphson -- use scaled steepest descent instead.
 Gradient too large for Newton-Raphson -- use scaled steepest descent instead.
     Accept linear search using points  1 and  2.
 Gradient too large for Newton-Raphson -- use scaled steepest descent instead.
     Accept linear search using points  3 and  4.
     Minimum is close to point  4 DX= -1.32D-01 DF= -1.44D-04 DXR=  7.93D-02 DFR=  4.75D-03 which will be used.
 Gradient too large for Newton-Raphson -- use scaled steepest descent instead.
 Gradient too large for Newton-Raphson -- use scaled steepest descent instead.
 Gradient too large for Newton-Raphson -- use scaled steepest descent instead.
 Gradient too large for Newton-Raphson -- use scaled steepest descent instead.
 Gradient too large for Newton-Raphson -- use scaled steepest descent instead.
 Gradient too large for Newton-Raphson -- use scaled steepest descent instead.
     Minimum is close to point  3 DX=  1.51D-01 DF= -1.44D-04 DXR=  8.63D-02 DFR=  7.55D-03 which will be used.
 Gradient too large for Newton-Raphson -- use scaled steepest descent instead.
     Minimum is close to point  3 DX= -2.16D-02 DF= -5.05D-05 DXR=  5.70D-02 DFR=  3.25D-03 which will be used.
 Gradient too large for Newton-Raphson -- use scaled steepest descent instead.
 Gradient too large for Newton-Raphson -- use scaled steepest descent instead.
     Accept linear search using points  1 and  2.
 Gradient too large for Newton-Raphson -- use scaled steepest descent instead.
 Gradient too large for Newton-Raphson -- use scaled steepest descent instead.
     Minimum is close to point  3 DX=  2.87D-02 DF= -1.71D-04 DXR=  8.74D-02 DFR=  7.71D-03 which will be used.
 Gradient too large for Newton-Raphson -- use scaled steepest descent instead.
 Gradient too large for Newton-Raphson -- use scaled steepest descent instead.
 Gradient too large for Newton-Raphson -- use scaled steepest descent instead.
 Gradient too large for Newton-Raphson -- use scaled steepest descent instead.
     Accept linear search using points  1 and  2.
 Gradient too large for Newton-Raphson -- use scaled steepest descent instead.
 Gradient too large for Newton-Raphson -- use scaled steepest descent instead.
     Minimum is close to point  3 DX= -8.53D-03 DF= -3.73D-06 DXR=  2.18D-02 DFR=  4.75D-04 which will be used.
 Gradient too large for Newton-Raphson -- use scaled steepest descent instead.
     Accept linear search using points  2 and  3.
 Gradient too large for Newton-Raphson -- use scaled steepest descent instead.
     Accept linear search using points  1 and  2.
 Gradient too large for Newton-Raphson -- use scaled steepest descent instead.
 Gradient too large for Newton-Raphson -- use scaled steepest descent instead.
     Minimum is close to point  3 DX= -3.23D-02 DF= -7.14D-05 DXR=  8.80D-02 DFR=  7.80D-03 which will be used.
 Gradient too large for Newton-Raphson -- use scaled steepest descent instead.
 Gradient too large for Newton-Raphson -- use scaled steepest descent instead.
     Accept linear search using points  1 and  2.
 Gradient too large for Newton-Raphson -- use scaled steepest descent instead.
     Accept linear search using points  4 and  5.
 Gradient too large for Newton-Raphson -- use scaled steepest descent instead.
     Minimum is close to point  3 DX=  3.26D-02 DF= -1.61D-04 DXR=  9.80D-02 DFR=  9.70D-03 which will be used.
 Gradient too large for Newton-Raphson -- use scaled steepest descent instead.
     Minimum is close to point  5 DX= -2.36D-01 DF= -2.67D-05 DXR=  2.55D-02 DFR=  8.06D-04 which will be used.
 Gradient too large for Newton-Raphson -- use scaled steepest descent instead.
 Gradient too large for Newton-Raphson -- use scaled steepest descent instead.
     Accept linear search using points  2 and  3.
 Gradient too large for Newton-Raphson -- use scaled steepest descent instead.
     Minimum is close to point  3 DX= -3.21D-02 DF= -4.29D-05 DXR=  8.74D-02 DFR=  7.69D-03 which will be used.
 Gradient too large for Newton-Raphson -- use scaled steepest descent instead.
     Accept linear search using points  1 and  2.
 Gradient too large for Newton-Raphson -- use scaled steepest descent instead.
     Accept linear search using points  1 and  2.
 Gradient too large for Newton-Raphson -- use scaled steepest descent instead.
 Gradient too large for Newton-Raphson -- use scaled steepest descent instead.
 Gradient too large for Newton-Raphson -- use scaled steepest descent instead.
 Gradient too large for Newton-Raphson -- use scaled steepest descent instead.
 Gradient too large for Newton-Raphson -- use scaled steepest descent instead.
 Gradient too large for Newton-Raphson -- use scaled steepest descent instead.
 Gradient too large for Newton-Raphson -- use scaled steepest descent instead.
 Gradient too large for Newton-Raphson -- use scaled steepest descent instead.
 Gradient too large for Newton-Raphson -- use scaled steepest descent instead.
 Gradient too large for Newton-Raphson -- use scaled steepest descent instead.
     Minimum is close to point  3 DX= -3.42D-02 DF= -1.49D-05 DXR=  9.34D-02 DFR=  8.80D-03 which will be used.
 Gradient too large for Newton-Raphson -- use scaled steepest descent instead.
     Minimum is close to point  2 DX=  5.86D-02 DF= -3.37D-06 DXR=  6.12D-02 DFR=  3.75D-03 which will be used.
 Gradient too large for Newton-Raphson -- use scaled steepest descent instead.
     Accept linear search using points  1 and  2.
 Gradient too large for Newton-Raphson -- use scaled steepest descent instead.
 Gradient too large for Newton-Raphson -- use scaled steepest descent instead.
 Gradient too large for Newton-Raphson -- use scaled steepest descent instead.
 Gradient too large for Newton-Raphson -- use scaled steepest descent instead.
 Gradient too large for Newton-Raphson -- use scaled steepest descent instead.
 Gradient too large for Newton-Raphson -- use scaled steepest descent instead.
 Gradient too large for Newton-Raphson -- use scaled steepest descent instead.
 Gradient too large for Newton-Raphson -- use scaled steepest descent instead.
 Gradient too large for Newton-Raphson -- use scaled steepest descent instead.
 Gradient too large for Newton-Raphson -- use scaled steepest descent instead.
 Gradient too large for Newton-Raphson -- use scaled steepest descent instead.
 Gradient too large for Newton-Raphson -- use scaled steepest descent instead.
 Gradient too large for Newton-Raphson -- use scaled steepest descent instead.
 Gradient too large for Newton-Raphson -- use scaled steepest descent instead.
     Minimum is close to point  3 DX= -2.94D-02 DF= -4.17D-06 DXR=  7.94D-02 DFR=  6.35D-03 which will be used.
 Gradient too large for Newton-Raphson -- use scaled steepest descent instead.
 Gradient too large for Newton-Raphson -- use scaled steepest descent instead.
     Accept linear search using points  1 and  2.
 LinEq1:  Iter=  0 NonCon=     1 RMS=1.67D-04 Max=1.08D-02 NDo=     1
 AX will form     1 AO Fock derivatives at one time.
 LinEq1:  Iter=  1 NonCon=     1 RMS=1.02D-04 Max=2.84D-03 NDo=     1
 LinEq1:  Iter=  2 NonCon=     1 RMS=6.17D-05 Max=3.39D-03 NDo=     1
 LinEq1:  Iter=  3 NonCon=     1 RMS=2.99D-05 Max=2.31D-03 NDo=     1
 LinEq1:  Iter=  4 NonCon=     1 RMS=2.57D-05 Max=1.51D-03 NDo=     1
 LinEq1:  Iter=  5 NonCon=     1 RMS=2.28D-05 Max=8.52D-04 NDo=     1
 LinEq1:  Iter=  6 NonCon=     1 RMS=2.18D-05 Max=8.65D-04 NDo=     1
 LinEq1:  Iter=  7 NonCon=     1 RMS=1.97D-05 Max=7.63D-04 NDo=     1
 LinEq1:  Iter=  8 NonCon=     1 RMS=1.52D-05 Max=5.55D-04 NDo=     1
 LinEq1:  Iter=  9 NonCon=     1 RMS=1.47D-05 Max=5.39D-04 NDo=     1
 LinEq1:  Iter= 10 NonCon=     1 RMS=1.36D-05 Max=5.86D-04 NDo=     1
 LinEq1:  Iter= 11 NonCon=     1 RMS=1.24D-05 Max=4.84D-04 NDo=     1
 LinEq1:  Iter= 12 NonCon=     1 RMS=1.03D-05 Max=4.18D-04 NDo=     1
 LinEq1:  Iter= 13 NonCon=     1 RMS=9.46D-06 Max=3.11D-04 NDo=     1
 LinEq1:  Iter= 14 NonCon=     1 RMS=8.59D-06 Max=3.58D-04 NDo=     1
 LinEq1:  Iter= 15 NonCon=     1 RMS=8.45D-06 Max=3.50D-04 NDo=     1
 LinEq1:  Iter= 16 NonCon=     1 RMS=5.71D-06 Max=1.87D-04 NDo=     1
 LinEq1:  Iter= 17 NonCon=     1 RMS=4.71D-06 Max=1.10D-04 NDo=     1
 LinEq1:  Iter= 18 NonCon=     1 RMS=4.41D-06 Max=1.32D-04 NDo=     1
 LinEq1:  Iter= 19 NonCon=     1 RMS=3.63D-06 Max=1.13D-04 NDo=     1
 LinEq1:  Iter= 20 NonCon=     1 RMS=3.22D-06 Max=9.78D-05 NDo=     1
 LinEq1:  Iter= 21 NonCon=     1 RMS=2.08D-06 Max=1.04D-04 NDo=     1
 LinEq1:  Iter= 22 NonCon=     1 RMS=2.01D-06 Max=6.94D-05 NDo=     1
 LinEq1:  Iter= 23 NonCon=     1 RMS=1.49D-06 Max=6.19D-05 NDo=     1
 LinEq1:  Iter= 24 NonCon=     1 RMS=1.43D-06 Max=5.77D-05 NDo=     1
 LinEq1:  Iter= 25 NonCon=     1 RMS=8.65D-07 Max=3.23D-05 NDo=     1
 LinEq1:  Iter= 26 NonCon=     1 RMS=5.36D-07 Max=1.82D-05 NDo=     1
 LinEq1:  Iter= 27 NonCon=     1 RMS=3.88D-07 Max=1.68D-05 NDo=     1
 LinEq1:  Iter= 28 NonCon=     1 RMS=2.04D-07 Max=8.37D-06 NDo=     1
 LinEq1:  Iter= 29 NonCon=     1 RMS=1.44D-07 Max=4.95D-06 NDo=     1
 LinEq1:  Iter= 30 NonCon=     1 RMS=1.06D-07 Max=3.85D-06 NDo=     1
 LinEq1:  Iter= 31 NonCon=     1 RMS=5.29D-08 Max=1.78D-06 NDo=     1
 LinEq1:  Iter= 32 NonCon=     1 RMS=3.91D-08 Max=9.21D-07 NDo=     1
 LinEq1:  Iter= 33 NonCon=     1 RMS=2.55D-08 Max=6.44D-07 NDo=     1
 LinEq1:  Iter= 34 NonCon=     1 RMS=1.59D-08 Max=4.48D-07 NDo=     1
 LinEq1:  Iter= 35 NonCon=     1 RMS=1.01D-08 Max=3.49D-07 NDo=     1
 LinEq1:  Iter= 36 NonCon=     0 RMS=6.53D-09 Max=2.66D-07 NDo=     1
 Linear equations converged to 2.982D-08 2.982D-07 after    36 iterations.
     Minimum is close to point  3 DX=  9.76D-04 DF= -2.16D-07 DXR=  9.66D-03 DFR=  9.34D-05 which will be used.
 Gradient too large for Newton-Raphson -- use scaled steepest descent instead.
     Minimum is close to point  4 DX=  9.66D-02 DF= -1.61D-06 DXR=  3.72D-02 DFR=  1.39D-03 which will be used.
 Gradient too large for Newton-Raphson -- use scaled steepest descent instead.
     Minimum is close to point  3 DX= -3.21D-02 DF= -5.82D-06 DXR=  8.72D-02 DFR=  7.65D-03 which will be used.
 Gradient too large for Newton-Raphson -- use scaled steepest descent instead.
     Accept linear search using points  1 and  2.
 Gradient too large for Newton-Raphson -- use scaled steepest descent instead.
 Gradient too large for Newton-Raphson -- use scaled steepest descent instead.
     Minimum is close to point  2 DX=  3.93D-02 DF= -1.58D-06 DXR=  7.28D-02 DFR=  5.33D-03 which will be used.
 Gradient too large for Newton-Raphson -- use scaled steepest descent instead.
 Gradient too large for Newton-Raphson -- use scaled steepest descent instead.
     Accept linear search using points  1 and  2.
 LinEq1:  Iter=  0 NonCon=     1 RMS=1.31D-04 Max=1.13D-02 NDo=     1
 LinEq1:  Iter=  1 NonCon=     1 RMS=1.69D-04 Max=5.64D-03 NDo=     1
 LinEq1:  Iter=  2 NonCon=     1 RMS=2.18D-05 Max=1.94D-03 NDo=     1
 LinEq1:  Iter=  3 NonCon=     1 RMS=7.28D-06 Max=2.73D-04 NDo=     1
 LinEq1:  Iter=  4 NonCon=     1 RMS=7.91D-06 Max=4.40D-04 NDo=     1
 LinEq1:  Iter=  5 NonCon=     1 RMS=4.31D-06 Max=2.42D-04 NDo=     1
 LinEq1:  Iter=  6 NonCon=     1 RMS=4.78D-06 Max=2.28D-04 NDo=     1
 LinEq1:  Iter=  7 NonCon=     1 RMS=4.42D-06 Max=2.25D-04 NDo=     1
 LinEq1:  Iter=  8 NonCon=     1 RMS=3.34D-06 Max=1.55D-04 NDo=     1
 LinEq1:  Iter=  9 NonCon=     1 RMS=2.72D-06 Max=1.19D-04 NDo=     1
 LinEq1:  Iter= 10 NonCon=     1 RMS=2.69D-06 Max=9.14D-05 NDo=     1
 LinEq1:  Iter= 11 NonCon=     1 RMS=2.29D-06 Max=7.18D-05 NDo=     1
 LinEq1:  Iter= 12 NonCon=     1 RMS=2.19D-06 Max=7.21D-05 NDo=     1
 LinEq1:  Iter= 13 NonCon=     1 RMS=1.89D-06 Max=5.84D-05 NDo=     1
 LinEq1:  Iter= 14 NonCon=     1 RMS=1.76D-06 Max=4.81D-05 NDo=     1
 LinEq1:  Iter= 15 NonCon=     1 RMS=1.49D-06 Max=3.95D-05 NDo=     1
 LinEq1:  Iter= 16 NonCon=     1 RMS=1.25D-06 Max=4.71D-05 NDo=     1
 LinEq1:  Iter= 17 NonCon=     1 RMS=1.12D-06 Max=2.82D-05 NDo=     1
 LinEq1:  Iter= 18 NonCon=     1 RMS=9.62D-07 Max=3.56D-05 NDo=     1
 LinEq1:  Iter= 19 NonCon=     1 RMS=7.75D-07 Max=2.83D-05 NDo=     1
 LinEq1:  Iter= 20 NonCon=     1 RMS=5.27D-07 Max=1.76D-05 NDo=     1
 LinEq1:  Iter= 21 NonCon=     1 RMS=3.65D-07 Max=1.05D-05 NDo=     1
 LinEq1:  Iter= 22 NonCon=     1 RMS=3.44D-07 Max=1.07D-05 NDo=     1
 LinEq1:  Iter= 23 NonCon=     1 RMS=1.96D-07 Max=6.47D-06 NDo=     1
 LinEq1:  Iter= 24 NonCon=     1 RMS=1.47D-07 Max=3.92D-06 NDo=     1
 LinEq1:  Iter= 25 NonCon=     1 RMS=1.01D-07 Max=4.55D-06 NDo=     1
 LinEq1:  Iter= 26 NonCon=     1 RMS=5.56D-08 Max=1.84D-06 NDo=     1
 LinEq1:  Iter= 27 NonCon=     1 RMS=3.84D-08 Max=1.20D-06 NDo=     1
 LinEq1:  Iter= 28 NonCon=     1 RMS=2.65D-08 Max=1.08D-06 NDo=     1
 LinEq1:  Iter= 29 NonCon=     1 RMS=1.53D-08 Max=6.28D-07 NDo=     1
 LinEq1:  Iter= 30 NonCon=     1 RMS=1.23D-08 Max=4.28D-07 NDo=     1
 LinEq1:  Iter= 31 NonCon=     0 RMS=6.43D-09 Max=2.88D-07 NDo=     1
 Linear equations converged to 2.982D-08 2.982D-07 after    31 iterations.
 Incorrect curvature in search direction -- initial direction reversed.
 Gradient too large for Newton-Raphson -- use scaled steepest descent instead.
 Gradient too large for Newton-Raphson -- use scaled steepest descent instead.
     Minimum is close to point  3 DX=  3.15D-02 DF= -4.20D-06 DXR=  9.49D-02 DFR=  9.10D-03 which will be used.
 LinEq1:  Iter=  0 NonCon=     1 RMS=1.29D-04 Max=1.14D-02 NDo=     1
 LinEq1:  Iter=  1 NonCon=     1 RMS=1.05D-04 Max=2.93D-03 NDo=     1
 LinEq1:  Iter=  2 NonCon=     1 RMS=3.27D-05 Max=1.54D-03 NDo=     1
 LinEq1:  Iter=  3 NonCon=     1 RMS=3.27D-05 Max=2.22D-03 NDo=     1
 LinEq1:  Iter=  4 NonCon=     1 RMS=1.87D-05 Max=7.29D-04 NDo=     1
 LinEq1:  Iter=  5 NonCon=     1 RMS=9.74D-06 Max=5.14D-04 NDo=     1
 LinEq1:  Iter=  6 NonCon=     1 RMS=8.74D-06 Max=5.20D-04 NDo=     1
 LinEq1:  Iter=  7 NonCon=     1 RMS=8.54D-06 Max=3.59D-04 NDo=     1
 LinEq1:  Iter=  8 NonCon=     1 RMS=7.63D-06 Max=3.03D-04 NDo=     1
 LinEq1:  Iter=  9 NonCon=     1 RMS=7.03D-06 Max=2.59D-04 NDo=     1
 LinEq1:  Iter= 10 NonCon=     1 RMS=5.56D-06 Max=1.72D-04 NDo=     1
 LinEq1:  Iter= 11 NonCon=     1 RMS=5.42D-06 Max=1.71D-04 NDo=     1
 LinEq1:  Iter= 12 NonCon=     1 RMS=3.90D-06 Max=1.19D-04 NDo=     1
 LinEq1:  Iter= 13 NonCon=     1 RMS=3.52D-06 Max=8.89D-05 NDo=     1
 LinEq1:  Iter= 14 NonCon=     1 RMS=2.54D-06 Max=8.20D-05 NDo=     1
 LinEq1:  Iter= 15 NonCon=     1 RMS=2.43D-06 Max=7.35D-05 NDo=     1
 LinEq1:  Iter= 16 NonCon=     1 RMS=1.77D-06 Max=6.06D-05 NDo=     1
 LinEq1:  Iter= 17 NonCon=     1 RMS=1.75D-06 Max=5.02D-05 NDo=     1
 LinEq1:  Iter= 18 NonCon=     1 RMS=1.53D-06 Max=4.83D-05 NDo=     1
 LinEq1:  Iter= 19 NonCon=     1 RMS=1.56D-06 Max=4.85D-05 NDo=     1
 LinEq1:  Iter= 20 NonCon=     1 RMS=1.25D-06 Max=4.28D-05 NDo=     1
 LinEq1:  Iter= 21 NonCon=     1 RMS=9.15D-07 Max=3.09D-05 NDo=     1
 LinEq1:  Iter= 22 NonCon=     1 RMS=7.18D-07 Max=2.38D-05 NDo=     1
 LinEq1:  Iter= 23 NonCon=     1 RMS=5.92D-07 Max=1.62D-05 NDo=     1
 LinEq1:  Iter= 24 NonCon=     1 RMS=6.30D-07 Max=1.51D-05 NDo=     1
 LinEq1:  Iter= 25 NonCon=     1 RMS=4.25D-07 Max=1.55D-05 NDo=     1
 LinEq1:  Iter= 26 NonCon=     1 RMS=3.14D-07 Max=7.63D-06 NDo=     1
 LinEq1:  Iter= 27 NonCon=     1 RMS=2.15D-07 Max=6.22D-06 NDo=     1
 LinEq1:  Iter= 28 NonCon=     1 RMS=1.42D-07 Max=5.41D-06 NDo=     1
 LinEq1:  Iter= 29 NonCon=     1 RMS=1.13D-07 Max=4.11D-06 NDo=     1
 LinEq1:  Iter= 30 NonCon=     1 RMS=6.57D-08 Max=3.14D-06 NDo=     1
 LinEq1:  Iter= 31 NonCon=     1 RMS=4.24D-08 Max=1.91D-06 NDo=     1
 LinEq1:  Iter= 32 NonCon=     1 RMS=2.52D-08 Max=1.13D-06 NDo=     1
 LinEq1:  Iter= 33 NonCon=     1 RMS=1.64D-08 Max=7.23D-07 NDo=     1
 LinEq1:  Iter= 34 NonCon=     1 RMS=8.33D-09 Max=4.22D-07 NDo=     1
 LinEq1:  Iter= 35 NonCon=     0 RMS=3.61D-09 Max=1.67D-07 NDo=     1
 Linear equations converged to 2.982D-08 2.982D-07 after    35 iterations.
     Minimum is close to point  3 DX= -1.90D-03 DF= -8.78D-07 DXR=  2.27D-02 DFR=  5.17D-04 which will be used.
 LinEq1:  Iter=  0 NonCon=     1 RMS=1.20D-04 Max=9.49D-03 NDo=     1
 LinEq1:  Iter=  1 NonCon=     1 RMS=9.39D-05 Max=2.81D-03 NDo=     1
 LinEq1:  Iter=  2 NonCon=     1 RMS=8.13D-05 Max=1.99D-03 NDo=     1
 LinEq1:  Iter=  3 NonCon=     1 RMS=6.72D-05 Max=3.13D-03 NDo=     1
 LinEq1:  Iter=  4 NonCon=     1 RMS=6.41D-05 Max=3.31D-03 NDo=     1
 LinEq1:  Iter=  5 NonCon=     1 RMS=6.48D-05 Max=2.52D-03 NDo=     1
 LinEq1:  Iter=  6 NonCon=     1 RMS=5.69D-05 Max=3.14D-03 NDo=     1
 LinEq1:  Iter=  7 NonCon=     1 RMS=3.87D-05 Max=1.31D-03 NDo=     1
 LinEq1:  Iter=  8 NonCon=     1 RMS=3.59D-05 Max=1.59D-03 NDo=     1
 LinEq1:  Iter=  9 NonCon=     1 RMS=3.59D-05 Max=1.44D-03 NDo=     1
 LinEq1:  Iter= 10 NonCon=     1 RMS=2.74D-05 Max=1.40D-03 NDo=     1
 LinEq1:  Iter= 11 NonCon=     1 RMS=2.38D-05 Max=9.24D-04 NDo=     1
 LinEq1:  Iter= 12 NonCon=     1 RMS=1.91D-05 Max=6.40D-04 NDo=     1
 LinEq1:  Iter= 13 NonCon=     1 RMS=1.43D-05 Max=4.15D-04 NDo=     1
 LinEq1:  Iter= 14 NonCon=     1 RMS=1.35D-05 Max=4.44D-04 NDo=     1
 LinEq1:  Iter= 15 NonCon=     1 RMS=1.22D-05 Max=3.92D-04 NDo=     1
 LinEq1:  Iter= 16 NonCon=     1 RMS=9.22D-06 Max=2.77D-04 NDo=     1
 LinEq1:  Iter= 17 NonCon=     1 RMS=8.54D-06 Max=3.20D-04 NDo=     1
 LinEq1:  Iter= 18 NonCon=     1 RMS=8.57D-06 Max=2.07D-04 NDo=     1
 LinEq1:  Iter= 19 NonCon=     1 RMS=7.73D-06 Max=2.33D-04 NDo=     1
 LinEq1:  Iter= 20 NonCon=     1 RMS=6.10D-06 Max=2.19D-04 NDo=     1
 LinEq1:  Iter= 21 NonCon=     1 RMS=6.30D-06 Max=2.87D-04 NDo=     1
 LinEq1:  Iter= 22 NonCon=     1 RMS=4.49D-06 Max=1.47D-04 NDo=     1
 LinEq1:  Iter= 23 NonCon=     1 RMS=2.89D-06 Max=8.40D-05 NDo=     1
 LinEq1:  Iter= 24 NonCon=     1 RMS=2.29D-06 Max=5.54D-05 NDo=     1
 LinEq1:  Iter= 25 NonCon=     1 RMS=1.48D-06 Max=5.12D-05 NDo=     1
 LinEq1:  Iter= 26 NonCon=     1 RMS=1.10D-06 Max=2.79D-05 NDo=     1
 LinEq1:  Iter= 27 NonCon=     1 RMS=6.87D-07 Max=1.55D-05 NDo=     1
 LinEq1:  Iter= 28 NonCon=     1 RMS=3.58D-07 Max=9.52D-06 NDo=     1
 LinEq1:  Iter= 29 NonCon=     1 RMS=2.85D-07 Max=8.40D-06 NDo=     1
 LinEq1:  Iter= 30 NonCon=     1 RMS=1.66D-07 Max=6.84D-06 NDo=     1
 LinEq1:  Iter= 31 NonCon=     1 RMS=1.02D-07 Max=4.01D-06 NDo=     1
 LinEq1:  Iter= 32 NonCon=     1 RMS=7.40D-08 Max=4.20D-06 NDo=     1
 LinEq1:  Iter= 33 NonCon=     1 RMS=4.53D-08 Max=1.91D-06 NDo=     1
 LinEq1:  Iter= 34 NonCon=     1 RMS=2.84D-08 Max=1.23D-06 NDo=     1
 LinEq1:  Iter= 35 NonCon=     1 RMS=1.97D-08 Max=9.03D-07 NDo=     1
 LinEq1:  Iter= 36 NonCon=     1 RMS=1.30D-08 Max=4.77D-07 NDo=     1
 LinEq1:  Iter= 37 NonCon=     1 RMS=8.31D-09 Max=3.24D-07 NDo=     1
 LinEq1:  Iter= 38 NonCon=     0 RMS=3.73D-09 Max=1.28D-07 NDo=     1
 Linear equations converged to 2.982D-08 2.982D-07 after    38 iterations.
 Gradient too large for Newton-Raphson -- use scaled steepest descent instead.
 Gradient too large for Newton-Raphson -- use scaled steepest descent instead.
     Accept linear search using points  1 and  2.
 Gradient too large for Newton-Raphson -- use scaled steepest descent instead.
 Gradient too large for Newton-Raphson -- use scaled steepest descent instead.
     Minimum is close to point  3 DX=  3.32D-02 DF= -4.73D-06 DXR=  9.97D-02 DFR=  1.00D-02 which will be used.
 LinEq1:  Iter=  0 NonCon=     1 RMS=1.21D-04 Max=6.29D-03 NDo=     1
 LinEq1:  Iter=  1 NonCon=     1 RMS=9.89D-05 Max=2.56D-03 NDo=     1
 LinEq1:  Iter=  2 NonCon=     1 RMS=5.56D-05 Max=1.47D-03 NDo=     1
 LinEq1:  Iter=  3 NonCon=     1 RMS=5.19D-05 Max=2.32D-03 NDo=     1
 LinEq1:  Iter=  4 NonCon=     1 RMS=2.39D-05 Max=8.16D-04 NDo=     1
 LinEq1:  Iter=  5 NonCon=     1 RMS=2.55D-05 Max=9.07D-04 NDo=     1
 LinEq1:  Iter=  6 NonCon=     1 RMS=2.87D-05 Max=1.21D-03 NDo=     1
 LinEq1:  Iter=  7 NonCon=     1 RMS=1.87D-05 Max=5.27D-04 NDo=     1
 LinEq1:  Iter=  8 NonCon=     1 RMS=1.69D-05 Max=5.69D-04 NDo=     1
 LinEq1:  Iter=  9 NonCon=     1 RMS=1.59D-05 Max=4.35D-04 NDo=     1
 LinEq1:  Iter= 10 NonCon=     1 RMS=1.23D-05 Max=3.74D-04 NDo=     1
 LinEq1:  Iter= 11 NonCon=     1 RMS=1.19D-05 Max=4.51D-04 NDo=     1
 LinEq1:  Iter= 12 NonCon=     1 RMS=1.18D-05 Max=4.06D-04 NDo=     1
 LinEq1:  Iter= 13 NonCon=     1 RMS=9.18D-06 Max=2.44D-04 NDo=     1
 LinEq1:  Iter= 14 NonCon=     1 RMS=6.98D-06 Max=2.14D-04 NDo=     1
 LinEq1:  Iter= 15 NonCon=     1 RMS=6.69D-06 Max=1.70D-04 NDo=     1
 LinEq1:  Iter= 16 NonCon=     1 RMS=6.19D-06 Max=1.92D-04 NDo=     1
 LinEq1:  Iter= 17 NonCon=     1 RMS=5.33D-06 Max=1.31D-04 NDo=     1
 LinEq1:  Iter= 18 NonCon=     1 RMS=3.53D-06 Max=8.98D-05 NDo=     1
 LinEq1:  Iter= 19 NonCon=     1 RMS=3.23D-06 Max=9.24D-05 NDo=     1
 LinEq1:  Iter= 20 NonCon=     1 RMS=2.24D-06 Max=6.10D-05 NDo=     1
 LinEq1:  Iter= 21 NonCon=     1 RMS=2.16D-06 Max=4.45D-05 NDo=     1
 LinEq1:  Iter= 22 NonCon=     1 RMS=1.78D-06 Max=4.79D-05 NDo=     1
 LinEq1:  Iter= 23 NonCon=     1 RMS=1.56D-06 Max=4.71D-05 NDo=     1
 LinEq1:  Iter= 24 NonCon=     1 RMS=1.09D-06 Max=3.67D-05 NDo=     1
 LinEq1:  Iter= 25 NonCon=     1 RMS=6.77D-07 Max=2.16D-05 NDo=     1
 LinEq1:  Iter= 26 NonCon=     1 RMS=5.85D-07 Max=1.90D-05 NDo=     1
 LinEq1:  Iter= 27 NonCon=     1 RMS=3.00D-07 Max=8.78D-06 NDo=     1
 LinEq1:  Iter= 28 NonCon=     1 RMS=2.28D-07 Max=5.12D-06 NDo=     1
 LinEq1:  Iter= 29 NonCon=     1 RMS=1.63D-07 Max=4.47D-06 NDo=     1
 LinEq1:  Iter= 30 NonCon=     1 RMS=9.89D-08 Max=2.08D-06 NDo=     1
 LinEq1:  Iter= 31 NonCon=     1 RMS=6.59D-08 Max=1.27D-06 NDo=     1
 LinEq1:  Iter= 32 NonCon=     1 RMS=4.12D-08 Max=9.79D-07 NDo=     1
 LinEq1:  Iter= 33 NonCon=     1 RMS=2.83D-08 Max=6.34D-07 NDo=     1
 LinEq1:  Iter= 34 NonCon=     1 RMS=1.57D-08 Max=4.46D-07 NDo=     1
 LinEq1:  Iter= 35 NonCon=     1 RMS=1.03D-08 Max=3.03D-07 NDo=     1
 LinEq1:  Iter= 36 NonCon=     0 RMS=7.27D-09 Max=2.67D-07 NDo=     1
 Linear equations converged to 2.982D-08 2.982D-07 after    36 iterations.
 LinEq1:  Iter=  0 NonCon=     1 RMS=1.20D-04 Max=6.49D-03 NDo=     1
 LinEq1:  Iter=  1 NonCon=     1 RMS=9.79D-05 Max=2.71D-03 NDo=     1
 LinEq1:  Iter=  2 NonCon=     1 RMS=6.44D-05 Max=1.49D-03 NDo=     1
 LinEq1:  Iter=  3 NonCon=     1 RMS=5.94D-05 Max=2.27D-03 NDo=     1
 LinEq1:  Iter=  4 NonCon=     1 RMS=3.51D-05 Max=1.30D-03 NDo=     1
 LinEq1:  Iter=  5 NonCon=     1 RMS=2.72D-05 Max=9.55D-04 NDo=     1
 LinEq1:  Iter=  6 NonCon=     1 RMS=3.15D-05 Max=1.29D-03 NDo=     1
 LinEq1:  Iter=  7 NonCon=     1 RMS=2.75D-05 Max=9.96D-04 NDo=     1
 LinEq1:  Iter=  8 NonCon=     1 RMS=2.06D-05 Max=6.18D-04 NDo=     1
 LinEq1:  Iter=  9 NonCon=     1 RMS=1.94D-05 Max=4.75D-04 NDo=     1
 LinEq1:  Iter= 10 NonCon=     1 RMS=1.73D-05 Max=5.00D-04 NDo=     1
 LinEq1:  Iter= 11 NonCon=     1 RMS=1.37D-05 Max=5.08D-04 NDo=     1
 LinEq1:  Iter= 12 NonCon=     1 RMS=1.35D-05 Max=4.45D-04 NDo=     1
 LinEq1:  Iter= 13 NonCon=     1 RMS=1.35D-05 Max=3.84D-04 NDo=     1
 LinEq1:  Iter= 14 NonCon=     1 RMS=8.52D-06 Max=2.24D-04 NDo=     1
 LinEq1:  Iter= 15 NonCon=     1 RMS=7.43D-06 Max=1.65D-04 NDo=     1
 LinEq1:  Iter= 16 NonCon=     1 RMS=6.62D-06 Max=1.80D-04 NDo=     1
 LinEq1:  Iter= 17 NonCon=     1 RMS=6.46D-06 Max=1.41D-04 NDo=     1
 LinEq1:  Iter= 18 NonCon=     1 RMS=4.62D-06 Max=1.01D-04 NDo=     1
 LinEq1:  Iter= 19 NonCon=     1 RMS=3.64D-06 Max=1.06D-04 NDo=     1
 LinEq1:  Iter= 20 NonCon=     1 RMS=3.27D-06 Max=9.41D-05 NDo=     1
 LinEq1:  Iter= 21 NonCon=     1 RMS=2.16D-06 Max=5.41D-05 NDo=     1
 LinEq1:  Iter= 22 NonCon=     1 RMS=2.09D-06 Max=5.65D-05 NDo=     1
 LinEq1:  Iter= 23 NonCon=     1 RMS=1.76D-06 Max=4.56D-05 NDo=     1
 LinEq1:  Iter= 24 NonCon=     1 RMS=1.41D-06 Max=3.51D-05 NDo=     1
 LinEq1:  Iter= 25 NonCon=     1 RMS=7.98D-07 Max=2.68D-05 NDo=     1
 LinEq1:  Iter= 26 NonCon=     1 RMS=7.33D-07 Max=2.00D-05 NDo=     1
 LinEq1:  Iter= 27 NonCon=     1 RMS=4.22D-07 Max=1.23D-05 NDo=     1
 LinEq1:  Iter= 28 NonCon=     1 RMS=2.39D-07 Max=6.60D-06 NDo=     1
 LinEq1:  Iter= 29 NonCon=     1 RMS=1.85D-07 Max=4.50D-06 NDo=     1
 LinEq1:  Iter= 30 NonCon=     1 RMS=1.30D-07 Max=3.60D-06 NDo=     1
 LinEq1:  Iter= 31 NonCon=     1 RMS=8.21D-08 Max=1.71D-06 NDo=     1
 LinEq1:  Iter= 32 NonCon=     1 RMS=4.99D-08 Max=1.08D-06 NDo=     1
 LinEq1:  Iter= 33 NonCon=     1 RMS=3.38D-08 Max=6.93D-07 NDo=     1
 LinEq1:  Iter= 34 NonCon=     1 RMS=2.09D-08 Max=4.60D-07 NDo=     1
 LinEq1:  Iter= 35 NonCon=     1 RMS=1.33D-08 Max=3.75D-07 NDo=     1
 LinEq1:  Iter= 36 NonCon=     0 RMS=9.44D-09 Max=2.92D-07 NDo=     1
 Linear equations converged to 2.982D-08 2.982D-07 after    36 iterations.
 LinEq1:  Iter=  0 NonCon=     1 RMS=1.17D-04 Max=6.78D-03 NDo=     1
 LinEq1:  Iter=  1 NonCon=     1 RMS=9.77D-05 Max=3.08D-03 NDo=     1
 LinEq1:  Iter=  2 NonCon=     1 RMS=7.25D-05 Max=1.69D-03 NDo=     1
 LinEq1:  Iter=  3 NonCon=     1 RMS=6.58D-05 Max=2.63D-03 NDo=     1
 LinEq1:  Iter=  4 NonCon=     1 RMS=4.17D-05 Max=1.45D-03 NDo=     1
 LinEq1:  Iter=  5 NonCon=     1 RMS=3.15D-05 Max=1.15D-03 NDo=     1
 LinEq1:  Iter=  6 NonCon=     1 RMS=3.60D-05 Max=1.37D-03 NDo=     1
 LinEq1:  Iter=  7 NonCon=     1 RMS=3.34D-05 Max=1.25D-03 NDo=     1
 LinEq1:  Iter=  8 NonCon=     1 RMS=2.25D-05 Max=8.05D-04 NDo=     1
 LinEq1:  Iter=  9 NonCon=     1 RMS=1.53D-05 Max=5.08D-04 NDo=     1
 LinEq1:  Iter= 10 NonCon=     1 RMS=1.61D-05 Max=5.60D-04 NDo=     1
 LinEq1:  Iter= 11 NonCon=     1 RMS=1.62D-05 Max=5.68D-04 NDo=     1
 LinEq1:  Iter= 12 NonCon=     1 RMS=1.20D-05 Max=3.76D-04 NDo=     1
 LinEq1:  Iter= 13 NonCon=     1 RMS=1.14D-05 Max=2.29D-04 NDo=     1
 LinEq1:  Iter= 14 NonCon=     1 RMS=8.71D-06 Max=2.20D-04 NDo=     1
 LinEq1:  Iter= 15 NonCon=     1 RMS=7.59D-06 Max=1.72D-04 NDo=     1
 LinEq1:  Iter= 16 NonCon=     1 RMS=5.43D-06 Max=1.26D-04 NDo=     1
 LinEq1:  Iter= 17 NonCon=     1 RMS=5.05D-06 Max=9.37D-05 NDo=     1
 LinEq1:  Iter= 18 NonCon=     1 RMS=4.33D-06 Max=7.55D-05 NDo=     1
 LinEq1:  Iter= 19 NonCon=     1 RMS=3.15D-06 Max=8.54D-05 NDo=     1
 LinEq1:  Iter= 20 NonCon=     1 RMS=3.46D-06 Max=1.03D-04 NDo=     1
 LinEq1:  Iter= 21 NonCon=     1 RMS=1.63D-06 Max=3.99D-05 NDo=     1
 LinEq1:  Iter= 22 NonCon=     1 RMS=1.64D-06 Max=4.95D-05 NDo=     1
 LinEq1:  Iter= 23 NonCon=     1 RMS=1.31D-06 Max=3.80D-05 NDo=     1
 LinEq1:  Iter= 24 NonCon=     1 RMS=1.28D-06 Max=3.81D-05 NDo=     1
 LinEq1:  Iter= 25 NonCon=     1 RMS=8.59D-07 Max=2.05D-05 NDo=     1
 LinEq1:  Iter= 26 NonCon=     1 RMS=7.08D-07 Max=2.37D-05 NDo=     1
 LinEq1:  Iter= 27 NonCon=     1 RMS=4.60D-07 Max=1.32D-05 NDo=     1
 LinEq1:  Iter= 28 NonCon=     1 RMS=2.56D-07 Max=5.60D-06 NDo=     1
 LinEq1:  Iter= 29 NonCon=     1 RMS=2.28D-07 Max=6.99D-06 NDo=     1
 LinEq1:  Iter= 30 NonCon=     1 RMS=1.11D-07 Max=2.83D-06 NDo=     1
 LinEq1:  Iter= 31 NonCon=     1 RMS=6.88D-08 Max=1.92D-06 NDo=     1
 LinEq1:  Iter= 32 NonCon=     1 RMS=5.30D-08 Max=1.18D-06 NDo=     1
 LinEq1:  Iter= 33 NonCon=     1 RMS=2.82D-08 Max=8.34D-07 NDo=     1
 LinEq1:  Iter= 34 NonCon=     1 RMS=1.82D-08 Max=5.11D-07 NDo=     1
 LinEq1:  Iter= 35 NonCon=     1 RMS=1.35D-08 Max=3.26D-07 NDo=     1
 LinEq1:  Iter= 36 NonCon=     0 RMS=7.18D-09 Max=2.23D-07 NDo=     1
 Linear equations converged to 2.982D-08 2.982D-07 after    36 iterations.
 LinEq1:  Iter=  0 NonCon=     1 RMS=1.15D-04 Max=6.95D-03 NDo=     1
 LinEq1:  Iter=  1 NonCon=     1 RMS=9.63D-05 Max=3.13D-03 NDo=     1
 LinEq1:  Iter=  2 NonCon=     1 RMS=7.94D-05 Max=2.33D-03 NDo=     1
 LinEq1:  Iter=  3 NonCon=     1 RMS=6.98D-05 Max=3.57D-03 NDo=     1
 LinEq1:  Iter=  4 NonCon=     1 RMS=4.86D-05 Max=1.83D-03 NDo=     1
 LinEq1:  Iter=  5 NonCon=     1 RMS=3.62D-05 Max=1.98D-03 NDo=     1
 LinEq1:  Iter=  6 NonCon=     1 RMS=3.99D-05 Max=1.35D-03 NDo=     1
 LinEq1:  Iter=  7 NonCon=     1 RMS=3.77D-05 Max=1.59D-03 NDo=     1
 LinEq1:  Iter=  8 NonCon=     1 RMS=2.62D-05 Max=1.15D-03 NDo=     1
 LinEq1:  Iter=  9 NonCon=     1 RMS=2.27D-05 Max=5.85D-04 NDo=     1
 LinEq1:  Iter= 10 NonCon=     1 RMS=2.30D-05 Max=7.19D-04 NDo=     1
 LinEq1:  Iter= 11 NonCon=     1 RMS=1.94D-05 Max=5.93D-04 NDo=     1
 LinEq1:  Iter= 12 NonCon=     1 RMS=1.40D-05 Max=4.00D-04 NDo=     1
 LinEq1:  Iter= 13 NonCon=     1 RMS=1.38D-05 Max=3.76D-04 NDo=     1
 LinEq1:  Iter= 14 NonCon=     1 RMS=1.28D-05 Max=3.37D-04 NDo=     1
 LinEq1:  Iter= 15 NonCon=     1 RMS=1.22D-05 Max=2.86D-04 NDo=     1
 LinEq1:  Iter= 16 NonCon=     1 RMS=8.06D-06 Max=1.90D-04 NDo=     1
 LinEq1:  Iter= 17 NonCon=     1 RMS=7.48D-06 Max=1.60D-04 NDo=     1
 LinEq1:  Iter= 18 NonCon=     1 RMS=6.18D-06 Max=1.30D-04 NDo=     1
 LinEq1:  Iter= 19 NonCon=     1 RMS=5.55D-06 Max=1.13D-04 NDo=     1
 LinEq1:  Iter= 20 NonCon=     1 RMS=4.52D-06 Max=1.44D-04 NDo=     1
 LinEq1:  Iter= 21 NonCon=     1 RMS=3.16D-06 Max=7.88D-05 NDo=     1
 LinEq1:  Iter= 22 NonCon=     1 RMS=2.49D-06 Max=6.64D-05 NDo=     1
 LinEq1:  Iter= 23 NonCon=     1 RMS=1.72D-06 Max=5.92D-05 NDo=     1
 LinEq1:  Iter= 24 NonCon=     1 RMS=1.52D-06 Max=4.68D-05 NDo=     1
 LinEq1:  Iter= 25 NonCon=     1 RMS=1.14D-06 Max=3.09D-05 NDo=     1
 LinEq1:  Iter= 26 NonCon=     1 RMS=9.59D-07 Max=3.46D-05 NDo=     1
 LinEq1:  Iter= 27 NonCon=     1 RMS=5.62D-07 Max=1.59D-05 NDo=     1
 LinEq1:  Iter= 28 NonCon=     1 RMS=3.38D-07 Max=9.71D-06 NDo=     1
 LinEq1:  Iter= 29 NonCon=     1 RMS=2.04D-07 Max=5.23D-06 NDo=     1
 LinEq1:  Iter= 30 NonCon=     1 RMS=1.41D-07 Max=3.63D-06 NDo=     1
 LinEq1:  Iter= 31 NonCon=     1 RMS=9.61D-08 Max=2.53D-06 NDo=     1
 LinEq1:  Iter= 32 NonCon=     1 RMS=6.04D-08 Max=1.63D-06 NDo=     1
 LinEq1:  Iter= 33 NonCon=     1 RMS=4.46D-08 Max=1.08D-06 NDo=     1
 LinEq1:  Iter= 34 NonCon=     1 RMS=2.79D-08 Max=6.75D-07 NDo=     1
 LinEq1:  Iter= 35 NonCon=     0 RMS=1.16D-08 Max=2.88D-07 NDo=     1
 Linear equations converged to 2.982D-08 2.982D-07 after    35 iterations.
 LinEq1:  Iter=  0 NonCon=     1 RMS=1.13D-04 Max=6.80D-03 NDo=     1
 LinEq1:  Iter=  1 NonCon=     1 RMS=9.49D-05 Max=3.01D-03 NDo=     1
 LinEq1:  Iter=  2 NonCon=     1 RMS=8.23D-05 Max=2.54D-03 NDo=     1
 LinEq1:  Iter=  3 NonCon=     1 RMS=7.30D-05 Max=3.80D-03 NDo=     1
 LinEq1:  Iter=  4 NonCon=     1 RMS=5.06D-05 Max=1.87D-03 NDo=     1
 LinEq1:  Iter=  5 NonCon=     1 RMS=3.79D-05 Max=2.20D-03 NDo=     1
 LinEq1:  Iter=  6 NonCon=     1 RMS=4.08D-05 Max=1.49D-03 NDo=     1
 LinEq1:  Iter=  7 NonCon=     1 RMS=3.96D-05 Max=1.62D-03 NDo=     1
 LinEq1:  Iter=  8 NonCon=     1 RMS=2.87D-05 Max=1.33D-03 NDo=     1
 LinEq1:  Iter=  9 NonCon=     1 RMS=2.54D-05 Max=6.95D-04 NDo=     1
 LinEq1:  Iter= 10 NonCon=     1 RMS=2.51D-05 Max=7.91D-04 NDo=     1
 LinEq1:  Iter= 11 NonCon=     1 RMS=2.07D-05 Max=6.19D-04 NDo=     1
 LinEq1:  Iter= 12 NonCon=     1 RMS=1.61D-05 Max=5.27D-04 NDo=     1
 LinEq1:  Iter= 13 NonCon=     1 RMS=1.50D-05 Max=3.61D-04 NDo=     1
 LinEq1:  Iter= 14 NonCon=     1 RMS=1.22D-05 Max=2.85D-04 NDo=     1
 LinEq1:  Iter= 15 NonCon=     1 RMS=1.16D-05 Max=3.28D-04 NDo=     1
 LinEq1:  Iter= 16 NonCon=     1 RMS=8.95D-06 Max=1.99D-04 NDo=     1
 LinEq1:  Iter= 17 NonCon=     1 RMS=9.31D-06 Max=1.76D-04 NDo=     1
 LinEq1:  Iter= 18 NonCon=     1 RMS=6.70D-06 Max=1.53D-04 NDo=     1
 LinEq1:  Iter= 19 NonCon=     1 RMS=5.65D-06 Max=1.42D-04 NDo=     1
 LinEq1:  Iter= 20 NonCon=     1 RMS=5.54D-06 Max=1.72D-04 NDo=     1
 LinEq1:  Iter= 21 NonCon=     1 RMS=5.58D-06 Max=1.70D-04 NDo=     1
 LinEq1:  Iter= 22 NonCon=     1 RMS=3.40D-06 Max=8.20D-05 NDo=     1
 LinEq1:  Iter= 23 NonCon=     1 RMS=2.57D-06 Max=7.36D-05 NDo=     1
 LinEq1:  Iter= 24 NonCon=     1 RMS=2.08D-06 Max=7.11D-05 NDo=     1
 LinEq1:  Iter= 25 NonCon=     1 RMS=1.42D-06 Max=3.07D-05 NDo=     1
 LinEq1:  Iter= 26 NonCon=     1 RMS=1.16D-06 Max=4.18D-05 NDo=     1
 LinEq1:  Iter= 27 NonCon=     1 RMS=6.01D-07 Max=2.09D-05 NDo=     1
 LinEq1:  Iter= 28 NonCon=     1 RMS=4.60D-07 Max=1.38D-05 NDo=     1
 LinEq1:  Iter= 29 NonCon=     1 RMS=3.26D-07 Max=9.71D-06 NDo=     1
 LinEq1:  Iter= 30 NonCon=     1 RMS=2.05D-07 Max=5.68D-06 NDo=     1
 LinEq1:  Iter= 31 NonCon=     1 RMS=1.21D-07 Max=2.98D-06 NDo=     1
 LinEq1:  Iter= 32 NonCon=     1 RMS=6.82D-08 Max=1.56D-06 NDo=     1
 LinEq1:  Iter= 33 NonCon=     1 RMS=5.04D-08 Max=1.09D-06 NDo=     1
 LinEq1:  Iter= 34 NonCon=     1 RMS=3.04D-08 Max=8.63D-07 NDo=     1
 LinEq1:  Iter= 35 NonCon=     1 RMS=1.80D-08 Max=4.78D-07 NDo=     1
 LinEq1:  Iter= 36 NonCon=     1 RMS=1.17D-08 Max=5.32D-07 NDo=     1
 LinEq1:  Iter= 37 NonCon=     0 RMS=6.33D-09 Max=2.70D-07 NDo=     1
 Linear equations converged to 2.982D-08 2.982D-07 after    37 iterations.
 Incorrect curvature in search direction -- initial direction reversed.
     Minimum is close to point  7 DX= -5.64D-04 DF= -9.81D-06 DXR=  4.44D-02 DFR=  3.52D-03 which will be used.
 Gradient too large for Newton-Raphson -- use scaled steepest descent instead.
     Accept linear search using points  2 and  3.
 Gradient too large for Newton-Raphson -- use scaled steepest descent instead.
     Accept linear search using points  1 and  2.
 LinEq1:  Iter=  0 NonCon=     1 RMS=1.10D-04 Max=5.19D-03 NDo=     1
 LinEq1:  Iter=  1 NonCon=     1 RMS=1.30D-04 Max=4.87D-03 NDo=     1
 LinEq1:  Iter=  2 NonCon=     1 RMS=6.88D-05 Max=3.30D-03 NDo=     1
 LinEq1:  Iter=  3 NonCon=     1 RMS=7.05D-05 Max=4.96D-03 NDo=     1
 LinEq1:  Iter=  4 NonCon=     1 RMS=6.23D-05 Max=2.54D-03 NDo=     1
 LinEq1:  Iter=  5 NonCon=     1 RMS=5.81D-05 Max=4.79D-03 NDo=     1
 LinEq1:  Iter=  6 NonCon=     1 RMS=4.93D-05 Max=3.05D-03 NDo=     1
 LinEq1:  Iter=  7 NonCon=     1 RMS=4.01D-05 Max=1.61D-03 NDo=     1
 LinEq1:  Iter=  8 NonCon=     1 RMS=4.14D-05 Max=2.51D-03 NDo=     1
 LinEq1:  Iter=  9 NonCon=     1 RMS=3.34D-05 Max=1.63D-03 NDo=     1
 LinEq1:  Iter= 10 NonCon=     1 RMS=2.61D-05 Max=1.24D-03 NDo=     1
 LinEq1:  Iter= 11 NonCon=     1 RMS=2.73D-05 Max=1.15D-03 NDo=     1
 LinEq1:  Iter= 12 NonCon=     1 RMS=2.34D-05 Max=5.01D-04 NDo=     1
 LinEq1:  Iter= 13 NonCon=     1 RMS=1.94D-05 Max=6.11D-04 NDo=     1
 LinEq1:  Iter= 14 NonCon=     1 RMS=1.69D-05 Max=4.85D-04 NDo=     1
 LinEq1:  Iter= 15 NonCon=     1 RMS=1.38D-05 Max=3.69D-04 NDo=     1
 LinEq1:  Iter= 16 NonCon=     1 RMS=1.25D-05 Max=3.50D-04 NDo=     1
 LinEq1:  Iter= 17 NonCon=     1 RMS=1.33D-05 Max=3.96D-04 NDo=     1
 LinEq1:  Iter= 18 NonCon=     1 RMS=8.45D-06 Max=2.49D-04 NDo=     1
 LinEq1:  Iter= 19 NonCon=     1 RMS=7.37D-06 Max=2.74D-04 NDo=     1
 LinEq1:  Iter= 20 NonCon=     1 RMS=5.24D-06 Max=1.78D-04 NDo=     1
 LinEq1:  Iter= 21 NonCon=     1 RMS=5.23D-06 Max=1.58D-04 NDo=     1
 LinEq1:  Iter= 22 NonCon=     1 RMS=3.17D-06 Max=8.65D-05 NDo=     1
 LinEq1:  Iter= 23 NonCon=     1 RMS=1.80D-06 Max=4.89D-05 NDo=     1
 LinEq1:  Iter= 24 NonCon=     1 RMS=1.44D-06 Max=4.53D-05 NDo=     1
 LinEq1:  Iter= 25 NonCon=     1 RMS=8.71D-07 Max=3.54D-05 NDo=     1
 LinEq1:  Iter= 26 NonCon=     1 RMS=5.33D-07 Max=1.59D-05 NDo=     1
 LinEq1:  Iter= 27 NonCon=     1 RMS=3.85D-07 Max=1.54D-05 NDo=     1
 LinEq1:  Iter= 28 NonCon=     1 RMS=2.52D-07 Max=9.05D-06 NDo=     1
 LinEq1:  Iter= 29 NonCon=     1 RMS=1.79D-07 Max=6.86D-06 NDo=     1
 LinEq1:  Iter= 30 NonCon=     1 RMS=1.16D-07 Max=3.93D-06 NDo=     1
 LinEq1:  Iter= 31 NonCon=     1 RMS=7.52D-08 Max=1.97D-06 NDo=     1
 LinEq1:  Iter= 32 NonCon=     1 RMS=5.69D-08 Max=1.45D-06 NDo=     1
 LinEq1:  Iter= 33 NonCon=     1 RMS=3.61D-08 Max=7.57D-07 NDo=     1
 LinEq1:  Iter= 34 NonCon=     1 RMS=2.32D-08 Max=6.51D-07 NDo=     1
 LinEq1:  Iter= 35 NonCon=     1 RMS=1.11D-08 Max=3.43D-07 NDo=     1
 LinEq1:  Iter= 36 NonCon=     0 RMS=8.43D-09 Max=2.29D-07 NDo=     1
 Linear equations converged to 2.982D-08 2.982D-07 after    36 iterations.
 Incorrect curvature in search direction -- initial direction reversed.
 Gradient too large for Newton-Raphson -- use scaled steepest descent instead.
     Accept linear search using points  2 and  3.
 Gradient too large for Newton-Raphson -- use scaled steepest descent instead.
     Accept linear search using points  1 and  2.
 LinEq1:  Iter=  0 NonCon=     1 RMS=1.22D-04 Max=7.05D-03 NDo=     1
 LinEq1:  Iter=  1 NonCon=     1 RMS=1.31D-04 Max=3.98D-03 NDo=     1
 LinEq1:  Iter=  2 NonCon=     1 RMS=5.95D-05 Max=5.27D-03 NDo=     1
 LinEq1:  Iter=  3 NonCon=     1 RMS=5.59D-05 Max=3.52D-03 NDo=     1
 LinEq1:  Iter=  4 NonCon=     1 RMS=3.46D-05 Max=2.27D-03 NDo=     1
 LinEq1:  Iter=  5 NonCon=     1 RMS=4.11D-05 Max=3.66D-03 NDo=     1
 LinEq1:  Iter=  6 NonCon=     1 RMS=3.51D-05 Max=1.47D-03 NDo=     1
 LinEq1:  Iter=  7 NonCon=     1 RMS=2.51D-05 Max=1.28D-03 NDo=     1
 LinEq1:  Iter=  8 NonCon=     1 RMS=2.57D-05 Max=1.23D-03 NDo=     1
 LinEq1:  Iter=  9 NonCon=     1 RMS=2.48D-05 Max=7.85D-04 NDo=     1
 LinEq1:  Iter= 10 NonCon=     1 RMS=1.85D-05 Max=9.15D-04 NDo=     1
 LinEq1:  Iter= 11 NonCon=     1 RMS=1.60D-05 Max=5.29D-04 NDo=     1
 LinEq1:  Iter= 12 NonCon=     1 RMS=1.38D-05 Max=2.68D-04 NDo=     1
 LinEq1:  Iter= 13 NonCon=     1 RMS=1.36D-05 Max=4.14D-04 NDo=     1
 LinEq1:  Iter= 14 NonCon=     1 RMS=1.13D-05 Max=3.01D-04 NDo=     1
 LinEq1:  Iter= 15 NonCon=     1 RMS=8.12D-06 Max=2.02D-04 NDo=     1
 LinEq1:  Iter= 16 NonCon=     1 RMS=7.38D-06 Max=1.65D-04 NDo=     1
 LinEq1:  Iter= 17 NonCon=     1 RMS=7.59D-06 Max=2.60D-04 NDo=     1
 LinEq1:  Iter= 18 NonCon=     1 RMS=5.16D-06 Max=1.66D-04 NDo=     1
 LinEq1:  Iter= 19 NonCon=     1 RMS=4.87D-06 Max=9.92D-05 NDo=     1
 LinEq1:  Iter= 20 NonCon=     1 RMS=2.84D-06 Max=7.83D-05 NDo=     1
 LinEq1:  Iter= 21 NonCon=     1 RMS=2.31D-06 Max=4.40D-05 NDo=     1
 LinEq1:  Iter= 22 NonCon=     1 RMS=1.71D-06 Max=4.62D-05 NDo=     1
 LinEq1:  Iter= 23 NonCon=     1 RMS=9.26D-07 Max=2.95D-05 NDo=     1
 LinEq1:  Iter= 24 NonCon=     1 RMS=7.90D-07 Max=2.22D-05 NDo=     1
 LinEq1:  Iter= 25 NonCon=     1 RMS=6.36D-07 Max=2.08D-05 NDo=     1
 LinEq1:  Iter= 26 NonCon=     1 RMS=5.35D-07 Max=1.28D-05 NDo=     1
 LinEq1:  Iter= 27 NonCon=     1 RMS=4.01D-07 Max=8.78D-06 NDo=     1
 LinEq1:  Iter= 28 NonCon=     1 RMS=2.45D-07 Max=5.82D-06 NDo=     1
 LinEq1:  Iter= 29 NonCon=     1 RMS=1.90D-07 Max=4.99D-06 NDo=     1
 LinEq1:  Iter= 30 NonCon=     1 RMS=1.01D-07 Max=2.07D-06 NDo=     1
 LinEq1:  Iter= 31 NonCon=     1 RMS=6.65D-08 Max=1.85D-06 NDo=     1
 LinEq1:  Iter= 32 NonCon=     1 RMS=4.10D-08 Max=8.23D-07 NDo=     1
 LinEq1:  Iter= 33 NonCon=     1 RMS=2.54D-08 Max=5.49D-07 NDo=     1
 LinEq1:  Iter= 34 NonCon=     1 RMS=1.56D-08 Max=3.87D-07 NDo=     1
 LinEq1:  Iter= 35 NonCon=     0 RMS=8.51D-09 Max=1.94D-07 NDo=     1
 Linear equations converged to 2.982D-08 2.982D-07 after    35 iterations.
 Incorrect curvature in search direction -- initial direction reversed.
     Minimum is close to point  3 DX=  5.60D-03 DF= -1.47D-05 DXR=  9.64D-02 DFR=  9.39D-03 which will be used.
 Gradient too large for Newton-Raphson -- use scaled steepest descent instead.
 Gradient too large for Newton-Raphson -- use scaled steepest descent instead.
     Minimum is close to point  3 DX=  2.78D-02 DF= -3.96D-06 DXR=  8.48D-02 DFR=  7.25D-03 which will be used.
 LinEq1:  Iter=  0 NonCon=     1 RMS=1.21D-04 Max=8.88D-03 NDo=     1
 LinEq1:  Iter=  1 NonCon=     1 RMS=1.01D-04 Max=2.85D-03 NDo=     1
 LinEq1:  Iter=  2 NonCon=     1 RMS=6.05D-05 Max=4.08D-03 NDo=     1
 LinEq1:  Iter=  3 NonCon=     1 RMS=6.32D-05 Max=7.01D-03 NDo=     1
 LinEq1:  Iter=  4 NonCon=     1 RMS=3.27D-05 Max=1.37D-03 NDo=     1
 LinEq1:  Iter=  5 NonCon=     1 RMS=1.98D-05 Max=1.03D-03 NDo=     1
 LinEq1:  Iter=  6 NonCon=     1 RMS=1.89D-05 Max=1.09D-03 NDo=     1
 LinEq1:  Iter=  7 NonCon=     1 RMS=1.73D-05 Max=5.28D-04 NDo=     1
 LinEq1:  Iter=  8 NonCon=     1 RMS=1.40D-05 Max=7.50D-04 NDo=     1
 LinEq1:  Iter=  9 NonCon=     1 RMS=1.12D-05 Max=4.62D-04 NDo=     1
 LinEq1:  Iter= 10 NonCon=     1 RMS=1.20D-05 Max=3.02D-04 NDo=     1
 LinEq1:  Iter= 11 NonCon=     1 RMS=9.92D-06 Max=2.96D-04 NDo=     1
 LinEq1:  Iter= 12 NonCon=     1 RMS=7.81D-06 Max=2.11D-04 NDo=     1
 LinEq1:  Iter= 13 NonCon=     1 RMS=6.19D-06 Max=1.54D-04 NDo=     1
 LinEq1:  Iter= 14 NonCon=     1 RMS=5.51D-06 Max=1.17D-04 NDo=     1
 LinEq1:  Iter= 15 NonCon=     1 RMS=5.34D-06 Max=1.49D-04 NDo=     1
 LinEq1:  Iter= 16 NonCon=     1 RMS=4.27D-06 Max=1.13D-04 NDo=     1
 LinEq1:  Iter= 17 NonCon=     1 RMS=3.56D-06 Max=1.06D-04 NDo=     1
 LinEq1:  Iter= 18 NonCon=     1 RMS=2.94D-06 Max=1.01D-04 NDo=     1
 LinEq1:  Iter= 19 NonCon=     1 RMS=2.23D-06 Max=5.84D-05 NDo=     1
 LinEq1:  Iter= 20 NonCon=     1 RMS=1.79D-06 Max=3.84D-05 NDo=     1
 LinEq1:  Iter= 21 NonCon=     1 RMS=1.24D-06 Max=2.71D-05 NDo=     1
 LinEq1:  Iter= 22 NonCon=     1 RMS=1.12D-06 Max=3.02D-05 NDo=     1
 LinEq1:  Iter= 23 NonCon=     1 RMS=7.34D-07 Max=2.46D-05 NDo=     1
 LinEq1:  Iter= 24 NonCon=     1 RMS=7.16D-07 Max=2.11D-05 NDo=     1
 LinEq1:  Iter= 25 NonCon=     1 RMS=5.77D-07 Max=1.17D-05 NDo=     1
 LinEq1:  Iter= 26 NonCon=     1 RMS=5.96D-07 Max=1.71D-05 NDo=     1
 LinEq1:  Iter= 27 NonCon=     1 RMS=4.42D-07 Max=1.06D-05 NDo=     1
 LinEq1:  Iter= 28 NonCon=     1 RMS=3.03D-07 Max=7.89D-06 NDo=     1
 LinEq1:  Iter= 29 NonCon=     1 RMS=1.91D-07 Max=6.08D-06 NDo=     1
 LinEq1:  Iter= 30 NonCon=     1 RMS=9.45D-08 Max=2.72D-06 NDo=     1
 LinEq1:  Iter= 31 NonCon=     1 RMS=5.73D-08 Max=1.29D-06 NDo=     1
 LinEq1:  Iter= 32 NonCon=     1 RMS=4.05D-08 Max=1.10D-06 NDo=     1
 LinEq1:  Iter= 33 NonCon=     1 RMS=2.62D-08 Max=5.92D-07 NDo=     1
 LinEq1:  Iter= 34 NonCon=     1 RMS=1.34D-08 Max=5.14D-07 NDo=     1
 LinEq1:  Iter= 35 NonCon=     0 RMS=6.81D-09 Max=1.99D-07 NDo=     1
 Linear equations converged to 2.982D-08 2.982D-07 after    35 iterations.
 Incorrect curvature in search direction -- initial direction reversed.
 Gradient too large for Newton-Raphson -- use scaled steepest descent instead.
     Minimum is close to point  3 DX=  6.76D-02 DF= -1.56D-06 DXR=  4.31D-02 DFR=  1.86D-03 which will be used.
 Gradient too large for Newton-Raphson -- use scaled steepest descent instead.
     Accept linear search using points  1 and  2.
 Gradient too large for Newton-Raphson -- use scaled steepest descent instead.
 Gradient too large for Newton-Raphson -- use scaled steepest descent instead.
     Accept linear search using points  1 and  2.
 Gradient too large for Newton-Raphson -- use scaled steepest descent instead.
     Minimum is close to point  4 DX=  2.40D-03 DF= -1.01D-09 DXR=  1.04D-03 DFR=  1.10D-06 which will be used.
 Gradient too large for Newton-Raphson -- use scaled steepest descent instead.
     Minimum is close to point  3 DX=  7.27D-03 DF= -5.21D-07 DXR=  2.37D-02 DFR=  5.60D-04 which will be used.
 Gradient too large for Newton-Raphson -- use scaled steepest descent instead.
     Accept linear search using points  3 and  4.
     Minimum is close to point  4 DX= -8.08D-02 DF= -1.44D-06 DXR=  2.43D-02 DFR=  1.12D-03 which will be used.
 Gradient too large for Newton-Raphson -- use scaled steepest descent instead.
     Minimum is close to point  3 DX= -5.96D-03 DF= -6.16D-07 DXR=  2.03D-02 DFR=  4.11D-04 which will be used.
 Gradient too large for Newton-Raphson -- use scaled steepest descent instead.
     Accept linear search using points  1 and  2.
 Gradient too large for Newton-Raphson -- use scaled steepest descent instead.
     Minimum is close to point  3 DX= -4.49D-03 DF= -3.73D-07 DXR=  1.52D-02 DFR=  2.30D-04 which will be used.
 Gradient too large for Newton-Raphson -- use scaled steepest descent instead.
     Accept linear search using points  1 and  2.
 Gradient too large for Newton-Raphson -- use scaled steepest descent instead.
     Minimum is close to point  3 DX=  8.94D-03 DF= -1.08D-06 DXR=  2.89D-02 DFR=  8.38D-04 which will be used.
 Gradient too large for Newton-Raphson -- use scaled steepest descent instead.
     Minimum is close to point  3 DX=  9.72D-02 DF= -2.49D-06 DXR=  5.41D-02 DFR=  2.95D-03 which will be used.
 Gradient too large for Newton-Raphson -- use scaled steepest descent instead.
     Accept linear search using points  1 and  2.
 Gradient too large for Newton-Raphson -- use scaled steepest descent instead.
 Gradient too large for Newton-Raphson -- use scaled steepest descent instead.
     Accept linear search using points  1 and  2.
 Gradient too large for Newton-Raphson -- use scaled steepest descent instead.
     Accept linear search using points  3 and  4.
     Minimum is close to point  4 DX= -5.64D-02 DF= -7.11D-07 DXR=  2.51D-02 DFR=  8.26D-04 which will be used.
 Gradient too large for Newton-Raphson -- use scaled steepest descent instead.
     Minimum is close to point  3 DX=  6.40D-03 DF= -3.87D-07 DXR=  2.09D-02 DFR=  4.37D-04 which will be used.
 LinEq1:  Iter=  0 NonCon=     1 RMS=1.33D-04 Max=1.07D-02 NDo=     1
 LinEq1:  Iter=  1 NonCon=     1 RMS=1.15D-04 Max=3.49D-03 NDo=     1
 LinEq1:  Iter=  2 NonCon=     1 RMS=3.99D-05 Max=1.67D-03 NDo=     1
 LinEq1:  Iter=  3 NonCon=     1 RMS=3.32D-05 Max=1.59D-03 NDo=     1
 LinEq1:  Iter=  4 NonCon=     1 RMS=1.66D-05 Max=3.95D-04 NDo=     1
 LinEq1:  Iter=  5 NonCon=     1 RMS=1.06D-05 Max=3.85D-04 NDo=     1
 LinEq1:  Iter=  6 NonCon=     1 RMS=9.95D-06 Max=2.83D-04 NDo=     1
 LinEq1:  Iter=  7 NonCon=     1 RMS=9.90D-06 Max=3.31D-04 NDo=     1
 LinEq1:  Iter=  8 NonCon=     1 RMS=8.92D-06 Max=2.81D-04 NDo=     1
 LinEq1:  Iter=  9 NonCon=     1 RMS=5.75D-06 Max=1.82D-04 NDo=     1
 LinEq1:  Iter= 10 NonCon=     1 RMS=5.31D-06 Max=1.53D-04 NDo=     1
 LinEq1:  Iter= 11 NonCon=     1 RMS=5.30D-06 Max=1.81D-04 NDo=     1
 LinEq1:  Iter= 12 NonCon=     1 RMS=3.74D-06 Max=1.06D-04 NDo=     1
 LinEq1:  Iter= 13 NonCon=     1 RMS=3.58D-06 Max=1.32D-04 NDo=     1
 LinEq1:  Iter= 14 NonCon=     1 RMS=2.73D-06 Max=5.98D-05 NDo=     1
 LinEq1:  Iter= 15 NonCon=     1 RMS=2.10D-06 Max=5.78D-05 NDo=     1
 LinEq1:  Iter= 16 NonCon=     1 RMS=2.08D-06 Max=4.90D-05 NDo=     1
 LinEq1:  Iter= 17 NonCon=     1 RMS=1.67D-06 Max=4.23D-05 NDo=     1
 LinEq1:  Iter= 18 NonCon=     1 RMS=1.55D-06 Max=3.50D-05 NDo=     1
 LinEq1:  Iter= 19 NonCon=     1 RMS=1.16D-06 Max=2.29D-05 NDo=     1
 LinEq1:  Iter= 20 NonCon=     1 RMS=1.13D-06 Max=2.45D-05 NDo=     1
 LinEq1:  Iter= 21 NonCon=     1 RMS=8.22D-07 Max=2.05D-05 NDo=     1
 LinEq1:  Iter= 22 NonCon=     1 RMS=7.55D-07 Max=1.64D-05 NDo=     1
 LinEq1:  Iter= 23 NonCon=     1 RMS=5.37D-07 Max=1.32D-05 NDo=     1
 LinEq1:  Iter= 24 NonCon=     1 RMS=4.14D-07 Max=1.22D-05 NDo=     1
 LinEq1:  Iter= 25 NonCon=     1 RMS=2.67D-07 Max=7.62D-06 NDo=     1
 LinEq1:  Iter= 26 NonCon=     1 RMS=1.50D-07 Max=3.19D-06 NDo=     1
 LinEq1:  Iter= 27 NonCon=     1 RMS=9.52D-08 Max=1.92D-06 NDo=     1
 LinEq1:  Iter= 28 NonCon=     1 RMS=6.85D-08 Max=1.47D-06 NDo=     1
 LinEq1:  Iter= 29 NonCon=     1 RMS=4.78D-08 Max=1.13D-06 NDo=     1
 LinEq1:  Iter= 30 NonCon=     1 RMS=2.61D-08 Max=5.54D-07 NDo=     1
 LinEq1:  Iter= 31 NonCon=     1 RMS=2.03D-08 Max=5.76D-07 NDo=     1
 LinEq1:  Iter= 32 NonCon=     1 RMS=1.28D-08 Max=3.03D-07 NDo=     1
 LinEq1:  Iter= 33 NonCon=     0 RMS=7.69D-09 Max=1.46D-07 NDo=     1
 Linear equations converged to 2.982D-08 2.982D-07 after    33 iterations.
 LinEq1:  Iter=  0 NonCon=     1 RMS=1.27D-04 Max=9.91D-03 NDo=     1
 LinEq1:  Iter=  1 NonCon=     1 RMS=1.10D-04 Max=3.37D-03 NDo=     1
 LinEq1:  Iter=  2 NonCon=     1 RMS=6.93D-05 Max=1.20D-03 NDo=     1
 LinEq1:  Iter=  3 NonCon=     1 RMS=5.32D-05 Max=1.78D-03 NDo=     1
 LinEq1:  Iter=  4 NonCon=     1 RMS=3.67D-05 Max=1.40D-03 NDo=     1
 LinEq1:  Iter=  5 NonCon=     1 RMS=3.13D-05 Max=9.06D-04 NDo=     1
 LinEq1:  Iter=  6 NonCon=     1 RMS=3.21D-05 Max=1.14D-03 NDo=     1
 LinEq1:  Iter=  7 NonCon=     1 RMS=3.03D-05 Max=1.23D-03 NDo=     1
 LinEq1:  Iter=  8 NonCon=     1 RMS=2.37D-05 Max=7.37D-04 NDo=     1
 LinEq1:  Iter=  9 NonCon=     1 RMS=1.49D-05 Max=4.71D-04 NDo=     1
 LinEq1:  Iter= 10 NonCon=     1 RMS=1.22D-05 Max=3.42D-04 NDo=     1
 LinEq1:  Iter= 11 NonCon=     1 RMS=1.01D-05 Max=2.79D-04 NDo=     1
 LinEq1:  Iter= 12 NonCon=     1 RMS=9.34D-06 Max=2.13D-04 NDo=     1
 LinEq1:  Iter= 13 NonCon=     1 RMS=8.19D-06 Max=2.93D-04 NDo=     1
 LinEq1:  Iter= 14 NonCon=     1 RMS=6.80D-06 Max=1.60D-04 NDo=     1
 LinEq1:  Iter= 15 NonCon=     1 RMS=6.20D-06 Max=1.58D-04 NDo=     1
 LinEq1:  Iter= 16 NonCon=     1 RMS=4.56D-06 Max=1.10D-04 NDo=     1
 LinEq1:  Iter= 17 NonCon=     1 RMS=2.78D-06 Max=8.80D-05 NDo=     1
 LinEq1:  Iter= 18 NonCon=     1 RMS=2.75D-06 Max=7.33D-05 NDo=     1
 LinEq1:  Iter= 19 NonCon=     1 RMS=2.40D-06 Max=6.17D-05 NDo=     1
 LinEq1:  Iter= 20 NonCon=     1 RMS=2.32D-06 Max=4.97D-05 NDo=     1
 LinEq1:  Iter= 21 NonCon=     1 RMS=1.43D-06 Max=2.77D-05 NDo=     1
 LinEq1:  Iter= 22 NonCon=     1 RMS=1.58D-06 Max=3.73D-05 NDo=     1
 LinEq1:  Iter= 23 NonCon=     1 RMS=1.13D-06 Max=2.67D-05 NDo=     1
 LinEq1:  Iter= 24 NonCon=     1 RMS=1.07D-06 Max=2.85D-05 NDo=     1
 LinEq1:  Iter= 25 NonCon=     1 RMS=7.55D-07 Max=2.09D-05 NDo=     1
 LinEq1:  Iter= 26 NonCon=     1 RMS=6.30D-07 Max=1.28D-05 NDo=     1
 LinEq1:  Iter= 27 NonCon=     1 RMS=3.88D-07 Max=1.09D-05 NDo=     1
 LinEq1:  Iter= 28 NonCon=     1 RMS=2.01D-07 Max=5.53D-06 NDo=     1
 LinEq1:  Iter= 29 NonCon=     1 RMS=1.45D-07 Max=3.42D-06 NDo=     1
 LinEq1:  Iter= 30 NonCon=     1 RMS=9.06D-08 Max=2.27D-06 NDo=     1
 LinEq1:  Iter= 31 NonCon=     1 RMS=5.83D-08 Max=1.46D-06 NDo=     1
 LinEq1:  Iter= 32 NonCon=     1 RMS=3.06D-08 Max=6.38D-07 NDo=     1
 LinEq1:  Iter= 33 NonCon=     1 RMS=1.70D-08 Max=3.74D-07 NDo=     1
 LinEq1:  Iter= 34 NonCon=     0 RMS=1.13D-08 Max=2.30D-07 NDo=     1
 Linear equations converged to 2.982D-08 2.982D-07 after    34 iterations.
 Gradient too large for Newton-Raphson -- use scaled steepest descent instead.
 Gradient too large for Newton-Raphson -- use scaled steepest descent instead.
     Minimum is close to point  3 DX= -2.19D-02 DF= -1.82D-06 DXR=  5.81D-02 DFR=  3.38D-03 which will be used.
 Gradient too large for Newton-Raphson -- use scaled steepest descent instead.
     Accept linear search using points  1 and  2.
 Gradient too large for Newton-Raphson -- use scaled steepest descent instead.
     Minimum is close to point  2 DX=  1.26D-02 DF= -1.56D-07 DXR=  2.46D-02 DFR=  6.05D-04 which will be used.
 Gradient too large for Newton-Raphson -- use scaled steepest descent instead.
     Minimum is close to point  2 DX=  9.98D-03 DF= -6.93D-08 DXR=  1.64D-02 DFR=  2.68D-04 which will be used.
 Gradient too large for Newton-Raphson -- use scaled steepest descent instead.
     Accept linear search using points  1 and  2.
 LinEq1:  Iter=  0 NonCon=     1 RMS=1.19D-04 Max=6.79D-03 NDo=     1
 LinEq1:  Iter=  1 NonCon=     1 RMS=1.59D-04 Max=6.25D-03 NDo=     1
 LinEq1:  Iter=  2 NonCon=     1 RMS=2.39D-05 Max=1.24D-03 NDo=     1
 LinEq1:  Iter=  3 NonCon=     1 RMS=1.62D-05 Max=6.25D-04 NDo=     1
 LinEq1:  Iter=  4 NonCon=     1 RMS=8.77D-06 Max=3.88D-04 NDo=     1
 LinEq1:  Iter=  5 NonCon=     1 RMS=5.20D-06 Max=1.48D-04 NDo=     1
 LinEq1:  Iter=  6 NonCon=     1 RMS=4.69D-06 Max=1.63D-04 NDo=     1
 LinEq1:  Iter=  7 NonCon=     1 RMS=3.89D-06 Max=1.32D-04 NDo=     1
 LinEq1:  Iter=  8 NonCon=     1 RMS=3.53D-06 Max=9.29D-05 NDo=     1
 LinEq1:  Iter=  9 NonCon=     1 RMS=3.11D-06 Max=8.36D-05 NDo=     1
 LinEq1:  Iter= 10 NonCon=     1 RMS=2.59D-06 Max=9.16D-05 NDo=     1
 LinEq1:  Iter= 11 NonCon=     1 RMS=2.30D-06 Max=5.26D-05 NDo=     1
 LinEq1:  Iter= 12 NonCon=     1 RMS=1.86D-06 Max=6.00D-05 NDo=     1
 LinEq1:  Iter= 13 NonCon=     1 RMS=1.67D-06 Max=5.21D-05 NDo=     1
 LinEq1:  Iter= 14 NonCon=     1 RMS=1.25D-06 Max=3.45D-05 NDo=     1
 LinEq1:  Iter= 15 NonCon=     1 RMS=1.04D-06 Max=2.54D-05 NDo=     1
 LinEq1:  Iter= 16 NonCon=     1 RMS=7.45D-07 Max=1.73D-05 NDo=     1
 LinEq1:  Iter= 17 NonCon=     1 RMS=7.88D-07 Max=1.73D-05 NDo=     1
 LinEq1:  Iter= 18 NonCon=     1 RMS=5.68D-07 Max=1.11D-05 NDo=     1
 LinEq1:  Iter= 19 NonCon=     1 RMS=4.72D-07 Max=1.04D-05 NDo=     1
 LinEq1:  Iter= 20 NonCon=     1 RMS=4.57D-07 Max=1.20D-05 NDo=     1
 LinEq1:  Iter= 21 NonCon=     1 RMS=2.76D-07 Max=6.28D-06 NDo=     1
 LinEq1:  Iter= 22 NonCon=     1 RMS=2.22D-07 Max=4.63D-06 NDo=     1
 LinEq1:  Iter= 23 NonCon=     1 RMS=1.37D-07 Max=3.07D-06 NDo=     1
 LinEq1:  Iter= 24 NonCon=     1 RMS=8.33D-08 Max=1.83D-06 NDo=     1
 LinEq1:  Iter= 25 NonCon=     1 RMS=6.32D-08 Max=1.55D-06 NDo=     1
 LinEq1:  Iter= 26 NonCon=     1 RMS=3.56D-08 Max=9.24D-07 NDo=     1
 LinEq1:  Iter= 27 NonCon=     1 RMS=2.76D-08 Max=6.95D-07 NDo=     1
 LinEq1:  Iter= 28 NonCon=     1 RMS=1.58D-08 Max=3.87D-07 NDo=     1
 LinEq1:  Iter= 29 NonCon=     0 RMS=9.12D-09 Max=2.36D-07 NDo=     1
 Linear equations converged to 2.982D-08 2.982D-07 after    29 iterations.
 LinEq1:  Iter=  0 NonCon=     1 RMS=1.12D-04 Max=7.06D-03 NDo=     1
 LinEq1:  Iter=  1 NonCon=     1 RMS=1.51D-04 Max=5.64D-03 NDo=     1
 LinEq1:  Iter=  2 NonCon=     1 RMS=5.24D-05 Max=1.43D-03 NDo=     1
 LinEq1:  Iter=  3 NonCon=     1 RMS=4.78D-05 Max=1.83D-03 NDo=     1
 LinEq1:  Iter=  4 NonCon=     1 RMS=3.76D-05 Max=1.36D-03 NDo=     1
 LinEq1:  Iter=  5 NonCon=     1 RMS=3.76D-05 Max=1.39D-03 NDo=     1
 LinEq1:  Iter=  6 NonCon=     1 RMS=3.54D-05 Max=9.61D-04 NDo=     1
 LinEq1:  Iter=  7 NonCon=     1 RMS=2.28D-05 Max=8.44D-04 NDo=     1
 LinEq1:  Iter=  8 NonCon=     1 RMS=1.89D-05 Max=5.02D-04 NDo=     1
 LinEq1:  Iter=  9 NonCon=     1 RMS=1.84D-05 Max=5.06D-04 NDo=     1
 LinEq1:  Iter= 10 NonCon=     1 RMS=1.51D-05 Max=4.20D-04 NDo=     1
 LinEq1:  Iter= 11 NonCon=     1 RMS=1.41D-05 Max=2.82D-04 NDo=     1
 LinEq1:  Iter= 12 NonCon=     1 RMS=1.13D-05 Max=2.95D-04 NDo=     1
 LinEq1:  Iter= 13 NonCon=     1 RMS=1.10D-05 Max=2.70D-04 NDo=     1
 LinEq1:  Iter= 14 NonCon=     1 RMS=6.53D-06 Max=1.63D-04 NDo=     1
 LinEq1:  Iter= 15 NonCon=     1 RMS=6.67D-06 Max=1.82D-04 NDo=     1
 LinEq1:  Iter= 16 NonCon=     1 RMS=5.15D-06 Max=1.40D-04 NDo=     1
 LinEq1:  Iter= 17 NonCon=     1 RMS=4.78D-06 Max=1.06D-04 NDo=     1
 LinEq1:  Iter= 18 NonCon=     1 RMS=3.39D-06 Max=6.42D-05 NDo=     1
 LinEq1:  Iter= 19 NonCon=     1 RMS=2.80D-06 Max=6.09D-05 NDo=     1
 LinEq1:  Iter= 20 NonCon=     1 RMS=2.59D-06 Max=5.41D-05 NDo=     1
 LinEq1:  Iter= 21 NonCon=     1 RMS=2.07D-06 Max=5.63D-05 NDo=     1
 LinEq1:  Iter= 22 NonCon=     1 RMS=1.52D-06 Max=3.89D-05 NDo=     1
 LinEq1:  Iter= 23 NonCon=     1 RMS=9.09D-07 Max=2.04D-05 NDo=     1
 LinEq1:  Iter= 24 NonCon=     1 RMS=6.55D-07 Max=1.39D-05 NDo=     1
 LinEq1:  Iter= 25 NonCon=     1 RMS=4.32D-07 Max=9.01D-06 NDo=     1
 LinEq1:  Iter= 26 NonCon=     1 RMS=3.27D-07 Max=6.62D-06 NDo=     1
 LinEq1:  Iter= 27 NonCon=     1 RMS=2.46D-07 Max=4.90D-06 NDo=     1
 LinEq1:  Iter= 28 NonCon=     1 RMS=1.58D-07 Max=4.38D-06 NDo=     1
 LinEq1:  Iter= 29 NonCon=     1 RMS=9.78D-08 Max=1.76D-06 NDo=     1
 LinEq1:  Iter= 30 NonCon=     1 RMS=5.97D-08 Max=9.49D-07 NDo=     1
 LinEq1:  Iter= 31 NonCon=     1 RMS=4.47D-08 Max=8.79D-07 NDo=     1
 LinEq1:  Iter= 32 NonCon=     1 RMS=2.02D-08 Max=4.46D-07 NDo=     1
 LinEq1:  Iter= 33 NonCon=     0 RMS=1.10D-08 Max=2.89D-07 NDo=     1
 Linear equations converged to 2.982D-08 2.982D-07 after    33 iterations.
 LinEq1:  Iter=  0 NonCon=     1 RMS=1.07D-04 Max=7.31D-03 NDo=     1
 LinEq1:  Iter=  1 NonCon=     1 RMS=1.40D-04 Max=5.80D-03 NDo=     1
 LinEq1:  Iter=  2 NonCon=     1 RMS=7.78D-05 Max=1.86D-03 NDo=     1
 LinEq1:  Iter=  3 NonCon=     1 RMS=5.86D-05 Max=2.49D-03 NDo=     1
 LinEq1:  Iter=  4 NonCon=     1 RMS=4.42D-05 Max=2.05D-03 NDo=     1
 LinEq1:  Iter=  5 NonCon=     1 RMS=4.56D-05 Max=1.88D-03 NDo=     1
 LinEq1:  Iter=  6 NonCon=     1 RMS=4.23D-05 Max=1.23D-03 NDo=     1
 LinEq1:  Iter=  7 NonCon=     1 RMS=3.29D-05 Max=1.03D-03 NDo=     1
 LinEq1:  Iter=  8 NonCon=     1 RMS=2.71D-05 Max=7.99D-04 NDo=     1
 LinEq1:  Iter=  9 NonCon=     1 RMS=2.68D-05 Max=7.22D-04 NDo=     1
 LinEq1:  Iter= 10 NonCon=     1 RMS=2.13D-05 Max=5.54D-04 NDo=     1
 LinEq1:  Iter= 11 NonCon=     1 RMS=1.78D-05 Max=4.21D-04 NDo=     1
 LinEq1:  Iter= 12 NonCon=     1 RMS=1.69D-05 Max=4.31D-04 NDo=     1
 LinEq1:  Iter= 13 NonCon=     1 RMS=1.42D-05 Max=2.72D-04 NDo=     1
 LinEq1:  Iter= 14 NonCon=     1 RMS=1.08D-05 Max=3.18D-04 NDo=     1
 LinEq1:  Iter= 15 NonCon=     1 RMS=1.07D-05 Max=2.25D-04 NDo=     1
 LinEq1:  Iter= 16 NonCon=     1 RMS=8.21D-06 Max=2.07D-04 NDo=     1
 LinEq1:  Iter= 17 NonCon=     1 RMS=7.04D-06 Max=1.66D-04 NDo=     1
 LinEq1:  Iter= 18 NonCon=     1 RMS=4.94D-06 Max=1.26D-04 NDo=     1
 LinEq1:  Iter= 19 NonCon=     1 RMS=4.85D-06 Max=9.41D-05 NDo=     1
 LinEq1:  Iter= 20 NonCon=     1 RMS=3.27D-06 Max=5.87D-05 NDo=     1
 LinEq1:  Iter= 21 NonCon=     1 RMS=2.56D-06 Max=6.00D-05 NDo=     1
 LinEq1:  Iter= 22 NonCon=     1 RMS=1.87D-06 Max=4.67D-05 NDo=     1
 LinEq1:  Iter= 23 NonCon=     1 RMS=1.30D-06 Max=2.46D-05 NDo=     1
 LinEq1:  Iter= 24 NonCon=     1 RMS=1.03D-06 Max=2.09D-05 NDo=     1
 LinEq1:  Iter= 25 NonCon=     1 RMS=5.73D-07 Max=9.49D-06 NDo=     1
 LinEq1:  Iter= 26 NonCon=     1 RMS=4.60D-07 Max=9.28D-06 NDo=     1
 LinEq1:  Iter= 27 NonCon=     1 RMS=3.30D-07 Max=7.50D-06 NDo=     1
 LinEq1:  Iter= 28 NonCon=     1 RMS=1.81D-07 Max=4.29D-06 NDo=     1
 LinEq1:  Iter= 29 NonCon=     1 RMS=1.46D-07 Max=3.90D-06 NDo=     1
 LinEq1:  Iter= 30 NonCon=     1 RMS=7.07D-08 Max=1.75D-06 NDo=     1
 LinEq1:  Iter= 31 NonCon=     1 RMS=3.63D-08 Max=9.23D-07 NDo=     1
 LinEq1:  Iter= 32 NonCon=     1 RMS=2.09D-08 Max=4.45D-07 NDo=     1
 LinEq1:  Iter= 33 NonCon=     0 RMS=1.29D-08 Max=2.67D-07 NDo=     1
 Linear equations converged to 2.982D-08 2.982D-07 after    33 iterations.
 LinEq1:  Iter=  0 NonCon=     1 RMS=1.03D-04 Max=5.80D-03 NDo=     1
 LinEq1:  Iter=  1 NonCon=     1 RMS=1.38D-04 Max=6.35D-03 NDo=     1
 LinEq1:  Iter=  2 NonCon=     1 RMS=9.91D-05 Max=2.25D-03 NDo=     1
 LinEq1:  Iter=  3 NonCon=     1 RMS=7.76D-05 Max=3.35D-03 NDo=     1
 LinEq1:  Iter=  4 NonCon=     1 RMS=5.62D-05 Max=2.57D-03 NDo=     1
 LinEq1:  Iter=  5 NonCon=     1 RMS=5.52D-05 Max=2.43D-03 NDo=     1
 LinEq1:  Iter=  6 NonCon=     1 RMS=5.49D-05 Max=2.18D-03 NDo=     1
 LinEq1:  Iter=  7 NonCon=     1 RMS=4.30D-05 Max=1.40D-03 NDo=     1
 LinEq1:  Iter=  8 NonCon=     1 RMS=3.14D-05 Max=1.04D-03 NDo=     1
 LinEq1:  Iter=  9 NonCon=     1 RMS=3.26D-05 Max=9.47D-04 NDo=     1
 LinEq1:  Iter= 10 NonCon=     1 RMS=2.60D-05 Max=6.35D-04 NDo=     1
 LinEq1:  Iter= 11 NonCon=     1 RMS=2.08D-05 Max=5.24D-04 NDo=     1
 LinEq1:  Iter= 12 NonCon=     1 RMS=2.06D-05 Max=7.24D-04 NDo=     1
 LinEq1:  Iter= 13 NonCon=     1 RMS=1.73D-05 Max=3.15D-04 NDo=     1
 LinEq1:  Iter= 14 NonCon=     1 RMS=1.31D-05 Max=3.30D-04 NDo=     1
 LinEq1:  Iter= 15 NonCon=     1 RMS=1.23D-05 Max=2.46D-04 NDo=     1
 LinEq1:  Iter= 16 NonCon=     1 RMS=9.84D-06 Max=1.77D-04 NDo=     1
 LinEq1:  Iter= 17 NonCon=     1 RMS=8.34D-06 Max=1.81D-04 NDo=     1
 LinEq1:  Iter= 18 NonCon=     1 RMS=5.85D-06 Max=1.91D-04 NDo=     1
 LinEq1:  Iter= 19 NonCon=     1 RMS=6.00D-06 Max=1.29D-04 NDo=     1
 LinEq1:  Iter= 20 NonCon=     1 RMS=3.54D-06 Max=5.07D-05 NDo=     1
 LinEq1:  Iter= 21 NonCon=     1 RMS=2.71D-06 Max=5.33D-05 NDo=     1
 LinEq1:  Iter= 22 NonCon=     1 RMS=1.97D-06 Max=4.32D-05 NDo=     1
 LinEq1:  Iter= 23 NonCon=     1 RMS=1.32D-06 Max=2.95D-05 NDo=     1
 LinEq1:  Iter= 24 NonCon=     1 RMS=1.12D-06 Max=2.76D-05 NDo=     1
 LinEq1:  Iter= 25 NonCon=     1 RMS=6.64D-07 Max=1.43D-05 NDo=     1
 LinEq1:  Iter= 26 NonCon=     1 RMS=5.28D-07 Max=1.39D-05 NDo=     1
 LinEq1:  Iter= 27 NonCon=     1 RMS=2.97D-07 Max=6.81D-06 NDo=     1
 LinEq1:  Iter= 28 NonCon=     1 RMS=1.90D-07 Max=6.66D-06 NDo=     1
 LinEq1:  Iter= 29 NonCon=     1 RMS=1.54D-07 Max=4.18D-06 NDo=     1
 LinEq1:  Iter= 30 NonCon=     1 RMS=9.97D-08 Max=2.50D-06 NDo=     1
 LinEq1:  Iter= 31 NonCon=     1 RMS=5.62D-08 Max=1.18D-06 NDo=     1
 LinEq1:  Iter= 32 NonCon=     1 RMS=2.81D-08 Max=8.38D-07 NDo=     1
 LinEq1:  Iter= 33 NonCon=     1 RMS=2.04D-08 Max=6.30D-07 NDo=     1
 LinEq1:  Iter= 34 NonCon=     1 RMS=1.27D-08 Max=3.57D-07 NDo=     1
 LinEq1:  Iter= 35 NonCon=     0 RMS=6.94D-09 Max=2.11D-07 NDo=     1
 Linear equations converged to 2.982D-08 2.982D-07 after    35 iterations.
 Incorrect curvature in search direction -- initial direction reversed.
 Gradient too large for Newton-Raphson -- use scaled steepest descent instead.
 Gradient too large for Newton-Raphson -- use scaled steepest descent instead.
     Accept linear search using points  1 and  2.
 LinEq1:  Iter=  0 NonCon=     1 RMS=1.17D-04 Max=6.50D-03 NDo=     1
 LinEq1:  Iter=  1 NonCon=     1 RMS=8.95D-05 Max=4.53D-03 NDo=     1
 LinEq1:  Iter=  2 NonCon=     1 RMS=7.66D-05 Max=4.24D-03 NDo=     1
 LinEq1:  Iter=  3 NonCon=     1 RMS=5.39D-05 Max=1.88D-03 NDo=     1
 LinEq1:  Iter=  4 NonCon=     1 RMS=3.81D-05 Max=2.00D-03 NDo=     1
 LinEq1:  Iter=  5 NonCon=     1 RMS=3.12D-05 Max=9.79D-04 NDo=     1
 LinEq1:  Iter=  6 NonCon=     1 RMS=2.82D-05 Max=1.15D-03 NDo=     1
 LinEq1:  Iter=  7 NonCon=     1 RMS=2.15D-05 Max=5.60D-04 NDo=     1
 LinEq1:  Iter=  8 NonCon=     1 RMS=1.37D-05 Max=4.41D-04 NDo=     1
 LinEq1:  Iter=  9 NonCon=     1 RMS=1.08D-05 Max=3.35D-04 NDo=     1
 LinEq1:  Iter= 10 NonCon=     1 RMS=1.08D-05 Max=3.32D-04 NDo=     1
 LinEq1:  Iter= 11 NonCon=     1 RMS=9.04D-06 Max=2.41D-04 NDo=     1
 LinEq1:  Iter= 12 NonCon=     1 RMS=8.33D-06 Max=1.90D-04 NDo=     1
 LinEq1:  Iter= 13 NonCon=     1 RMS=7.55D-06 Max=1.92D-04 NDo=     1
 LinEq1:  Iter= 14 NonCon=     1 RMS=6.08D-06 Max=1.60D-04 NDo=     1
 LinEq1:  Iter= 15 NonCon=     1 RMS=4.78D-06 Max=2.06D-04 NDo=     1
 LinEq1:  Iter= 16 NonCon=     1 RMS=3.11D-06 Max=1.10D-04 NDo=     1
 LinEq1:  Iter= 17 NonCon=     1 RMS=2.86D-06 Max=1.03D-04 NDo=     1
 LinEq1:  Iter= 18 NonCon=     1 RMS=2.47D-06 Max=1.02D-04 NDo=     1
 LinEq1:  Iter= 19 NonCon=     1 RMS=1.70D-06 Max=5.66D-05 NDo=     1
 LinEq1:  Iter= 20 NonCon=     1 RMS=1.43D-06 Max=4.27D-05 NDo=     1
 LinEq1:  Iter= 21 NonCon=     1 RMS=8.48D-07 Max=2.21D-05 NDo=     1
 LinEq1:  Iter= 22 NonCon=     1 RMS=6.64D-07 Max=1.61D-05 NDo=     1
 LinEq1:  Iter= 23 NonCon=     1 RMS=5.19D-07 Max=1.16D-05 NDo=     1
 LinEq1:  Iter= 24 NonCon=     1 RMS=3.58D-07 Max=1.12D-05 NDo=     1
 LinEq1:  Iter= 25 NonCon=     1 RMS=3.76D-07 Max=1.12D-05 NDo=     1
 LinEq1:  Iter= 26 NonCon=     1 RMS=3.23D-07 Max=8.48D-06 NDo=     1
 LinEq1:  Iter= 27 NonCon=     1 RMS=2.62D-07 Max=7.85D-06 NDo=     1
 LinEq1:  Iter= 28 NonCon=     1 RMS=1.57D-07 Max=4.22D-06 NDo=     1
 LinEq1:  Iter= 29 NonCon=     1 RMS=1.24D-07 Max=4.06D-06 NDo=     1
 LinEq1:  Iter= 30 NonCon=     1 RMS=6.90D-08 Max=2.33D-06 NDo=     1
 LinEq1:  Iter= 31 NonCon=     1 RMS=3.78D-08 Max=1.36D-06 NDo=     1
 LinEq1:  Iter= 32 NonCon=     1 RMS=2.28D-08 Max=8.63D-07 NDo=     1
 LinEq1:  Iter= 33 NonCon=     1 RMS=1.26D-08 Max=4.90D-07 NDo=     1
 LinEq1:  Iter= 34 NonCon=     1 RMS=9.45D-09 Max=3.18D-07 NDo=     1
 LinEq1:  Iter= 35 NonCon=     0 RMS=4.93D-09 Max=1.43D-07 NDo=     1
 Linear equations converged to 2.982D-08 2.982D-07 after    35 iterations.
 Incorrect curvature in search direction -- initial direction reversed.
 Gradient too large for Newton-Raphson -- use scaled steepest descent instead.
 Gradient too large for Newton-Raphson -- use scaled steepest descent instead.
     Accept linear search using points  1 and  2.
 Gradient too large for Newton-Raphson -- use scaled steepest descent instead.
 Gradient too large for Newton-Raphson -- use scaled steepest descent instead.
 Gradient too large for Newton-Raphson -- use scaled steepest descent instead.
     Accept linear search using points  2 and  3.
 Gradient too large for Newton-Raphson -- use scaled steepest descent instead.
     Accept linear search using points  1 and  2.
 Gradient too large for Newton-Raphson -- use scaled steepest descent instead.
     Accept linear search using points  2 and  3.
 Gradient too large for Newton-Raphson -- use scaled steepest descent instead.
     Accept linear search using points  1 and  2.
 Gradient too large for Newton-Raphson -- use scaled steepest descent instead.
 Gradient too large for Newton-Raphson -- use scaled steepest descent instead.
     Minimum is close to point  3 DX=  6.92D-03 DF= -1.08D-06 DXR=  2.25D-02 DFR=  5.09D-04 which will be used.
 Gradient too large for Newton-Raphson -- use scaled steepest descent instead.
     Minimum is close to point  4 DX=  3.51D-01 DF= -3.04D-05 DXR=  8.46D-02 DFR=  7.95D-03 which will be used.
 Gradient too large for Newton-Raphson -- use scaled steepest descent instead.
     Minimum is close to point  3 DX=  4.18D-03 DF= -7.42D-07 DXR=  1.38D-02 DFR=  1.89D-04 which will be used.
 Gradient too large for Newton-Raphson -- use scaled steepest descent instead.
     Accept linear search using points  3 and  4.
 Gradient too large for Newton-Raphson -- use scaled steepest descent instead.
[...]
 0.,0.,0.,0.,0.,0.,0.,0.,0.,0.,0.,0.,0.,0.,0.,0.,0.,0.,0.,0.,0.,0.,0.,0
 .,0.,0.,0.,0.,0.,0.,0.,0.,0.,0.,0.,0.,0.,0.,0.,0.,0.,0.,0.,0.,0.,0.,0.
 ,0.,0.,0.,0.,0.,0.,0.,0.,0.,0.,0.,0.,0.,0.,0.,0.,0.,0.,0.,0.,0.,0.,0.,
 0.,0.,0.,0.,0.,0.,0.,0.,0.,0.,0.,0.,0.,0.,0.,0.,0.,0.,0.,0.,0.,0.,0.,0
 .,0.,0.,0.,0.,0.,0.,0.,0.,0.,0.,0.,0.,0.,0.,0.,0.,0.,0.,0.,0.,0.,0.,0.
 ,0.,0.,0.,0.,0.,0.,0.,0.,0.,0.,0.,0.,0.,0.,0.,0.,0.,0.,0.,0.,0.,0.,0.,
 0.,0.,0.,0.,0.,0.,0.,0.,0.,0.,0.,0.,0.,0.,0.,0.,0.,0.,0.,0.,0.,0.,0.,0
 .,0.,0.,0.,0.,0.,0.,0.,0.,0.,0.,0.,0.,0.,0.,0.,0.,0.,0.,0.,0.,0.,0.,0.
 ,0.,0.,0.,0.,0.,0.,0.,0.,0.,0.,0.,0.,0.,0.,0.,0.,0.,0.,0.,0.,0.,0.,0.,
 0.,0.,0.,0.,0.,0.,0.,0.,0.,0.,0.,0.,0.,0.,0.,0.,0.,0.,0.,0.,0.,0.,0.,0
 .,0.,0.,0.,0.,0.,0.,0.,0.,0.,0.,0.,0.,0.,0.,0.,0.,0.,0.,0.,0.,0.,0.,0.
 ,0.,0.,0.,0.,0.,0.,0.,0.,0.,0.,0.,0.,0.,0.,0.,0.,0.,0.,0.,0.,0.,0.,0.,
 0.,0.,0.,0.,0.,0.,0.,0.,0.,0.,0.,0.,0.,0.,0.,0.,0.,0.,0.,0.,0.,0.,0.,0
 .,0.,0.,0.,0.,0.,0.,0.,0.,0.,0.,0.,0.,0.,0.,0.,0.,0.,0.,0.,0.,0.,0.,0.
 ,0.,0.,0.,0.,0.,0.,0.,0.,0.,0.,0.,0.,0.,0.,0.,0.,0.,0.,0.,0.,0.,0.,0.,
 0.,0.,0.,0.,0.,0.,0.,0.,0.,0.,0.,0.,0.,0.,0.,0.,0.,0.,0.,0.,0.,0.,0.,0
 .,0.,0.,0.,0.,0.,0.,0.,0.,0.,0.,0.,0.,0.,0.,0.,0.,0.,0.,0.,0.,0.,0.,0.
 ,0.,0.,0.,0.,0.,0.,0.,0.,0.,0.,0.,0.,0.,0.,0.,0.,0.,0.,0.,0.,0.,0.,0.,
 0.,0.,0.,0.,0.,0.,0.,0.,0.,0.,0.,0.,0.,0.,0.,0.,0.,0.,0.,0.,0.,0.,0.,0
 .,0.,0.,0.,0.,0.,0.,0.,0.,0.,0.,0.,0.,0.,0.,0.,0.,0.,0.,0.,0.,0.,0.,0.
 ,0.,0.,0.,0.,0.,0.,0.,0.,0.,0.,0.,0.,0.,0.,0.,0.,0.,0.,0.,0.,0.,0.,0.,
 0.,0.,0.,0.,0.,0.,0.,0.,0.,0.,0.,0.,0.,0.,0.,0.,0.,0.,0.,0.,0.,0.,0.,0
 .,0.,0.,0.,0.,0.,0.,0.,0.,0.,0.,0.,0.,0.,0.,0.,0.,0.,0.,0.,0.,0.,0.,0.
 ,0.,0.,0.,0.,0.,0.,0.,0.,0.,0.,0.,0.,0.,0.,0.,0.,0.,0.,0.,0.,0.,0.,0.,
 0.,0.,0.,0.,0.,0.,0.,0.,0.,0.,0.,0.,0.,0.,0.,0.,0.,0.,0.,0.,0.,0.,0.,0
 .,0.,0.,0.,0.,0.,0.,0.,0.,0.,0.,0.,0.,0.,0.,0.,0.,0.,0.,0.,0.,0.,0.,0.
 ,0.,0.,0.,0.,0.,0.,0.,0.,0.,0.,0.,0.,0.,0.,0.,0.,0.,0.,0.,0.,0.,0.,0.,
 0.,0.,0.,0.,0.,0.,0.,0.,0.,0.,0.,0.,0.,0.,0.,0.,0.,0.,0.,0.,0.,0.,0.,0
 .,0.,0.,0.,0.,0.,0.,0.,0.,0.,0.,0.,0.,0.,0.,0.,0.,0.,0.,0.,0.,0.,0.,0.
 ,0.,0.,0.,0.,0.,0.,0.,0.,0.,0.,0.,0.,0.,0.,0.,0.,0.,0.,0.,0.,0.,0.,0.,
 0.,0.,0.,0.,0.,0.,0.,0.,0.,0.,0.,0.,0.,0.,0.,0.,0.,0.,0.,0.,0.,0.,0.,0
 .,0.,0.,0.,0.,0.,0.,0.,0.,0.,0.,0.,0.,0.,0.,0.,0.,0.,0.,0.,0.,0.,0.,0.
 ,0.,0.,0.,0.,0.,0.,0.,0.,0.,0.,0.,0.,0.,0.,0.,0.,0.,0.,0.,0.,0.,0.,0.,
 0.,0.,0.,0.,0.,0.,0.,0.,0.,0.,0.,0.,0.,0.,0.,0.,0.,0.,0.,0.,0.,0.,0.,0
 .,0.,0.,0.,0.,0.,0.,0.,0.,0.,0.,0.,0.,0.,0.,0.,0.,0.,0.,0.,0.,0.,0.,0.
 ,0.,0.,0.,0.,0.,0.,0.,0.,0.,0.,0.,0.,0.,0.,0.,0.,0.,0.,0.,0.,0.,0.,0.,
 0.,0.,0.,0.,0.,0.,0.,0.,0.,0.,0.,0.,0.,0.,0.,0.,0.,0.,0.,0.,0.,0.,0.,0
 .,0.,0.,0.,0.,0.,0.,0.,0.,0.,0.,0.,0.,0.,0.,0.,0.,0.,0.,0.,0.,0.,0.,0.
 ,0.,0.,0.,0.,0.,0.,0.,0.,0.,0.,0.,0.,0.,0.,0.,0.,0.,0.,0.,0.,0.,0.,0.,
 0.,0.,0.,0.,0.,0.,0.,0.,0.,0.,0.,0.,0.,0.,0.,0.,0.,0.,0.,0.,0.,0.,0.,0
 .,0.,0.,0.,0.,0.,0.,0.,0.,0.,0.,0.,0.,0.,0.,0.,0.,0.,0.,0.,0.,0.,0.,0.
 ,0.,0.,0.,0.,0.,0.,0.,0.,0.,0.,0.,0.,0.,0.,0.,0.,0.,0.,0.,0.,0.,0.,0.,
 0.,0.,0.,0.,0.,0.,0.,0.,0.,0.,0.,0.,0.,0.,0.,0.,0.,0.,0.,0.,0.,0.,0.,0
 .,0.,0.,0.,0.,0.,0.,0.,0.,0.,0.,0.,0.,0.,0.,0.,0.,0.,0.,0.,0.,0.,0.,0.
 ,0.,0.,0.,0.,0.,0.,0.,0.,0.,0.,0.,0.,0.,0.,0.,0.,0.,0.,0.,0.,0.,0.,0.,
 0.,0.,0.,0.,0.,0.,0.,0.,0.,0.,0.,0.,0.,0.,0.,0.,0.,0.,0.,0.,0.,0.,0.,0
 .,0.,0.,0.,0.,0.,0.,0.,0.,0.,0.,0.,0.,0.,0.,0.,0.,0.,0.,0.,0.,0.,0.,0.
 ,0.,0.,0.,0.,0.,0.,0.,0.,0.,0.,0.,0.,0.,0.,0.,0.,0.,0.,0.,0.,0.,0.,0.,
 0.,0.,0.,0.,0.,0.,0.,0.,0.,0.,0.,0.,0.,0.,0.,0.,0.,0.,0.,0.,0.,0.,0.,0
 .,0.,0.,0.,0.,0.,0.,0.,0.,0.,0.,0.,0.,0.,0.,0.,0.,0.,0.,0.,0.,0.,0.,0.
 ,0.,0.,0.,0.,0.,0.,0.,0.,0.,0.,0.,0.,0.,0.,0.,0.,0.,0.,0.,0.,0.,0.,0.,
 0.,0.,0.,0.,0.,0.,0.,0.,0.,0.,0.,0.,0.,0.,0.,0.,0.,0.,0.,0.,0.,0.,0.,0
 .,0.,0.,0.,0.,0.,0.,0.,0.,0.,0.,0.,0.,0.,0.,0.,0.,0.,0.,0.,0.,0.,0.,0.
 ,0.,0.,0.,0.,0.,0.,0.,0.,0.,0.,0.,0.,0.,0.,0.,0.,0.,0.,0.,0.,0.,0.,0.,
 0.,0.,0.,0.,0.,0.,0.,0.,0.,0.,0.,0.,0.,0.,0.,0.,0.,0.,0.,0.,0.,0.,0.,0
 .,0.,0.,0.,0.,0.,0.,0.,0.,0.,0.,0.,0.,0.,0.,0.,0.,0.,0.,0.,0.,0.,0.,0.
 ,0.,0.,0.,0.,0.,0.,0.,0.,0.,0.,0.,0.,0.,0.,0.,0.,0.,0.,0.,0.,0.,0.,0.,
 0.,0.,0.,0.,0.,0.,0.,0.,0.,0.,0.,0.,0.,0.,0.,0.,0.,0.,0.,0.,0.,0.,0.,0
 .,0.,0.,0.,0.,0.,0.,0.,0.,0.,0.,0.,0.,0.,0.,0.,0.,0.,0.,0.,0.,0.,0.,0.
 ,0.,0.,0.,0.,0.,0.,0.,0.,0.,0.,0.,0.,0.,0.,0.,0.,0.,0.,0.,0.,0.,0.,0.,
 0.,0.,0.,0.,0.,0.,0.,0.,0.,0.,0.,0.,0.,0.,0.,0.,0.,0.,0.,0.,0.,0.,0.,0
 .,0.,0.,0.,0.,0.,0.,0.,0.,0.,0.,0.,0.,0.,0.,0.,0.,0.,0.,0.,0.,0.,0.,0.
 ,0.,0.,0.,0.,0.,0.,0.,0.,0.,0.,0.,0.,0.,0.,0.,0.,0.,0.,0.,0.,0.,0.,0.,
 0.,0.,0.,0.,0.,0.,0.,0.,0.,0.,0.,0.,0.,0.,0.,0.,0.,0.,0.,0.,0.,0.,0.,0
 .,0.,0.,0.,0.,0.,0.,0.,0.,0.,0.,0.,0.,0.,0.,0.,0.,0.,0.,0.,0.,0.,0.,0.
 ,0.,0.,0.,0.,0.,0.,0.,0.,0.,0.,0.,0.,0.,0.,0.,0.,0.,0.,0.,0.,0.,0.,0.,
 0.,0.,0.,0.,0.,0.,0.,0.,0.,0.,0.,0.,0.,0.,0.,0.,0.,0.,0.,0.,0.,0.,0.,0
 .,0.,0.,0.,0.,0.,0.,0.,0.,0.,0.,0.,0.,0.,0.,0.,0.,0.,0.,0.,0.,0.,0.,0.
 ,0.,0.,0.,0.,0.,0.,0.,0.,0.,0.,0.,0.,0.,0.,0.,0.,0.,0.,0.,0.,0.,0.,0.,
 0.,0.,0.,0.,0.,0.,0.,0.,0.,0.,0.,0.,0.,0.,0.,0.,0.,0.,0.,0.,0.,0.,0.,0
 .,0.,0.,0.,0.,0.,0.,0.,0.,0.,0.,0.,0.,0.,0.,0.,0.,0.,0.,0.,0.,0.,0.,0.
 ,0.,0.,0.,0.,0.,0.,0.,0.,0.,0.,0.,0.,0.,0.,0.,0.,0.,0.,0.,0.,0.,0.,0.,
 0.,0.,0.,0.,0.,0.,0.,0.,0.,0.,0.,0.,0.,0.,0.,0.,0.,0.,0.,0.,0.,0.,0.,0
 .,0.,0.,0.,0.,0.,0.,0.,0.,0.,0.,0.,0.,0.,0.,0.,0.,0.,0.,0.,0.,0.,0.,0.
 ,0.,0.,0.,0.,0.,0.,0.,0.,0.,0.,0.,0.,0.,0.,0.,0.,0.,0.,0.,0.,0.,0.,0.,
 0.,0.,0.,0.,0.,0.,0.,0.,0.,0.,0.,0.,0.,0.,0.,0.,0.,0.,0.,0.,0.,0.,0.,0
 .,0.,0.,0.,0.,0.,0.,0.,0.,0.,0.,0.,0.,0.,0.,0.,0.,0.,0.,0.,0.,0.,0.,0.
 ,0.,0.,0.,0.,0.,0.,0.,0.,0.,0.,0.,0.,0.,0.,0.,0.,0.,0.,0.,0.,0.,0.,0.,
 0.,0.,0.,0.,0.,0.,0.,0.,0.,0.,0.,0.,0.,0.,0.,0.,0.,0.,0.,0.,0.,0.,0.,0
 .,0.,0.,0.,0.,0.,0.,0.,0.,0.,0.,0.,0.,0.,0.,0.,0.,0.,0.,0.,0.,0.,0.,0.
 ,0.,0.,0.,0.,0.,0.,0.,0.,0.,0.,0.,0.,0.,0.,0.,0.,0.,0.,0.,0.,0.,0.,0.,
 0.,0.,0.,0.,0.,0.,0.,0.,0.,0.,0.,0.,0.,0.,0.,0.,0.,0.,0.,0.,0.,0.,0.,0
 .,0.,0.,0.,0.,0.,0.,0.,0.,0.,0.,0.,0.,0.,0.,0.,0.,0.,0.,0.,0.,0.,0.,0.
 ,0.,0.,0.,0.,0.,0.,0.,0.,0.,0.,0.,0.,0.,0.,0.,0.,0.,0.,0.,0.,0.,0.,0.,
 0.,0.,0.,0.,0.,0.,0.,0.,0.,0.,0.,0.,0.,0.,0.,0.,0.,0.,0.,0.,0.,0.,0.,0
 .,0.,0.,0.,0.,0.,0.,0.,0.,0.,0.,0.,0.,0.,0.,0.,0.,0.,0.,0.,0.,0.,0.,0.
 ,0.,0.,0.,0.,0.,0.,0.,0.,0.,0.,0.,0.,0.,0.,0.,0.,0.,0.,0.,0.,0.,0.,0.,
 0.,0.,0.,0.,0.,0.,0.,0.,0.,0.,0.,0.,0.,0.,0.,0.,0.,0.,0.,0.,0.,0.,0.,0
 .,0.,0.,0.,0.,0.,0.,0.,0.,0.,0.,0.,0.,0.,0.,0.,0.,0.,0.,0.,0.,0.,0.,0.
 ,0.,0.,0.,0.,0.,0.,0.,0.,0.,0.,0.,0.,0.,0.,0.,0.,0.,0.,0.,0.,0.,0.,0.,
 0.,0.,0.,0.,0.,0.,0.,0.,0.,0.,0.,0.,0.,0.,0.,0.,0.,0.,0.,0.,0.,0.,0.,0
 .,0.,0.,0.,0.,0.,0.,0.,0.,0.,0.,0.,0.,0.,0.,0.,0.,0.,0.,0.,0.,0.,0.,0.
 ,0.,0.,0.,0.,0.,0.,0.,0.,0.,0.,0.,0.,0.,0.,0.,0.,0.,0.,0.,0.,0.,0.,0.,
 0.,0.,0.,0.,0.,0.,0.,0.,0.,0.,0.,0.,0.,0.,0.,0.,0.,0.,0.,0.,0.,0.,0.,0
 .,0.,0.,0.,0.,0.,0.,0.,0.,0.,0.,0.,0.,0.,0.,0.,0.,0.,0.,0.,0.,0.,0.,0.
 ,0.,0.,0.,0.,0.,0.,0.,0.,0.,0.,0.,0.,0.,0.,0.,0.,0.,0.,0.,0.,0.,0.,0.,
 0.,0.,0.,0.,0.,0.,0.,0.,0.,0.,0.,0.,0.,0.,0.,0.,0.,0.,0.,0.,0.,0.,0.,0
 .,0.,0.,0.,0.,0.,0.,0.,0.,0.,0.,0.,0.,0.,0.,0.,0.,0.,0.,0.,0.,0.,0.,0.
 ,0.,0.,0.,0.,0.,0.,0.,0.,0.,0.,0.,0.,0.,0.,0.,0.,0.,0.,0.,0.,0.,0.,0.,
 0.,0.,0.,0.,0.,0.,0.,0.,0.,0.,0.,0.,0.,0.,0.,0.,0.,0.,0.,0.,0.,0.,0.,0
 .,0.,0.,0.,0.,0.,0.,0.,0.,0.,0.,0.,0.,0.,0.,0.,0.,0.,0.,0.,0.,0.,0.,0.
 ,0.,0.,0.,0.,0.,0.,0.,0.,0.,0.,0.,0.,0.,0.,0.,0.,0.,0.,0.,0.,0.,0.,0.,
 0.,0.,0.,0.,0.,0.,0.,0.,0.,0.,0.,0.,0.,0.,0.,0.,0.,0.,0.,0.,0.,0.,0.,0
 .,0.,0.,0.,0.,0.,0.,0.,0.,0.,0.,0.,0.,0.,0.,0.,0.,0.,0.,0.,0.,0.,0.,0.
 ,0.,0.,0.,0.,0.,0.,0.,0.,0.,0.,0.,0.,0.,0.,0.,0.,0.,0.,0.,0.,0.,0.,0.,
 0.,0.,0.,0.,0.,0.,0.,0.,0.,0.,0.,0.,0.,0.,0.,0.,0.,0.,0.,0.,0.,0.,0.,0
 .,0.,0.,0.,0.,0.,0.,0.,0.,0.,0.,0.,0.,0.,0.,0.,0.,0.,0.,0.,0.,0.,0.,0.
 ,0.,0.,0.,0.,0.,0.,0.,0.,0.,0.,0.,0.,0.,0.,0.,0.,0.,0.,0.,0.,0.,0.,0.,
 0.,0.,0.,0.,0.,0.,0.,0.,0.,0.,0.,0.,0.,0.,0.,0.,0.,0.,0.,0.,0.,0.,0.,0
 .,0.,0.,0.,0.,0.,0.,0.,0.,0.,0.,0.,0.,0.,0.,0.,0.,0.,0.,0.,0.,0.,0.,0.
 ,0.,0.,0.,0.,0.,0.,0.,0.,0.,0.,0.,0.,0.,0.,0.,0.,0.,0.,0.,0.,0.,0.,0.,
 0.,0.,0.,0.,0.,0.,0.,0.,0.,0.,0.,0.,0.,0.,0.,0.,0.,0.,0.,0.,0.,0.,0.,0
 .,0.,0.,0.,0.,0.,0.,0.,0.,0.,0.,0.,0.,0.,0.,0.,0.,0.,0.,0.,0.,0.,0.,0.
 ,0.,0.,0.,0.,0.,0.,0.,0.,0.,0.,0.,0.,0.,0.,0.,0.,0.,0.,0.,0.,0.,0.,0.,
 0.,0.,0.,0.,0.,0.,0.,0.,0.,0.,0.,0.,0.,0.,0.,0.,0.,0.,0.,0.,0.,0.,0.,0
 .,0.,0.,0.,0.,0.,0.,0.,0.,0.,0.,0.,0.,0.,0.,0.,0.,0.,0.,0.,0.,0.,0.,0.
 ,0.,0.,0.,0.,0.,0.,0.,0.,0.,0.,0.,0.,0.,0.,0.,0.,0.,0.,0.,0.,0.,0.,0.,
 0.,0.,0.,0.,0.,0.,0.,0.,0.,0.,0.,0.,0.,0.,0.,0.,0.,0.,0.,0.,0.,0.,0.,0
 .,0.,0.,0.,0.,0.,0.,0.,0.,0.,0.,0.,0.,0.,0.,0.,0.,0.,0.,0.,0.,0.,0.,0.
 ,0.,0.,0.,0.,0.,0.,0.,0.,0.,0.,0.,0.,0.,0.,0.,0.,0.,0.,0.,0.,0.,0.,0.,
 0.,0.,0.,0.,0.,0.,0.,0.,0.,0.,0.,0.,0.,0.,0.,0.,0.,0.,0.,0.,0.,0.,0.,0
 .,0.,0.,0.,0.,0.,0.,0.,0.,0.,0.,0.,0.,0.,0.,0.,0.,0.,0.,0.,0.,0.,0.,0.
 ,0.,0.,0.,0.,0.,0.,0.,0.,0.,0.,0.,0.,0.,0.,0.,0.,0.,0.,0.,0.,0.,0.,0.,
 0.,0.,0.,0.,0.,0.,0.,0.,0.,0.,0.,0.,0.,0.,0.,0.,0.,0.,0.,0.,0.,0.,0.,0
 .,0.,0.,0.,0.,0.,0.,0.,0.,0.,0.,0.,0.,0.,0.,0.,0.,0.,0.,0.,0.,0.,0.,0.
 ,0.,0.,0.,0.,0.,0.,0.,0.,0.,0.,0.,0.,0.,0.,0.,0.,0.,0.,0.,0.,0.,0.,0.,
 0.,0.,0.,0.,0.,0.,0.,0.,0.,0.,0.,0.,0.,0.,0.,0.,0.,0.,0.,0.,0.,0.,0.,0
 .,0.,0.,0.,0.,0.,0.,0.,0.,0.,0.,0.,0.,0.,0.,0.,0.,0.,0.,0.,0.,0.,0.,0.
 ,0.,0.,0.,0.,0.,0.,0.,0.,0.,0.,0.,0.,0.,0.,0.,0.,0.,0.,0.,0.,0.,0.,0.,
 0.,0.,0.,0.,0.,0.,0.,0.,0.,0.,0.,0.,0.,0.,0.,0.,0.,0.,0.,0.,0.,0.,0.,0
 .,0.,0.,0.,0.,0.,0.,0.,0.,0.,0.,0.,0.,0.,0.,0.,0.,0.,0.,0.,0.,0.,0.,0.
 ,0.,0.,0.,0.,0.,0.,0.,0.,0.,0.,0.,0.,0.,0.,0.,0.,0.,0.,0.,0.,0.,0.,0.,
 0.,0.,0.,0.,0.,0.,0.,0.,0.,0.,0.,0.,0.,0.,0.,0.,0.,0.,0.,0.,0.,0.,0.,0
 .,0.,0.,0.,0.,0.,0.,0.,0.,0.,0.,0.,0.,0.,0.,0.,0.,0.,0.,0.,0.,0.,0.,0.
 ,0.,0.,0.,0.,0.,0.,0.,0.,0.,0.,0.,0.,0.,0.,0.,0.,0.,0.,0.,0.,0.,0.,0.,
 0.,0.,0.,0.,0.,0.,0.,0.,0.,0.,0.,0.,0.,0.,0.,0.,0.,0.,0.,0.,0.,0.,0.,0
 .,0.,0.,0.,0.,0.,0.,0.,0.,0.,0.,0.,0.,0.,0.,0.,0.,0.,0.,0.,0.,0.,0.,0.
 ,0.,0.,0.,0.,0.,0.,0.,0.,0.,0.,0.,0.,0.,0.,0.,0.,0.,0.,0.,0.,0.,0.,0.,
 0.,0.,0.,0.,0.,0.,0.,0.,0.,0.,0.,0.,0.,0.,0.,0.,0.,0.,0.,0.,0.,0.,0.,0
 .,0.,0.,0.,0.,0.,0.,0.,0.,0.,0.,0.,0.,0.,0.,0.,0.,0.,0.,0.,0.,0.,0.,0.
 ,0.,0.,0.,0.,0.,0.,0.,0.,0.,0.,0.,0.,0.,0.,0.,0.,0.,0.,0.,0.,0.,0.,0.,
 0.,0.,0.,0.,0.,0.,0.,0.,0.,0.,0.,0.,0.,0.,0.,0.,0.,0.,0.,0.,0.,0.,0.,0
 .,0.,0.,0.,0.,0.,0.,0.,0.,0.,0.,0.,0.,0.,0.,0.,0.,0.,0.,0.,0.,0.,0.,0.
 ,0.,0.,0.,0.,0.,0.,0.,0.,0.,0.,0.,0.,0.,0.,0.,0.,0.,0.,0.,0.,0.,0.,0.,
 0.,0.,0.,0.,0.,0.,0.,0.,0.,0.,0.,0.,0.,0.,0.,0.,0.,0.,0.,0.,0.,0.,0.,0
 .,0.,0.,0.,0.,0.,0.,0.,0.,0.,0.,0.,0.,0.,0.,0.,0.,0.,0.,0.,0.,0.,0.,0.
 ,0.,0.,0.,0.,0.,0.,0.,0.,0.,0.,0.,0.,0.,0.,0.,0.,0.,0.,0.,0.,0.,0.,0.,
 0.,0.,0.,0.,0.,0.,0.,0.,0.,0.,0.,0.,0.,0.,0.,0.,0.,0.,0.,0.,0.,0.,0.,0
 .,0.,0.,0.,0.,0.,0.,0.,0.,0.,0.,0.,0.,0.,0.,0.,0.,0.,0.,0.,0.,0.,0.,0.
 ,0.,0.,0.,0.,0.,0.,0.,0.,0.,0.,0.,0.,0.,0.,0.,0.,0.,0.,0.,0.,0.,0.,0.,
 0.,0.,0.,0.,0.,0.,0.,0.,0.,0.,0.,0.,0.,0.,0.,0.,0.,0.,0.,0.,0.,0.,0.,0
 .,0.,0.,0.,0.,0.,0.,0.,0.,0.,0.,0.,0.,0.,0.,0.,0.,0.,0.,0.,0.,0.,0.,0.
 ,0.,0.,0.,0.,0.,0.,0.,0.,0.,0.,0.,0.,0.,0.,0.,0.,0.,0.,0.,0.,0.,0.,0.,
 0.,0.,0.,0.,0.,0.,0.,0.,0.,0.,0.,0.,0.,0.,0.,0.,0.,0.,0.,0.,0.,0.,0.,0
 .,0.,0.,0.,0.,0.,0.,0.,0.,0.,0.,0.,0.,0.,0.,0.,0.,0.,0.,0.,0.,0.,0.,0.
 ,0.,0.,0.,0.,0.,0.,0.,0.,0.,0.,0.,0.,0.,0.,0.,0.,0.,0.,0.,0.,0.,0.,0.,
 0.,0.,0.,0.,0.,0.,0.,0.,0.,0.,0.,0.,0.,0.,0.,0.,0.,0.,0.,0.,0.,0.,0.,0
 .,0.,0.,0.,0.,0.,0.,0.,0.,0.,0.,0.,0.,0.,0.,0.,0.,0.,0.,0.,0.,0.,0.,0.
 ,0.,0.,0.,0.,0.,0.,0.,0.,0.,0.,0.,0.,0.,0.,0.,0.,0.,0.,0.,0.,0.,0.,0.,
 0.,0.,0.,0.,0.,0.,0.,0.,0.,0.,0.,0.,0.,0.,0.,0.,0.,0.,0.,0.,0.,0.,0.,0
 .,0.,0.,0.,0.,0.,0.,0.,0.,0.,0.,0.,0.,0.,0.,0.,0.,0.,0.,0.,0.,0.,0.,0.
 ,0.,0.,0.,0.,0.,0.,0.,0.,0.,0.,0.,0.,0.,0.,0.,0.,0.,0.,0.,0.,0.,0.,0.,
 0.,0.,0.,0.,0.,0.,0.,0.,0.,0.,0.,0.,0.,0.,0.,0.,0.,0.,0.,0.,0.,0.,0.,0
 .,0.,0.,0.,0.,0.,0.,0.,0.,0.,0.,0.,0.,0.,0.,0.,0.,0.,0.,0.,0.,0.,0.,0.
 ,0.,0.,0.,0.,0.,0.,0.,0.,0.,0.,0.,0.,0.,0.,0.,0.,0.,0.,0.,0.,0.,0.,0.,
 0.,0.,0.,0.,0.,0.,0.,0.,0.,0.,0.,0.,0.,0.,0.,0.,0.,0.,0.,0.,0.,0.,0.,0
 .,0.,0.,0.,0.,0.,0.,0.,0.,0.,0.,0.,0.,0.,0.,0.,0.,0.,0.,0.,0.,0.,0.,0.
 ,0.,0.,0.,0.,0.,0.,0.,0.,0.,0.,0.,0.,0.,0.,0.,0.,0.,0.,0.,0.,0.,0.,0.,
 0.,0.,0.,0.,0.,0.,0.,0.,0.,0.,0.,0.,0.,0.,0.,0.,0.,0.,0.,0.,0.,0.,0.,0
 .,0.,0.,0.,0.,0.,0.,0.,0.,0.,0.,0.,0.,0.,0.,0.,0.,0.,0.,0.,0.,0.,0.,0.
 ,0.,0.,0.,0.,0.,0.,0.,0.,0.,0.,0.,0.,0.,0.,0.,0.,0.,0.,0.,0.,0.,0.,0.,
 0.,0.,0.,0.,0.,0.,0.,0.,0.,0.,0.,0.,0.,0.,0.,0.,0.,0.,0.,0.,0.,0.,0.,0
 .,0.,0.,0.,0.,0.,0.,0.,0.,0.,0.,0.,0.,0.,0.,0.,0.,0.,0.,0.,0.,0.,0.,0.
 ,0.,0.,0.,0.,0.,0.,0.,0.,0.,0.,0.,0.,0.,0.,0.,0.,0.,0.,0.,0.,0.,0.,0.,
 0.,0.,0.,0.,0.,0.,0.,0.,0.,0.,0.,0.,0.,0.,0.,0.,0.,0.,0.,0.,0.,0.,0.,0
 .,0.,0.,0.,0.,0.,0.,0.,0.,0.,0.,0.,0.,0.,0.,0.,0.,0.,0.,0.,0.,0.,0.,0.
 ,0.,0.,0.,0.,0.,0.,0.,0.,0.,0.,0.,0.,0.,0.,0.,0.,0.,0.,0.,0.,0.,0.,0.,
 0.,0.,0.,0.,0.,0.,0.,0.,0.,0.,0.,0.,0.,0.,0.,0.,0.,0.,0.,0.,0.,0.,0.,0
 .,0.,0.,0.,0.,0.,0.,0.,0.,0.,0.,0.,0.,0.,0.,0.,0.,0.,0.,0.,0.,0.,0.,0.
 ,0.,0.,0.,0.,0.,0.,0.,0.,0.,0.,0.,0.,0.,0.,0.,0.,0.,0.,0.,0.,0.,0.,0.,
 0.,0.,0.,0.,0.,0.,0.,0.,0.,0.,0.,0.,0.,0.,0.,0.,0.,0.,0.,0.,0.,0.,0.,0
 .,0.,0.,0.,0.,0.,0.,0.,0.,0.,0.,0.,0.,0.,0.,0.,0.,0.,0.,0.,0.,0.,0.,0.
 ,0.,0.,0.,0.,0.,0.,0.,0.,0.,0.,0.,0.,0.,0.,0.,0.,0.,0.,0.,0.,0.,0.,0.,
 0.,0.,0.,0.,0.,0.,0.,0.,0.,0.,0.,0.,0.,0.,0.,0.,0.,0.,0.,0.,0.,0.,0.,0
 .,0.,0.,0.,0.,0.,0.,0.,0.,0.,0.,0.,0.,0.,0.,0.,0.,0.,0.,0.,0.,0.,0.,0.
 ,0.,0.,0.,0.,0.,0.,0.,0.,0.,0.,0.,0.,0.,0.,0.,0.,0.,0.,0.,0.,0.,0.,0.,
 0.,0.,0.,0.,0.,0.,0.,0.,0.,0.,0.,0.,0.,0.,0.,0.,0.,0.,0.,0.,0.,0.,0.,0
 .,0.,0.,0.,0.,0.,0.,0.,0.,0.,0.,0.,0.,0.,0.,0.,0.,0.,0.,0.,0.,0.,0.,0.
 ,0.,0.,0.,0.,0.,0.,0.,0.,0.,0.,0.,0.,0.,0.,0.,0.,0.,0.,0.,0.,0.,0.,0.,
 0.,0.,0.,0.,0.,0.,0.,0.,0.,0.,0.,0.,0.,0.,0.,0.,0.,0.,0.,0.,0.,0.,0.,0
 .,0.,0.,0.,0.,0.,0.,0.,0.,0.,0.,0.,0.,0.,0.,0.,0.,0.,0.,0.,0.,0.,0.,0.
 ,0.,0.,0.,0.,0.,0.,0.,0.,0.,0.,0.,0.,0.,0.,0.,0.,0.,0.,0.,0.,0.,0.,0.,
 0.,0.,0.,0.,0.,0.,0.,0.,0.,0.,0.,0.,0.,0.,0.,0.,0.,0.,0.,0.,0.,0.,0.,0
 .,0.,0.,0.,0.,0.,0.,0.,0.,0.,0.,0.,0.,0.,0.,0.,0.,0.,0.,0.,0.,0.,0.,0.
 ,0.,0.,0.,0.,0.,0.,0.,0.,0.,0.,0.,0.,0.,0.,0.,0.,0.,0.,0.,0.,0.,0.,0.,
 0.,0.,0.,0.,0.,0.,0.,0.,0.,0.,0.,0.,0.,0.,0.,0.,0.,0.,0.,0.,0.,0.,0.,0
 .,0.,0.,0.,0.,0.,0.,0.,0.,0.,0.,0.,0.,0.,0.,0.,0.,0.,0.,0.,0.,0.,0.,0.
 ,0.,0.,0.,0.,0.,0.,0.,0.,0.,0.,0.,0.,0.,0.,0.,0.,0.,0.,0.,0.,0.,0.,0.,
 0.,0.,0.,0.,0.,0.,0.,0.,0.,0.,0.,0.,0.,0.,0.,0.,0.,0.,0.,0.,0.,0.,0.,0
 .,0.,0.,0.,0.,0.,0.,0.,0.,0.,0.,0.,0.,0.,0.,0.,0.,0.,0.,0.,0.,0.,0.,0.
 ,0.,0.,0.,0.,0.,0.,0.,0.,0.,0.,0.,0.,0.,0.,0.,0.,0.,0.,0.,0.,0.,0.,0.,
 0.,0.,0.,0.,0.,0.,0.,0.,0.,0.,0.,0.,0.,0.,0.,0.,0.,0.,0.,0.,0.,0.,0.,0
 .,0.,0.,0.,0.,0.,0.,0.,0.,0.,0.,0.,0.,0.,0.,0.,0.,0.,0.,0.,0.,0.,0.,0.
 ,0.,0.,0.,0.,0.,0.,0.,0.,0.,0.,0.,0.,0.,0.,0.,0.,0.,0.,0.,0.,0.,0.,0.,
 0.,0.,0.,0.,0.,0.,0.,0.,0.,0.,0.,0.,0.,0.,0.,0.,0.,0.,0.,0.,0.,0.,0.,0
 .,0.,0.,0.,0.,0.,0.,0.,0.,0.,0.,0.,0.,0.,0.,0.,0.,0.,0.,0.,0.,0.,0.,0.
 ,0.,0.,0.,0.,0.,0.,0.,0.,0.,0.,0.,0.,0.,0.,0.,0.,0.,0.,0.,0.,0.,0.,0.,
 0.,0.,0.,0.,0.,0.,0.,0.,0.,0.,0.,0.,0.,0.,0.,0.,0.,0.,0.,0.,0.,0.,0.,0
 .,0.,0.,0.,0.,0.,0.,0.,0.72503077,0.,0.,0.,0.,0.,0.,0.,0.,0.,0.,0.,0.,
 0.,0.,0.,0.,0.,0.,0.,0.,0.,0.,0.,0.,0.,0.,0.,0.,0.,0.,0.,0.,0.,0.,0.,0
 .,0.,0.,0.,0.,0.,0.,0.,0.,0.,0.,0.,0.,0.,0.,0.,0.,0.,0.,0.,0.,0.,0.,0.
 ,0.,0.,0.,0.,0.,0.,0.,0.,0.,0.,0.,0.,0.,0.,0.,0.,0.,0.,0.,0.,0.,0.,0.,
 0.,0.,0.,0.,0.,0.,0.,0.,0.,0.,0.,0.,0.,0.,0.,0.,0.,0.,0.,0.,0.,0.,0.,0
 .,0.,0.,0.,0.,0.,0.,0.,0.,0.,0.,0.,0.,0.,0.,0.,0.,0.,0.,0.,0.,0.,0.,0.
 ,0.,0.,0.,0.,0.,0.,0.,0.,0.,0.,0.,0.,0.,0.,0.,0.00293553,0.26033796,0.
 ,0.,0.,0.,0.,0.,0.,0.,0.,0.,0.,0.,0.,0.,0.,0.,0.,0.,0.,0.,0.,0.,0.,0.,
 0.,0.,0.,0.,0.,0.,0.,0.,0.,0.,0.,0.,0.,0.,0.,0.,0.,0.,0.,0.,0.,0.,0.,0
 .,0.,0.,0.,0.,0.,0.,0.,0.,0.,0.,0.,0.,0.,0.,0.,0.,0.,0.,0.,0.,0.,0.,0.
 ,0.,0.,0.,0.,0.,0.,0.,0.,0.,0.,0.,0.,0.,0.,0.,0.,0.,0.,0.,0.,0.,0.,0.,
 0.,0.,0.,0.,0.,0.,0.,0.,0.,0.,0.,0.,0.,0.,0.,0.,0.,0.,0.,0.,0.,0.,0.,0
 .,0.,0.,0.,0.,0.,0.,0.,0.,0.,0.,0.,0.,0.,0.,0.,0.,0.,0.,0.,0.,0.,0.,0.
 ,0.,0.,0.,-0.00362452,0.04738722,-0.01560075,0.,0.,0.,0.,0.,0.,0.,0.,0
 .,0.,0.,0.,0.,0.,0.,0.,0.,0.,0.,0.,0.,0.,0.,0.,0.,0.,0.,0.,0.,0.,0.,0.
 ,0.,0.,0.,0.,0.,0.,0.,0.,0.,0.,0.,0.,0.,0.,0.,0.,0.,0.,0.,0.,0.,0.,0.,
 0.,0.,0.,0.,0.,0.,0.,0.,0.,0.,0.,0.,0.,0.,0.,0.,0.,0.,0.,0.,0.,0.,0.,0
 .,0.,0.,0.,0.,0.,0.,0.,0.,0.,0.,0.,0.,0.,0.,0.,0.,0.,0.,0.,0.,0.,0.,0.
 ,0.,0.,0.,0.,0.,0.,0.,0.,0.,0.,0.,0.,0.,0.,0.,0.,0.,0.,0.,0.,0.,0.,0.,
 0.,0.,0.,0.,0.,0.,0.,0.,0.,0.,0.,0.,0.,0.,0.,0.,0.,0.,0.,-0.04096425,-
 0.08962219,-0.00261744,0.15788212,0.,0.,0.,0.,0.,0.,0.,0.,0.,0.,0.,0.,
 0.,0.,0.,0.,0.,0.,0.,0.,0.,0.,0.,0.,0.,0.,0.,0.,0.,0.,0.,0.,0.,0.,0.,0
 .,0.,0.,0.,0.,0.,0.,0.,0.,0.,0.,0.,0.,0.,0.,0.,0.,0.,0.,0.,0.,0.,0.,0.
 ,0.,0.,0.,0.,0.,0.,0.,0.,0.,0.,0.,0.,0.,0.,0.,0.,0.,0.,0.,0.,0.,0.,0.,
 0.,0.,0.,0.,0.,0.,0.,0.,0.,0.,0.,0.,0.,0.,0.,0.,0.,0.,0.,0.,0.,0.,0.,0
 .,0.,0.,0.,0.,0.,0.,0.,0.,0.,0.,0.,0.,0.,0.,0.,0.,0.,0.,0.,0.,0.,0.,0.
 ,0.,0.,0.,0.,0.,0.,0.,0.,0.,0.,0.,0.,0.,0.,0.,-0.02299126,-0.20240337,
 -0.03850298,0.15120792,0.21850283,0.,0.,0.,0.,0.,0.,0.,0.,0.,0.,0.,0.,
 0.,0.,0.,0.,0.,0.,0.,0.,0.,0.,0.,0.,0.,0.,0.,0.,0.,0.,0.,0.,0.,0.,0.,0
 .,0.,0.,0.,0.,0.,0.,0.,0.,0.,0.,0.,0.,0.,0.,0.,0.,0.,0.,0.,0.,0.,0.,0.
 ,0.,0.,0.,0.,0.,0.,0.,0.,0.,0.,0.,0.,0.,0.,0.,0.,0.,0.,0.,0.,0.,0.,0.,
 0.,0.,0.,0.,0.,0.,0.,0.,0.,0.,0.,0.,0.,0.,0.,0.,0.,0.,0.,0.,0.,0.,0.,0
 .,0.,0.,0.,0.,0.,0.,0.,0.,0.,0.,0.,0.,0.,0.,0.,0.,0.,0.,0.,0.,0.,0.,0.
 ,0.,0.,0.,0.,0.,0.,0.,0.,0.,0.,0.,0.,0.,0.,0.,0.07966023,0.06862777,0.
 02615635,-0.02639716,-0.04203282,0.12457210,0.,0.,0.,0.,0.,0.,0.,0.,0.
 ,0.,0.,0.,0.,0.,0.,0.,0.,0.,0.,0.,0.,0.,0.,0.,0.,0.,0.,0.,0.,0.,0.,0.,
 0.,0.,0.,0.,0.,0.,0.,0.,0.,0.,0.,0.,0.,0.,0.,0.,0.,0.,0.,0.,0.,0.,0.,0
 .,0.,0.,0.,0.,0.,0.,0.,0.,0.,0.,0.,0.,0.,0.,0.,0.,0.,0.,0.,0.,0.,0.,0.
 ,0.,0.,0.,0.,0.,0.,0.,0.,0.,0.,0.,0.,0.,0.,0.,0.,0.,0.,0.,0.,0.,0.,0.,
 0.,0.,0.,0.,0.,0.,0.,0.,0.,0.,0.,0.,0.,0.,0.,0.,0.,0.,0.,0.,0.,0.,0.,0
 .,0.,0.,0.,0.,0.,0.,0.,0.,0.,0.,0.,0.,0.,0.,0.,0.,0.,0.,-0.68794652,0.
 08709260,0.03074480,-0.10420760,-0.12850755,-0.04639259,0.78348917,0.,
 0.,0.,0.,0.,0.,0.,0.,0.,0.,0.,0.,0.,0.,0.,0.,0.,0.,0.,0.,0.,0.,0.,0.,0
 .,0.,0.,0.,0.,0.,0.,0.,0.,0.,0.,0.,0.,0.,0.,0.,0.,0.,0.,0.,0.,0.,0.,0.
 ,0.,0.,0.,0.,0.,0.,0.,0.,0.,0.,0.,0.,0.,0.,0.,0.,0.,0.,0.,0.,0.,0.,0.,
 0.,0.,0.,0.,0.,0.,0.,0.,0.,0.,0.,0.,0.,0.,0.,0.,0.,0.,0.,0.,0.,0.,0.,0
 .,0.,0.,0.,0.,0.,0.,0.,0.,0.,0.,0.,0.,0.,0.,0.,0.,0.,0.,0.,0.,0.,0.,0.
 ,0.,0.,0.,0.,0.,0.,0.,0.,0.,0.,0.,0.,0.,0.,0.,0.,0.,0.,0.,0.,0.,0.,0.,
 0.,0.,0.,0.05561500,-0.02043074,-0.02085331,-0.06748610,-0.02262759,-0
 .00522578,0.02632688,0.05546154,0.,0.,0.,0.,0.,0.,0.,0.,0.,0.,0.,0.,0.
 ,0.,0.,0.,0.,0.,0.,0.,0.,0.,0.,0.,0.,0.,0.,0.,0.,0.,0.,0.,0.,0.,0.,0.,
 0.,0.,0.,0.,0.,0.,0.,0.,0.,0.,0.,0.,0.,0.,0.,0.,0.,0.,0.,0.,0.,0.,0.,0
 .,0.,0.,0.,0.,0.,0.,0.,0.,0.,0.,0.,0.,0.,0.,0.,0.,0.,0.,0.,0.,0.,0.,0.
 ,0.,0.,0.,0.,0.,0.,0.,0.,0.,0.,0.,0.,0.,0.,0.,0.,0.,0.,0.,0.,0.,0.,0.,
 0.,0.,0.,0.,0.,0.,0.,0.,0.,0.,0.,0.,0.,0.,0.,0.,0.,0.,0.,0.,0.,0.,0.,0
 .,0.,0.,0.,0.,0.,0.,0.,0.,0.,0.,0.,0.,0.,0.,-0.02991458,-0.02537358,0.
 02922871,0.00087339,0.01398440,-0.00907538,0.01777434,-0.00193020,0.02
 039269||0.,0.,0.,0.,0.,0.,0.,0.,0.,0.,0.,0.,0.,0.,0.,0.,0.,0.,0.,0.,0.
 ,0.,0.,0.,0.,0.,0.,0.,0.,0.,0.,0.,0.,0.,0.,0.,0.,0.,0.,0.,0.,0.,0.,0.,
 0.,0.,0.,0.,0.,0.,0.,0.,0.,0.,0.,0.,0.,0.,0.,0.,0.,0.,0.,0.,0.,0.,0.,0
 .,0.,0.,0.,0.,0.,0.,0.,0.,0.,0.,0.,0.,0.,0.,0.,0.,0.,0.,0.,0.,0.,0.,0.
 ,0.,0.,0.,0.,0.,0.,0.,0.,0.,0.,0.,0.,0.,0.,0.,0.,0.,0.,0.,0.,0.,0.,0.,
 0.,0.,0.,0.,0.,0.,0.,0.,0.,0.,0.,0.,0.,0.,0.,0.,0.,0.,0.,0.,0.,0.,0.,0
 .,0.,0.,0.,0.,0.,0.,-0.02301394,-0.03013575,-0.02882813,-0.00002165,0.
 02156876,0.02179528,0.01726999,0.02378999,-0.01552376|||@


 A successful marriage requires falling in love
 many times, always with the same person.
                           -- Mignon McLaughlin
 Job cpu time:       0 days  0 hours 17 minutes 19.0 seconds.
 File lengths (MBytes):  RWF=   2355 Int=      0 D2E=      0 Chk=     17 Scr=      1
 Normal termination of Gaussian 09 at Tue Jan 14 15:35:25 2025.
