 Entering Link 1 = C:\G09W\l1.exe PID=     10556.
  
 Copyright (c) 1988,1990,1992,1993,1995,1998,2003,2009,2013,
            Gaussian, Inc.  All Rights Reserved.
  
 This is part of the Gaussian(R) 09 program.  It is based on
 the Gaussian(R) 03 system (copyright 2003, Gaussian, Inc.),
 the Gaussian(R) 98 system (copyright 1998, Gaussian, Inc.),
 the Gaussian(R) 94 system (copyright 1995, Gaussian, Inc.),
 the Gaussian 92(TM) system (copyright 1992, Gaussian, Inc.),
 the Gaussian 90(TM) system (copyright 1990, Gaussian, Inc.),
 the Gaussian 88(TM) system (copyright 1988, Gaussian, Inc.),
 the Gaussian 86(TM) system (copyright 1986, Carnegie Mellon
 University), and the Gaussian 82(TM) system (copyright 1983,
 Carnegie Mellon University). Gaussian is a federally registered
 trademark of Gaussian, Inc.
  
 This software contains proprietary and confidential information,
 including trade secrets, belonging to Gaussian, Inc.
  
 This software is provided under written license and may be
 used, copied, transmitted, or stored only in accord with that
 written license.
  
 The following legend is applicable only to US Government
 contracts under FAR:
  
                    RESTRICTED RIGHTS LEGEND
  
 Use, reproduction and disclosure by the US Government is
 subject to restrictions as set forth in subparagraphs (a)
 and (c) of the Commercial Computer Software - Restricted
 Rights clause in FAR 52.227-19.
  
 Gaussian, Inc.
 340 Quinnipiac St., Bldg. 40, Wallingford CT 06492
  
  
 ---------------------------------------------------------------
 Warning -- This program may not be used in any manner that
 competes with the business of Gaussian, Inc. or will provide
 assistance to any competitor of Gaussian, Inc.  The licensee
 of this program is prohibited from giving any competitor of
 Gaussian, Inc. access to this program.  By using this program,
 the user acknowledges that Gaussian, Inc. is engaged in the
 business of creating and licensing software in the field of
 computational chemistry and represents and warrants to the
 licensee that it is not a competitor of Gaussian, Inc. and that
 it will not use this program in any manner prohibited above.
 ---------------------------------------------------------------
  

 Cite this work as:
 Gaussian 09, Revision D.01,
 M. J. Frisch, G. W. Trucks, H. B. Schlegel, G. E. Scuseria, 
 M. A. Robb, J. R. Cheeseman, G. Scalmani, V. Barone, B. Mennucci, 
 G. A. Petersson, H. Nakatsuji, M. Caricato, X. Li, H. P. Hratchian, 
 A. F. Izmaylov, J. Bloino, G. Zheng, J. L. Sonnenberg, M. Hada, 
 M. Ehara, K. Toyota, R. Fukuda, J. Hasegawa, M. Ishida, T. Nakajima, 
 Y. Honda, O. Kitao, H. Nakai, T. Vreven, J. A. Montgomery, Jr., 
 J. E. Peralta, F. Ogliaro, M. Bearpark, J. J. Heyd, E. Brothers, 
 K. N. Kudin, V. N. Staroverov, T. Keith, R. Kobayashi, J. Normand, 
 K. Raghavachari, A. Rendell, J. C. Burant, S. S. Iyengar, J. Tomasi, 
 M. Cossi, N. Rega, J. M. Millam, M. Klene, J. E. Knox, J. B. Cross, 
 V. Bakken, C. Adamo, J. Jaramillo, R. Gomperts, R. E. Stratmann, 
 O. Yazyev, A. J. Austin, R. Cammi, C. Pomelli, J. W. Ochterski, 
 R. L. Martin, K. Morokuma, V. G. Zakrzewski, G. A. Voth, 
 P. Salvador, J. J. Dannenberg, S. Dapprich, A. D. Daniels, 
 O. Farkas, J. B. Foresman, J. V. Ortiz, J. Cioslowski, 
 and D. J. Fox, Gaussian, Inc., Wallingford CT, 2013.
 
 ******************************************
 Gaussian 09:  IA32W-G09RevD.01 24-Apr-2013
                05-Jan-2025 
 ******************************************
 %nprocshared=2
 Will use up to    2 processors via shared memory.
 %mem=1GB
 %chk=G:\My Drive\Boro Kaaz\Pristine MoS2\CO\Pristine MoS2_CO_freq.chk
 -----------------------------------
 # freq pm6 scf=qc geom=connectivity
 -----------------------------------
 1/10=4,30=1,38=1,57=2/1,3;
 2/12=2,17=6,18=5,40=1/2;
 3/5=2,16=1,25=1,41=3900000,71=2,140=1/1,2,3;
 4/35=1/1;
 5/5=2,8=3,35=1,38=5,98=1/8;
 8/6=4,10=90,11=11/1;
 11/6=1,8=1,9=11,15=111,16=1/1,2,10;
 10/6=1/2;
 6/7=2,8=2,9=2,10=2,18=1,28=1/1;
 7/8=1,10=1,25=1/1,2,3,16;
 1/10=4,30=1/3;
 99//99;
 -------------------
 Title Card Required
 -------------------
 Symbolic Z-matrix:
 Charge =  0 Multiplicity = 1
 Mo                   -1   -0.94213  -4.97818   0.78414 
 S                    -1   -2.27268  -3.92863   2.50741 
 S                    -1   -2.92786  -4.4843   -0.50214 
 Mo                   -1    2.15413  -4.71532   0.06154 
 Mo                   -1    5.2504   -4.45246  -0.66106 
 Mo                   -1    8.34667  -4.1896   -1.38365 
 S                    -1    0.82359  -3.66577   1.78481 
 S                    -1    3.91986  -3.4029    1.06221 
 S                    -1    7.01613  -3.14004   0.33962 
 S                    -1    0.1684   -4.22144  -1.22474 
 S                    -1    3.26467  -3.95858  -1.94734 
 S                    -1    6.36094  -3.69571  -2.66994 
 Mo                   -1   -2.82027  -2.40016   0.71702 
 Mo                   -1   -4.69841   0.17786   0.6499 
 Mo                   -1   -6.57655   2.75588   0.58278 
 S                    -1   -4.15082  -1.3506    2.44029 
 S                    -1   -6.02896   1.22742   2.37317 
 S                    -1   -7.90709   3.80544   2.30605 
 S                    -1   -4.806    -1.90628  -0.56926 
 S                    -1   -6.68414   0.67175  -0.63638 
 S                    -1   -8.56228   3.24977  -0.7035 
 Mo                   -1    0.27599  -2.1373   -0.00558 
 Mo                   -1   -1.60215   0.44072  -0.0727 
 Mo                   -1   -3.48029   3.01875  -0.13982 
 Mo                   -1    3.37226  -1.87444  -0.72818 
 Mo                   -1    1.49412   0.70359  -0.7953 
 Mo                   -1   -0.38402   3.28161  -0.86242 
 Mo                   -1    6.46853  -1.61158  -1.45077 
 Mo                   -1    4.59039   0.96645  -1.51789 
 Mo                   -1    2.71225   3.54447  -1.58501 
 S                    -1   -1.05455  -1.08774   1.71769 
 S                    -1   -2.93269   1.49028   1.65057 
 S                    -1   -4.81083   4.0683    1.58345 
 S                    -1    2.04172  -0.82488   0.99509 
 S                    -1    0.16358   1.75314   0.92797 
 S                    -1   -1.71456   4.33116   0.86085 
 S                    -1    5.13799  -0.56202   0.2725 
 S                    -1    3.25985   2.016     0.20537 
 S                    -1    1.38171   4.59403   0.13825 
 S                    -1   -1.70973  -1.64341  -1.29186 
 S                    -1   -3.58787   0.93461  -1.35898 
 S                    -1   -5.46601   3.51263  -1.4261 
 S                    -1    1.38653  -1.38055  -2.01446 
 S                    -1   -0.49161   1.19747  -2.08158 
 S                    -1   -2.36975   3.77549  -2.1487 
 S                    -1    4.4828   -1.11769  -2.73706 
 S                    -1    2.60466   1.46033  -2.80418 
 S                    -1    0.72652   4.03835  -2.8713 
 C                    0    -0.35484   0.135     2.56188 
 O                    0     0.76916   0.135     2.56188 
 

 GradGradGradGradGradGradGradGradGradGradGradGradGradGradGradGradGradGrad
 Berny optimization.
 Initialization pass.
 Trust Radius=3.00D-01 FncErr=1.00D-07 GrdErr=1.00D-07
 Number of steps in this run=      2 maximum allowed number of steps=      2.
 GradGradGradGradGradGradGradGradGradGradGradGradGradGradGradGradGradGrad

                          Input orientation:                          
 ---------------------------------------------------------------------
 Center     Atomic      Atomic             Coordinates (Angstroms)
 Number     Number       Type             X           Y           Z
 ---------------------------------------------------------------------
      1         42           0       -0.942133   -4.978184    0.784141
      2         16           0       -2.272676   -3.928627    2.507410
      3         16           0       -2.927862   -4.484299   -0.502143
      4         42           0        2.154134   -4.715322    0.061543
      5         42           0        5.250401   -4.452460   -0.661055
      6         42           0        8.346668   -4.189598   -1.383653
      7         16           0        0.823591   -3.665765    1.784812
      8         16           0        3.919858   -3.402904    1.062214
      9         16           0        7.016125   -3.140042    0.339616
     10         16           0        0.168405   -4.221437   -1.224741
     11         16           0        3.264672   -3.958575   -1.947339
     12         16           0        6.360939   -3.695714   -2.669938
     13         42           0       -2.820273   -2.400161    0.717020
     14         42           0       -4.698413    0.177862    0.649900
     15         42           0       -6.576553    2.755884    0.582779
     16         16           0       -4.150815   -1.350605    2.440290
     17         16           0       -6.028955    1.227418    2.373169
     18         16           0       -7.907095    3.805440    2.306049
     19         16           0       -4.806002   -1.906277   -0.569264
     20         16           0       -6.684142    0.671746   -0.636384
     21         16           0       -8.562281    3.249769   -0.703505
     22         42           0        0.275994   -2.137299   -0.005578
     23         42           0       -1.602146    0.440724   -0.072698
     24         42           0       -3.480285    3.018746   -0.139819
     25         42           0        3.372261   -1.874437   -0.728176
     26         42           0        1.494121    0.703585   -0.795296
     27         42           0       -0.384018    3.281608   -0.862417
     28         42           0        6.468528   -1.611575   -1.450774
     29         42           0        4.590388    0.966447   -1.517894
     30         42           0        2.712249    3.544470   -1.585015
     31         16           0       -1.054548   -1.087743    1.717692
     32         16           0       -2.932688    1.490280    1.650571
     33         16           0       -4.810828    4.068302    1.583451
     34         16           0        2.041719   -0.824881    0.995093
     35         16           0        0.163579    1.753142    0.927973
     36         16           0       -1.714561    4.331164    0.860852
     37         16           0        5.137986   -0.562019    0.272495
     38         16           0        3.259846    2.016003    0.205375
     39         16           0        1.381706    4.594026    0.138254
     40         16           0       -1.709735   -1.643415   -1.291862
     41         16           0       -3.587875    0.934608   -1.358982
     42         16           0       -5.466014    3.512630   -1.426103
     43         16           0        1.386532   -1.380553   -2.014460
     44         16           0       -0.491608    1.197470   -2.081580
     45         16           0       -2.369747    3.775492   -2.148701
     46         16           0        4.482799   -1.117691   -2.737058
     47         16           0        2.604660    1.460332   -2.804179
     48         16           0        0.726520    4.038354   -2.871299
     49          6           0       -0.354839    0.135002    2.561878
     50          8           0        0.769161    0.135002    2.561878
 ---------------------------------------------------------------------
                    Distance matrix (angstroms):
                    1          2          3          4          5
     1  Mo   0.000000
     2  S    2.416934   0.000000
     3  S    2.416934   3.129769   0.000000
     4  Mo   3.190316   5.118378   5.118378   0.000000
     5  Mo   6.380631   8.179869   8.179869   3.190316   0.000000
     6  Mo   9.570947  11.312778  11.312778   6.380631   3.190316
     7  S    2.416934   3.190316   4.469180   2.416934   5.118378
     8  S    5.118378   6.380631   7.106892   2.416934   2.416934
     9  S    8.179869   9.570947  10.069681   5.118378   2.416934
    10  S    2.416934   4.469180   3.190316   2.416934   5.118378
    11  S    5.118378   7.106892   6.380631   2.416934   2.416934
    12  S    8.179869  10.069681   9.570947   5.118378   2.416934
    13  Mo   3.190316   2.416934   2.416934   5.525789   8.440782
    14  Mo   6.380631   5.118378   5.118378   8.440782  11.051578
    15  Mo   9.570947   8.179869   8.179869  11.502847  13.906264
    16  S    5.118378   3.190316   4.469180   7.532074  10.374137
    17  S    8.179869   6.380631   7.106892  10.374137  12.988125
    18  S   11.312778   9.570947  10.069681  13.374211  15.815066
    19  S    5.118378   4.469180   3.190316   7.532074  10.374137
    20  S    8.179869   7.106892   6.380631  10.374137  12.988125
    21  S   11.312778  10.069681   9.570947  13.374211  15.815066
    22  Mo   3.190316   4.002460   4.002460   3.190316   5.525789
    23  Mo   5.525789   5.118378   5.118378   6.380631   8.440782
    24  Mo   8.440782   7.532074   7.532074   9.570947  11.502847
    25  Mo   5.525789   6.823051   6.823051   3.190316   3.190316
    26  Mo   6.380631   6.823051   6.823051   5.525789   6.380631
    27  Mo   8.440782   8.179869   8.179869   8.440782   9.570947
    28  Mo   8.440782   9.871403   9.871403   5.525789   3.190316
    29  Mo   8.440782   9.341653   9.341653   6.380631   5.525789
    30  Mo   9.570947   9.871403   9.871403   8.440782   8.440782
    31  S    4.002460   3.190316   4.469180   5.118378   7.532074
    32  S    6.823051   5.525789   6.350574   8.179869  10.374137
    33  S    9.871403   8.440782   9.002347  11.312778  13.374211
    34  S    5.118378   5.525789   6.350574   4.002460   5.118378
    35  S    6.823051   6.380631   7.106892   6.823051   8.179869
    36  S    9.341653   8.440782   9.002347   9.871403  11.312778
    37  S    7.532074   8.440782   9.002347   5.118378   4.002460
    38  S    8.179869   8.440782   9.002347   6.823051   6.823051
    39  S    9.871403   9.570947  10.069681   9.341653   9.871403
    40  S    4.002460   4.469180   3.190316   5.118378   7.532074
    41  S    6.823051   6.350574   5.525789   8.179869  10.374137
    42  S    9.871403   9.002347   8.440782  11.312778  13.374211
    43  S    5.118378   6.350574   5.525789   4.002460   5.118378
    44  S    6.823051   7.106892   6.380631   6.823051   8.179869
    45  S    9.341653   9.002347   8.440782   9.871403  11.312778
    46  S    7.532074   9.002347   8.440782   5.118378   4.002460
    47  S    8.179869   9.002347   8.440782   6.823051   6.823051
    48  S    9.871403  10.069681   9.570947   9.341653   9.871403
    49  C    5.445175   4.493790   6.111188   6.006019   7.927851
    50  O    5.677460   5.076300   6.662894   5.629873   7.177299
                    6          7          8          9         10
     6  Mo   0.000000
     7  S    8.179869   0.000000
     8  S    5.118378   3.190316   0.000000
     9  S    2.416934   6.380631   3.190316   0.000000
    10  S    8.179869   3.129769   4.469180   7.106892   0.000000
    11  S    5.118378   4.469180   3.129769   4.469180   3.190316
    12  S    2.416934   7.106892   4.469180   3.129769   6.380631
    13  Mo  11.502847   4.002460   6.823051   9.871403   4.002459
    14  Mo  13.906264   6.823051   9.341653  12.179293   6.823051
    15  Mo  16.577367   9.871403  12.179293  14.818298   9.871403
    16  S   13.374211   5.525789   8.440782  11.502847   6.350574
    17  S   15.815066   8.440782  11.051578  13.906264   9.002347
    18  S   18.485652  11.502847  13.906264  16.577367  11.921029
    19  S   13.374211   6.350574   9.002347  11.921029   5.525789
    20  S   15.815066   9.002347  11.486201  14.254109   8.440782
    21  S   18.485652  11.921029  14.254109  16.870226  11.502847
    22  Mo   8.440782   2.416934   4.002460   6.823051   2.416934
    23  Mo  11.051578   5.118378   6.823051   9.341653   5.118378
    24  Mo  13.906264   8.179869   9.871403  12.179293   8.179869
    25  Mo   5.525789   4.002460   2.416934   4.002460   4.002460
    26  Mo   8.440782   5.118378   5.118378   6.823051   5.118378
    27  Mo  11.502847   7.532074   8.179869   9.871403   7.532074
    28  Mo   3.190316   6.823051   4.002460   2.416934   6.823051
    29  Mo   6.380631   6.823051   5.118378   5.118378   6.823051
    30  Mo   9.570947   8.179869   7.532074   8.179869   8.179869
    31  S   10.374137   3.190316   5.525789   8.440782   4.469180
    32  S   12.988125   6.380631   8.440782  11.051578   7.106892
    33  S   15.815066   9.570947  11.502847  13.906264  10.069681
    34  S    7.532074   3.190316   3.190316   5.525789   4.469180
    35  S   10.374137   5.525789   6.380631   8.440782   6.350574
    36  S   13.374211   8.440782   9.570947  11.502847   9.002347
    37  S    5.118378   5.525789   3.190316   3.190316   6.350574
    38  S    8.179869   6.380631   5.525789   6.380631   7.106892
    39  S   11.312778   8.440782   8.440782   9.570947   9.002347
    40  S   10.374137   4.469180   6.350574   9.002347   3.190316
    41  S   12.988125   7.106892   9.002347  11.486201   6.380631
    42  S   15.815066  10.069681  11.921029  14.254109   9.570947
    43  S    7.532074   4.469180   4.469180   6.350574   3.190316
    44  S   10.374137   6.350574   7.106892   9.002347   5.525789
    45  S   13.374211   9.002347  10.069681  11.921029   8.440782
    46  S    5.118378   6.350574   4.469180   4.469180   5.525789
    47  S    8.179869   7.106892   6.350574   7.106892   6.380631
    48  S   11.312778   9.002347   9.002347  10.069681   8.440782
    49  C   10.487402   4.054425   5.747939   8.366330   5.795760
    50  O    9.575385   3.879772   4.969171   7.395196   5.803272
                   11         12         13         14         15
    11  S    0.000000
    12  S    3.190316   0.000000
    13  Mo   6.823051   9.871403   0.000000
    14  Mo   9.341653  12.179293   3.190316   0.000000
    15  Mo  12.179293  14.818298   6.380631   3.190316   0.000000
    16  S    9.002347  11.921029   2.416934   2.416934   5.118378
    17  S   11.486201  14.254109   5.118378   2.416934   2.416934
    18  S   14.254109  16.870226   8.179869   5.118378   2.416934
    19  S    8.440782  11.502847   2.416934   2.416934   5.118378
    20  S   11.051578  13.906264   5.118378   2.416934   2.416934
    21  S   13.906264  16.577367   8.179869   5.118378   2.416934
    22  Mo   4.002460   6.823051   3.190316   5.525789   8.440782
    23  Mo   6.823051   9.341653   3.190316   3.190316   5.525789
    24  Mo   9.871403  12.179293   5.525789   3.190316   3.190316
    25  Mo   2.416934   4.002460   6.380631   8.440782  11.051578
    26  Mo   5.118378   6.823051   5.525789   6.380631   8.440782
    27  Mo   8.179869   9.871403   6.380631   5.525789   6.380631
    28  Mo   4.002459   2.416934   9.570947  11.502847  13.906264
    29  Mo   5.118378   5.118378   8.440782   9.570947  11.502847
    30  Mo   7.532074   8.179869   8.440782   8.440782   9.570947
    31  S    6.350574   9.002347   2.416934   4.002460   6.823051
    32  S    9.002347  11.486201   4.002460   2.416934   4.002460
    33  S   11.921029  14.254109   6.823051   4.002460   2.416934
    34  S    4.469180   6.350574   5.118378   6.823051   9.341653
    35  S    7.106892   9.002347   5.118378   5.118378   6.823051
    36  S   10.069681  11.921029   6.823051   5.118378   5.118378
    37  S    4.469180   4.469180   8.179869   9.871403  12.179293
    38  S    6.350574   7.106892   7.532074   8.179869   9.871403
    39  S    9.002347  10.069681   8.179869   7.532074   8.179869
    40  S    5.525789   8.440782   2.416934   4.002460   6.823051
    41  S    8.440782  11.051578   4.002460   2.416934   4.002459
    42  S   11.502847  13.906264   6.823051   4.002460   2.416934
    43  S    3.190316   5.525789   5.118378   6.823051   9.341653
    44  S    6.380631   8.440782   5.118378   5.118378   6.823051
    45  S    9.570947  11.502847   6.823051   5.118378   5.118378
    46  S    3.190316   3.190316   8.179869   9.871403  12.179293
    47  S    5.525789   6.380631   7.532074   8.179869   9.871403
    48  S    8.440782   9.570947   8.179869   7.532074   8.179869
    49  C    7.084580   9.335307   3.988599   4.745960   7.035309
    50  O    6.581641   8.562374   4.765983   5.792397   8.046450
                   16         17         18         19         20
    16  S    0.000000
    17  S    3.190316   0.000000
    18  S    6.380631   3.190316   0.000000
    19  S    3.129769   4.469180   7.106892   0.000000
    20  S    4.469180   3.129769   4.469180   3.190316   0.000000
    21  S    7.106892   4.469180   3.129769   6.380631   3.190316
    22  Mo   5.118378   7.532074  10.374137   5.118378   7.532074
    23  Mo   4.002460   5.118378   7.532074   4.002459   5.118378
    24  Mo   5.118378   4.002460   5.118378   5.118378   4.002460
    25  Mo   8.179869  10.374137  12.988125   8.179869  10.374137
    26  Mo   6.823051   8.179869  10.374137   6.823051   8.179869
    27  Mo   6.823051   6.823051   8.179869   6.823051   6.823051
    28  Mo  11.312778  13.374211  15.815066  11.312778  13.374211
    29  Mo   9.871403  11.312778  13.374211   9.871403  11.312778
    30  Mo   9.341653   9.871403  11.312778   9.341653   9.871403
    31  S    3.190316   5.525789   8.440782   4.469180   6.350574
    32  S    3.190316   3.190316   5.525789   4.469180   4.469180
    33  S    5.525789   3.190316   3.190316   6.350574   4.469180
    34  S    6.380631   8.440782  11.051578   7.106892   9.002347
    35  S    5.525789   6.380631   8.440782   6.350574   7.106892
    36  S    6.380631   5.525789   6.380631   7.106892   6.350574
    37  S    9.570947  11.502847  13.906264  10.069681  11.921029
    38  S    8.440782   9.570947  11.502847   9.002347  10.069681
    39  S    8.440782   8.440782   9.570947   9.002347   9.002347
    40  S    4.469180   6.350574   9.002347   3.190316   5.525789
    41  S    4.469180   4.469180   6.350574   3.190316   3.190316
    42  S    6.350574   4.469180   4.469180   5.525789   3.190316
    43  S    7.106892   9.002347  11.486201   6.380631   8.440782
    44  S    6.350574   7.106892   9.002347   5.525789   6.380631
    45  S    7.106892   6.350574   7.106892   6.380631   5.525789
    46  S   10.069681  11.921029  14.254109   9.570947  11.502847
    47  S    9.002347  10.069681  11.921029   8.440782   9.570947
    48  S    9.002347   9.002347  10.069681   8.440782   8.440782
    49  C    4.078143   5.781399   8.400841   5.812377   7.111754
    50  O    5.140815   6.887915   9.424170   6.712177   8.128265
                   21         22         23         24         25
    21  S    0.000000
    22  Mo  10.374137   0.000000
    23  Mo   7.532074   3.190316   0.000000
    24  Mo   5.118378   6.380631   3.190316   0.000000
    25  Mo  12.988125   3.190316   5.525789   8.440782   0.000000
    26  Mo  10.374137   3.190316   3.190316   5.525789   3.190316
    27  Mo   8.179869   5.525789   3.190316   3.190316   6.380631
    28  Mo  15.815066   6.380631   8.440782  11.051578   3.190316
    29  Mo  13.374211   5.525789   6.380631   8.440782   3.190316
    30  Mo  11.312778   6.380631   5.525789   6.380631   5.525789
    31  S    9.002347   2.416934   2.416934   5.118378   5.118378
    32  S    6.350574   5.118378   2.416934   2.416934   7.532074
    33  S    4.469180   8.179869   5.118378   2.416934  10.374137
    34  S   11.486201   2.416934   4.002460   6.823051   2.416934
    35  S    9.002347   4.002460   2.416934   4.002460   5.118378
    36  S    7.106892   6.823051   4.002460   2.416934   8.179869
    37  S   14.254109   5.118378   6.823051   9.341653   2.416934
    38  S   11.921029   5.118378   5.118378   6.823051   4.002460
    39  S   10.069681   6.823051   5.118378   5.118378   6.823051
    40  S    8.440782   2.416934   2.416934   5.118378   5.118378
    41  S    5.525789   5.118378   2.416934   2.416934   7.532074
    42  S    3.190316   8.179869   5.118378   2.416934  10.374137
    43  S   11.051578   2.416934   4.002460   6.823051   2.416934
    44  S    8.440782   4.002460   2.416934   4.002460   5.118378
    45  S    6.380631   6.823051   4.002460   2.416934   8.179869
    46  S   13.906264   5.118378   6.823051   9.341653   2.416934
    47  S   11.502847   5.118378   5.118378   6.823051   4.002460
    48  S    9.570947   6.823051   5.118378   5.118378   6.823051
    49  C    9.366248   3.486134   2.930910   5.038210   5.362236
    50  O   10.365342   3.463870   3.557746   5.802839   4.651713
                   26         27         28         29         30
    26  Mo   0.000000
    27  Mo   3.190316   0.000000
    28  Mo   5.525789   8.440782   0.000000
    29  Mo   3.190316   5.525789   3.190316   0.000000
    30  Mo   3.190316   3.190316   6.380631   3.190316   0.000000
    31  S    4.002459   5.118378   8.179869   6.823051   6.823051
    32  S    5.118378   4.002460  10.374137   8.179869   6.823051
    33  S    7.532074   5.118378  12.988125  10.374137   8.179869
    34  S    2.416934   5.118378   5.118378   4.002460   5.118378
    35  S    2.416934   2.416934   7.532074   5.118378   4.002460
    36  S    5.118378   2.416934  10.374137   7.532074   5.118378
    37  S    4.002459   6.823051   2.416934   2.416934   5.118378
    38  S    2.416934   4.002460   5.118378   2.416934   2.416934
    39  S    4.002460   2.416934   8.179869   5.118378   2.416934
    40  S    4.002460   5.118378   8.179869   6.823051   6.823051
    41  S    5.118378   4.002460  10.374137   8.179869   6.823051
    42  S    7.532074   5.118378  12.988125  10.374137   8.179869
    43  S    2.416934   5.118378   5.118378   4.002459   5.118378
    44  S    2.416934   2.416934   7.532074   5.118378   4.002460
    45  S    5.118378   2.416934  10.374137   7.532074   5.118378
    46  S    4.002459   6.823051   2.416934   2.416934   5.118378
    47  S    2.416934   4.002460   5.118378   2.416934   2.416934
    48  S    4.002460   2.416934   8.179869   5.118378   2.416934
    49  C    3.874604   4.650567   8.106186   6.464605   6.182897
    50  O    3.481303   4.791320   7.185728   5.651338   5.709359
                   31         32         33         34         35
    31  S    0.000000
    32  S    3.190316   0.000000
    33  S    6.380631   3.190316   0.000000
    34  S    3.190316   5.525789   8.440782   0.000000
    35  S    3.190316   3.190316   5.525789   3.190316   0.000000
    36  S    5.525789   3.190316   3.190316   6.380631   3.190316
    37  S    6.380631   8.440782  11.051578   3.190316   5.525789
    38  S    5.525789   6.380631   8.440782   3.190316   3.190316
    39  S    6.380631   5.525789   6.380631   5.525789   3.190316
    40  S    3.129769   4.469180   7.106892   4.469180   4.469180
    41  S    4.469180   3.129769   4.469180   6.350574   4.469180
    42  S    7.106892   4.469180   3.129769   9.002347   6.350574
    43  S    4.469180   6.350574   9.002347   3.129769   4.469180
    44  S    4.469180   4.469180   6.350574   4.469180   3.129769
    45  S    6.350574   4.469180   4.469180   7.106892   4.469180
    46  S    7.106892   9.002347  11.486201   4.469180   6.350574
    47  S    6.350574   7.106892   9.002347   4.469180   4.469180
    48  S    7.106892   6.350574   7.106892   6.350574   4.469180
    49  C    1.642361   3.051649   6.023621   3.019880   2.357282
    50  O    2.352376   4.046102   6.896698   2.235082   2.377972
                   36         37         38         39         40
    36  S    0.000000
    37  S    8.440782   0.000000
    38  S    5.525789   3.190316   0.000000
    39  S    3.190316   6.380631   3.190316   0.000000
    40  S    6.350574   7.106892   6.350574   7.106892   0.000000
    41  S    4.469180   9.002347   7.106892   6.350574   3.190316
    42  S    4.469180  11.486201   9.002347   7.106892   6.380631
    43  S    7.106892   4.469180   4.469180   6.350574   3.190316
    44  S    4.469180   6.350574   4.469180   4.469180   3.190316
    45  S    3.129769   9.002347   6.350574   4.469180   5.525789
    46  S    9.002347   3.129769   4.469180   7.106892   6.380631
    47  S    6.350574   4.469180   3.129769   4.469180   5.525789
    48  S    4.469180   7.106892   4.469180   3.129769   6.380631
    49  C    4.727590   5.991514   4.707146   5.363994   4.455314
    50  O    5.164314   4.981339   3.910855   5.111952   4.915181
                   41         42         43         44         45
    41  S    0.000000
    42  S    3.190316   0.000000
    43  S    5.525789   8.440782   0.000000
    44  S    3.190316   5.525789   3.190316   0.000000
    45  S    3.190316   3.190316   6.380631   3.190316   0.000000
    46  S    8.440782  11.051578   3.190316   5.525789   8.440782
    47  S    6.380631   8.440782   3.190316   3.190316   5.525789
    48  S    5.525789   6.380631   5.525789   3.190316   3.190316
    49  C    5.144418   7.310026   5.125636   4.765422   6.285108
    50  O    5.915765   8.135710   4.860136   4.927482   6.730191
                   46         47         48         49         50
    46  S    0.000000
    47  S    3.190316   0.000000
    48  S    6.380631   3.190316   0.000000
    49  C    7.283592   6.269744   6.776792   0.000000
    50  O    6.590832   5.824098   6.690096   1.124000   0.000000
 Stoichiometry    CMo16OS32
 Framework group  C1[X(CMo16OS32)]
 Deg. of freedom   144
 Full point group                 C1      NOp   1
 Largest Abelian subgroup         C1      NOp   1
 Largest concise Abelian subgroup C1      NOp   1
                         Standard orientation:                         
 ---------------------------------------------------------------------
 Center     Atomic      Atomic             Coordinates (Angstroms)
 Number     Number       Type             X           Y           Z
 ---------------------------------------------------------------------
      1         42           0        0.800970   -4.783195   -0.038969
      2         16           0       -1.042161   -4.784837    1.524498
      3         16           0       -1.039756   -4.780917   -1.605267
      4         42           0        3.564138   -3.188516   -0.034849
      5         42           0        6.327305   -1.593836   -0.030728
      6         42           0        9.090473    0.000843   -0.026607
      7         16           0        1.721006   -3.190157    1.528619
      8         16           0        4.484174   -1.595478    1.532740
      9         16           0        7.247341   -0.000799    1.536861
     10         16           0        1.723411   -3.186237   -1.601146
     11         16           0        4.486579   -1.591558   -1.597026
     12         16           0        7.249746    0.003121   -1.592905
     13         42           0       -1.961649   -3.187561   -0.039094
     14         42           0       -4.724269   -1.591927   -0.039218
     15         42           0       -7.486889    0.003706   -0.039343
     16         16           0       -3.804781   -3.189203    1.524374
     17         16           0       -6.567401   -1.593569    1.524249
     18         16           0       -9.330020    0.002064    1.524125
     19         16           0       -3.802376   -3.185283   -1.605391
     20         16           0       -6.564995   -1.589649   -1.605516
     21         16           0       -9.327615    0.005985   -1.605640
     22         42           0        0.801518   -1.592882   -0.034973
     23         42           0       -1.961101    0.002752   -0.035097
     24         42           0       -4.723721    1.598386   -0.035222
     25         42           0        3.564686    0.001798   -0.030852
     26         42           0        0.802066    1.597431   -0.030977
     27         42           0       -1.960553    3.193065   -0.031101
     28         42           0        6.327853    1.596477   -0.026732
     29         42           0        3.565234    3.192111   -0.026856
     30         42           0        0.802614    4.787744   -0.026980
     31         16           0       -1.041613   -1.594524    1.528495
     32         16           0       -3.804233    0.001110    1.528370
     33         16           0       -6.566853    1.596744    1.528246
     34         16           0        1.721554    0.000156    1.532615
     35         16           0       -1.041065    1.595789    1.532491
     36         16           0       -3.803685    3.191423    1.532367
     37         16           0        4.484722    1.594835    1.536736
     38         16           0        1.722102    3.190469    1.536612
     39         16           0       -1.040518    4.786103    1.536487
     40         16           0       -1.039208   -1.590604   -1.601271
     41         16           0       -3.801828    0.005030   -1.601395
     42         16           0       -6.564448    1.600664   -1.601520
     43         16           0        1.723959    0.004076   -1.597150
     44         16           0       -1.038660    1.599710   -1.597274
     45         16           0       -3.801280    3.195343   -1.597399
     46         16           0        4.487127    1.598755   -1.593029
     47         16           0        1.724507    3.194389   -1.593154
     48         16           0       -1.038112    4.790023   -1.593278
     49          6           0       -1.024866   -0.448984    2.705273
     50          8           0       -0.013130   -0.020287    2.941886
 ---------------------------------------------------------------------
 Rotational constants (GHZ):      0.0263077      0.0093126      0.0074310
 Standard basis: VSTO-6G (5D, 7F)
 There are   488 symmetry adapted cartesian basis functions of A   symmetry.
 There are   440 symmetry adapted basis functions of A   symmetry.
   440 basis functions,  2928 primitive gaussians,   488 cartesian basis functions
   149 alpha electrons      149 beta electrons
       nuclear repulsion energy      4280.0549190210 Hartrees.
 Integral buffers will be    262144 words long.
 Regular integral format.
 Two-electron integral symmetry is turned off.
 Do NDO integrals.
 One-electron integrals computed using PRISM.
 NBasis=   440 RedAO= F EigKep=  0.00D+00  NBF=   440
 NBsUse=   440 1.00D-04 EigRej=  0.00D+00 NBFU=   440
 Nonelectrostatic core Hamiltonian diagonalized for initial guess.
 Keep J ints in memory in canonical form, NReq=6172560.
 Gradient too large for Newton-Raphson -- use scaled steepest descent instead.
     Accept linear search using points  1 and  2.
 Gradient too large for Newton-Raphson -- use scaled steepest descent instead.
     Minimum is close to point  2 DX=  7.43D-03 DF= -2.29D-03 DXR=  2.42D-02 DFR=  5.85D-04 which will be used.
 Gradient too large for Newton-Raphson -- use scaled steepest descent instead.
     Accept linear search using points  4 and  5.
 Gradient too large for Newton-Raphson -- use scaled steepest descent instead.
     Accept linear search using points  3 and  4.
 Gradient too large for Newton-Raphson -- use scaled steepest descent instead.
     Accept linear search using points  1 and  2.
 Gradient too large for Newton-Raphson -- use scaled steepest descent instead.
     Accept linear search using points  3 and  4.
 Gradient too large for Newton-Raphson -- use scaled steepest descent instead.
     Accept linear search using points  1 and  2.
 Gradient too large for Newton-Raphson -- use scaled steepest descent instead.
     Accept linear search using points  3 and  4.
     Minimum is close to point  4 DX= -1.23D-01 DF= -7.11D-04 DXR=  7.78D-02 DFR=  3.54D-03 which will be used.
 Gradient too large for Newton-Raphson -- use scaled steepest descent instead.
     Minimum is close to point  3 DX=  2.69D-02 DF= -8.87D-04 DXR=  8.24D-02 DFR=  6.84D-03 which will be used.
 Gradient too large for Newton-Raphson -- use scaled steepest descent instead.
     Accept linear search using points  4 and  5.
     Minimum is close to point  5 DX= -2.39D-01 DF= -9.50D-04 DXR=  5.87D-02 DFR=  5.13D-03 which will be used.
 Gradient too large for Newton-Raphson -- use scaled steepest descent instead.
 Gradient too large for Newton-Raphson -- use scaled steepest descent instead.
     Accept linear search using points  1 and  2.
     Minimum is close to point  2 DX= -2.38D-02 DF= -1.71D-05 DXR=  2.02D-02 DFR=  5.51D-04 which will be used.
 Gradient too large for Newton-Raphson -- use scaled steepest descent instead.
     Accept linear search using points  1 and  2.
 Gradient too large for Newton-Raphson -- use scaled steepest descent instead.
 Gradient too large for Newton-Raphson -- use scaled steepest descent instead.
 Gradient too large for Newton-Raphson -- use scaled steepest descent instead.
 Gradient too large for Newton-Raphson -- use scaled steepest descent instead.
     Accept linear search using points  1 and  2.
 Gradient too large for Newton-Raphson -- use scaled steepest descent instead.
     Minimum is close to point  3 DX=  1.19D-01 DF= -1.33D-04 DXR=  7.86D-02 DFR=  6.10D-03 which will be used.
 Gradient too large for Newton-Raphson -- use scaled steepest descent instead.
     Minimum is close to point  3 DX= -9.25D-03 DF= -1.04D-05 DXR=  2.37D-02 DFR=  5.61D-04 which will be used.
 Gradient too large for Newton-Raphson -- use scaled steepest descent instead.
 Gradient too large for Newton-Raphson -- use scaled steepest descent instead.
     Accept linear search using points  1 and  2.
 Gradient too large for Newton-Raphson -- use scaled steepest descent instead.
     Accept linear search using points  4 and  5.
 Gradient too large for Newton-Raphson -- use scaled steepest descent instead.
     Minimum is close to point  3 DX=  1.51D-02 DF= -7.57D-05 DXR=  4.81D-02 DFR=  2.31D-03 which will be used.
 Gradient too large for Newton-Raphson -- use scaled steepest descent instead.
     Minimum is close to point  5 DX= -6.22D-01 DF= -4.05D-04 DXR=  7.51D-02 DFR=  7.11D-03 which will be used.
 Gradient too large for Newton-Raphson -- use scaled steepest descent instead.
 Gradient too large for Newton-Raphson -- use scaled steepest descent instead.
 Gradient too large for Newton-Raphson -- use scaled steepest descent instead.
     Accept linear search using points  1 and  2.
 Gradient too large for Newton-Raphson -- use scaled steepest descent instead.
 Gradient too large for Newton-Raphson -- use scaled steepest descent instead.
     Minimum is close to point  3 DX=  2.42D-02 DF= -6.17D-05 DXR=  7.47D-02 DFR=  5.61D-03 which will be used.
 Gradient too large for Newton-Raphson -- use scaled steepest descent instead.
     Minimum is close to point  5 DX=  2.11D-01 DF= -1.87D-05 DXR=  2.39D-02 DFR=  6.66D-04 which will be used.
 Gradient too large for Newton-Raphson -- use scaled steepest descent instead.
 Gradient too large for Newton-Raphson -- use scaled steepest descent instead.
 Gradient too large for Newton-Raphson -- use scaled steepest descent instead.
 Gradient too large for Newton-Raphson -- use scaled steepest descent instead.
 Gradient too large for Newton-Raphson -- use scaled steepest descent instead.
     Accept linear search using points  1 and  2.
 Gradient too large for Newton-Raphson -- use scaled steepest descent instead.
 Gradient too large for Newton-Raphson -- use scaled steepest descent instead.
     Accept linear search using points  1 and  2.
 Gradient too large for Newton-Raphson -- use scaled steepest descent instead.
 Gradient too large for Newton-Raphson -- use scaled steepest descent instead.
     Minimum is close to point  3 DX=  3.13D-02 DF= -3.75D-05 DXR=  9.45D-02 DFR=  9.01D-03 which will be used.
 Gradient too large for Newton-Raphson -- use scaled steepest descent instead.
 Gradient too large for Newton-Raphson -- use scaled steepest descent instead.
     Minimum is close to point  4 DX=  2.94D-02 DF= -6.83D-05 DXR=  8.91D-02 DFR=  8.00D-03 which will be used.
 Gradient too large for Newton-Raphson -- use scaled steepest descent instead.
 Gradient too large for Newton-Raphson -- use scaled steepest descent instead.
     Accept linear search using points  1 and  2.
 Gradient too large for Newton-Raphson -- use scaled steepest descent instead.
     Accept linear search using points  1 and  2.
 Gradient too large for Newton-Raphson -- use scaled steepest descent instead.
     Accept linear search using points  1 and  2.
 Gradient too large for Newton-Raphson -- use scaled steepest descent instead.
     Minimum is close to point  4 DX=  1.70D-01 DF= -1.61D-05 DXR=  7.50D-02 DFR=  5.68D-03 which will be used.
 Gradient too large for Newton-Raphson -- use scaled steepest descent instead.
 Gradient too large for Newton-Raphson -- use scaled steepest descent instead.
     Minimum is close to point  3 DX=  3.61D-02 DF= -7.94D-07 DXR=  1.96D-02 DFR=  3.87D-04 which will be used.
 Gradient too large for Newton-Raphson -- use scaled steepest descent instead.
 Gradient too large for Newton-Raphson -- use scaled steepest descent instead.
     Minimum is close to point  3 DX=  1.41D-01 DF= -1.17D-05 DXR=  8.11D-02 DFR=  6.64D-03 which will be used.
 Gradient too large for Newton-Raphson -- use scaled steepest descent instead.
 Gradient too large for Newton-Raphson -- use scaled steepest descent instead.
     Accept linear search using points  2 and  3.
 Gradient too large for Newton-Raphson -- use scaled steepest descent instead.
     Accept linear search using points  1 and  2.
 Gradient too large for Newton-Raphson -- use scaled steepest descent instead.
 Gradient too large for Newton-Raphson -- use scaled steepest descent instead.
 Gradient too large for Newton-Raphson -- use scaled steepest descent instead.
     Minimum is close to point  3 DX=  1.16D-01 DF= -6.89D-06 DXR=  7.16D-02 DFR=  5.16D-03 which will be used.
 Gradient too large for Newton-Raphson -- use scaled steepest descent instead.
     Minimum is close to point  3 DX= -3.20D-02 DF= -8.87D-06 DXR=  8.71D-02 DFR=  7.64D-03 which will be used.
 Gradient too large for Newton-Raphson -- use scaled steepest descent instead.
     Minimum is close to point  2 DX=  3.55D-02 DF= -1.50D-06 DXR=  4.25D-02 DFR=  1.81D-03 which will be used.
 Gradient too large for Newton-Raphson -- use scaled steepest descent instead.
     Accept linear search using points  1 and  2.
 Gradient too large for Newton-Raphson -- use scaled steepest descent instead.
     Minimum is close to point  4 DX=  9.58D-02 DF= -2.91D-06 DXR=  4.17D-02 DFR=  1.75D-03 which will be used.
 Gradient too large for Newton-Raphson -- use scaled steepest descent instead.
 Gradient too large for Newton-Raphson -- use scaled steepest descent instead.
 Gradient too large for Newton-Raphson -- use scaled steepest descent instead.
 Gradient too large for Newton-Raphson -- use scaled steepest descent instead.
 Gradient too large for Newton-Raphson -- use scaled steepest descent instead.
 Gradient too large for Newton-Raphson -- use scaled steepest descent instead.
 Gradient too large for Newton-Raphson -- use scaled steepest descent instead.
 Gradient too large for Newton-Raphson -- use scaled steepest descent instead.
 Gradient too large for Newton-Raphson -- use scaled steepest descent instead.
 Gradient too large for Newton-Raphson -- use scaled steepest descent instead.
 Gradient too large for Newton-Raphson -- use scaled steepest descent instead.
 Gradient too large for Newton-Raphson -- use scaled steepest descent instead.
 Gradient too large for Newton-Raphson -- use scaled steepest descent instead.
 Gradient too large for Newton-Raphson -- use scaled steepest descent instead.
 Gradient too large for Newton-Raphson -- use scaled steepest descent instead.
 Gradient too large for Newton-Raphson -- use scaled steepest descent instead.
 Gradient too large for Newton-Raphson -- use scaled steepest descent instead.
 Gradient too large for Newton-Raphson -- use scaled steepest descent instead.
 Gradient too large for Newton-Raphson -- use scaled steepest descent instead.
 Gradient too large for Newton-Raphson -- use scaled steepest descent instead.
 Gradient too large for Newton-Raphson -- use scaled steepest descent instead.
 Gradient too large for Newton-Raphson -- use scaled steepest descent instead.
 Gradient too large for Newton-Raphson -- use scaled steepest descent instead.
 Gradient too large for Newton-Raphson -- use scaled steepest descent instead.
 Gradient too large for Newton-Raphson -- use scaled steepest descent instead.
 Gradient too large for Newton-Raphson -- use scaled steepest descent instead.
 Gradient too large for Newton-Raphson -- use scaled steepest descent instead.
 Gradient too large for Newton-Raphson -- use scaled steepest descent instead.
 Gradient too large for Newton-Raphson -- use scaled steepest descent instead.
 Gradient too large for Newton-Raphson -- use scaled steepest descent instead.
 Gradient too large for Newton-Raphson -- use scaled steepest descent instead.
 LinEq1:  Iter=  0 NonCon=     1 RMS=1.66D-04 Max=1.23D-02 NDo=     1
 AX will form     1 AO Fock derivatives at one time.
 LinEq1:  Iter=  1 NonCon=     1 RMS=1.66D-04 Max=4.06D-03 NDo=     1
 LinEq1:  Iter=  2 NonCon=     1 RMS=5.97D-05 Max=1.78D-03 NDo=     1
 LinEq1:  Iter=  3 NonCon=     1 RMS=3.47D-05 Max=8.52D-04 NDo=     1
 LinEq1:  Iter=  4 NonCon=     1 RMS=4.31D-05 Max=1.63D-03 NDo=     1
 LinEq1:  Iter=  5 NonCon=     1 RMS=4.70D-05 Max=1.57D-03 NDo=     1
 LinEq1:  Iter=  6 NonCon=     1 RMS=4.16D-05 Max=1.02D-03 NDo=     1
 LinEq1:  Iter=  7 NonCon=     1 RMS=4.45D-05 Max=1.46D-03 NDo=     1
 LinEq1:  Iter=  8 NonCon=     1 RMS=4.19D-05 Max=1.32D-03 NDo=     1
 LinEq1:  Iter=  9 NonCon=     1 RMS=3.14D-05 Max=1.19D-03 NDo=     1
 LinEq1:  Iter= 10 NonCon=     1 RMS=3.19D-05 Max=9.28D-04 NDo=     1
 LinEq1:  Iter= 11 NonCon=     1 RMS=3.58D-05 Max=1.54D-03 NDo=     1
 LinEq1:  Iter= 12 NonCon=     1 RMS=3.58D-05 Max=1.02D-03 NDo=     1
 LinEq1:  Iter= 13 NonCon=     1 RMS=3.53D-05 Max=1.22D-03 NDo=     1
 LinEq1:  Iter= 14 NonCon=     1 RMS=2.82D-05 Max=7.07D-04 NDo=     1
 LinEq1:  Iter= 15 NonCon=     1 RMS=3.06D-05 Max=8.46D-04 NDo=     1
 LinEq1:  Iter= 16 NonCon=     1 RMS=2.64D-05 Max=6.67D-04 NDo=     1
 LinEq1:  Iter= 17 NonCon=     1 RMS=2.29D-05 Max=4.36D-04 NDo=     1
 LinEq1:  Iter= 18 NonCon=     1 RMS=1.73D-05 Max=5.50D-04 NDo=     1
 LinEq1:  Iter= 19 NonCon=     1 RMS=1.40D-05 Max=2.60D-04 NDo=     1
 LinEq1:  Iter= 20 NonCon=     1 RMS=1.16D-05 Max=3.52D-04 NDo=     1
 LinEq1:  Iter= 21 NonCon=     1 RMS=1.24D-05 Max=3.39D-04 NDo=     1
 LinEq1:  Iter= 22 NonCon=     1 RMS=8.72D-06 Max=1.67D-04 NDo=     1
 LinEq1:  Iter= 23 NonCon=     1 RMS=6.85D-06 Max=1.49D-04 NDo=     1
 LinEq1:  Iter= 24 NonCon=     1 RMS=4.42D-06 Max=1.12D-04 NDo=     1
 LinEq1:  Iter= 25 NonCon=     1 RMS=3.07D-06 Max=6.79D-05 NDo=     1
 LinEq1:  Iter= 26 NonCon=     1 RMS=2.30D-06 Max=6.12D-05 NDo=     1
 LinEq1:  Iter= 27 NonCon=     1 RMS=1.24D-06 Max=2.92D-05 NDo=     1
 LinEq1:  Iter= 28 NonCon=     1 RMS=9.06D-07 Max=2.38D-05 NDo=     1
 LinEq1:  Iter= 29 NonCon=     1 RMS=6.09D-07 Max=1.87D-05 NDo=     1
 LinEq1:  Iter= 30 NonCon=     1 RMS=2.93D-07 Max=7.76D-06 NDo=     1
 LinEq1:  Iter= 31 NonCon=     1 RMS=1.98D-07 Max=4.64D-06 NDo=     1
 LinEq1:  Iter= 32 NonCon=     1 RMS=1.16D-07 Max=3.89D-06 NDo=     1
 LinEq1:  Iter= 33 NonCon=     1 RMS=5.40D-08 Max=2.07D-06 NDo=     1
 LinEq1:  Iter= 34 NonCon=     1 RMS=3.92D-08 Max=1.08D-06 NDo=     1
 LinEq1:  Iter= 35 NonCon=     1 RMS=2.93D-08 Max=1.09D-06 NDo=     1
 LinEq1:  Iter= 36 NonCon=     1 RMS=1.35D-08 Max=4.48D-07 NDo=     1
 LinEq1:  Iter= 37 NonCon=     0 RMS=7.51D-09 Max=2.23D-07 NDo=     1
 Linear equations converged to 2.945D-08 2.945D-07 after    37 iterations.
 Gradient too large for Newton-Raphson -- use scaled steepest descent instead.
     Accept linear search using points  1 and  2.
 Gradient too large for Newton-Raphson -- use scaled steepest descent instead.
     Accept linear search using points  1 and  2.
 LinEq1:  Iter=  0 NonCon=     1 RMS=1.24D-04 Max=1.00D-02 NDo=     1
 LinEq1:  Iter=  1 NonCon=     1 RMS=1.36D-04 Max=3.92D-03 NDo=     1
 LinEq1:  Iter=  2 NonCon=     1 RMS=4.41D-05 Max=1.44D-03 NDo=     1
 LinEq1:  Iter=  3 NonCon=     1 RMS=4.36D-05 Max=1.01D-03 NDo=     1
 LinEq1:  Iter=  4 NonCon=     1 RMS=3.66D-05 Max=1.33D-03 NDo=     1
 LinEq1:  Iter=  5 NonCon=     1 RMS=4.23D-05 Max=1.03D-03 NDo=     1
 LinEq1:  Iter=  6 NonCon=     1 RMS=4.09D-05 Max=1.34D-03 NDo=     1
 LinEq1:  Iter=  7 NonCon=     1 RMS=4.10D-05 Max=1.44D-03 NDo=     1
 LinEq1:  Iter=  8 NonCon=     1 RMS=2.47D-05 Max=7.53D-04 NDo=     1
 LinEq1:  Iter=  9 NonCon=     1 RMS=2.21D-05 Max=9.77D-04 NDo=     1
 LinEq1:  Iter= 10 NonCon=     1 RMS=2.05D-05 Max=5.08D-04 NDo=     1
 LinEq1:  Iter= 11 NonCon=     1 RMS=2.09D-05 Max=9.74D-04 NDo=     1
 LinEq1:  Iter= 12 NonCon=     1 RMS=1.62D-05 Max=4.31D-04 NDo=     1
 LinEq1:  Iter= 13 NonCon=     1 RMS=1.70D-05 Max=6.10D-04 NDo=     1
 LinEq1:  Iter= 14 NonCon=     1 RMS=1.86D-05 Max=4.08D-04 NDo=     1
 LinEq1:  Iter= 15 NonCon=     1 RMS=1.75D-05 Max=3.78D-04 NDo=     1
 LinEq1:  Iter= 16 NonCon=     1 RMS=1.45D-05 Max=3.59D-04 NDo=     1
 LinEq1:  Iter= 17 NonCon=     1 RMS=1.47D-05 Max=3.90D-04 NDo=     1
 LinEq1:  Iter= 18 NonCon=     1 RMS=1.39D-05 Max=3.40D-04 NDo=     1
 LinEq1:  Iter= 19 NonCon=     1 RMS=1.10D-05 Max=2.46D-04 NDo=     1
 LinEq1:  Iter= 20 NonCon=     1 RMS=7.53D-06 Max=2.27D-04 NDo=     1
 LinEq1:  Iter= 21 NonCon=     1 RMS=5.41D-06 Max=1.33D-04 NDo=     1
 LinEq1:  Iter= 22 NonCon=     1 RMS=3.85D-06 Max=1.12D-04 NDo=     1
 LinEq1:  Iter= 23 NonCon=     1 RMS=3.31D-06 Max=8.66D-05 NDo=     1
 LinEq1:  Iter= 24 NonCon=     1 RMS=2.46D-06 Max=6.18D-05 NDo=     1
 LinEq1:  Iter= 25 NonCon=     1 RMS=1.66D-06 Max=4.20D-05 NDo=     1
 LinEq1:  Iter= 26 NonCon=     1 RMS=1.42D-06 Max=4.74D-05 NDo=     1
 LinEq1:  Iter= 27 NonCon=     1 RMS=7.87D-07 Max=2.50D-05 NDo=     1
 LinEq1:  Iter= 28 NonCon=     1 RMS=5.18D-07 Max=1.59D-05 NDo=     1
 LinEq1:  Iter= 29 NonCon=     1 RMS=3.25D-07 Max=9.19D-06 NDo=     1
 LinEq1:  Iter= 30 NonCon=     1 RMS=2.13D-07 Max=5.73D-06 NDo=     1
 LinEq1:  Iter= 31 NonCon=     1 RMS=1.53D-07 Max=4.76D-06 NDo=     1
 LinEq1:  Iter= 32 NonCon=     1 RMS=7.84D-08 Max=2.69D-06 NDo=     1
 LinEq1:  Iter= 33 NonCon=     1 RMS=5.06D-08 Max=1.59D-06 NDo=     1
 LinEq1:  Iter= 34 NonCon=     1 RMS=2.89D-08 Max=1.24D-06 NDo=     1
 LinEq1:  Iter= 35 NonCon=     1 RMS=1.66D-08 Max=5.39D-07 NDo=     1
 LinEq1:  Iter= 36 NonCon=     1 RMS=1.29D-08 Max=4.34D-07 NDo=     1
 LinEq1:  Iter= 37 NonCon=     0 RMS=8.21D-09 Max=2.04D-07 NDo=     1
 Linear equations converged to 2.945D-08 2.945D-07 after    37 iterations.
 LinEq1:  Iter=  0 NonCon=     1 RMS=1.21D-04 Max=7.17D-03 NDo=     1
 LinEq1:  Iter=  1 NonCon=     1 RMS=1.94D-04 Max=7.52D-03 NDo=     1
 LinEq1:  Iter=  2 NonCon=     1 RMS=1.17D-04 Max=2.67D-03 NDo=     1
 LinEq1:  Iter=  3 NonCon=     1 RMS=1.21D-04 Max=3.52D-03 NDo=     1
 LinEq1:  Iter=  4 NonCon=     1 RMS=1.15D-04 Max=3.62D-03 NDo=     1
 LinEq1:  Iter=  5 NonCon=     1 RMS=1.17D-04 Max=2.82D-03 NDo=     1
 LinEq1:  Iter=  6 NonCon=     1 RMS=1.03D-04 Max=4.12D-03 NDo=     1
 LinEq1:  Iter=  7 NonCon=     1 RMS=1.32D-04 Max=3.51D-03 NDo=     1
 LinEq1:  Iter=  8 NonCon=     1 RMS=9.65D-05 Max=3.12D-03 NDo=     1
 LinEq1:  Iter=  9 NonCon=     1 RMS=9.36D-05 Max=3.22D-03 NDo=     1
 LinEq1:  Iter= 10 NonCon=     1 RMS=8.74D-05 Max=1.98D-03 NDo=     1
 LinEq1:  Iter= 11 NonCon=     1 RMS=8.82D-05 Max=3.08D-03 NDo=     1
 LinEq1:  Iter= 12 NonCon=     1 RMS=9.84D-05 Max=2.44D-03 NDo=     1
 LinEq1:  Iter= 13 NonCon=     1 RMS=9.47D-05 Max=2.77D-03 NDo=     1
 LinEq1:  Iter= 14 NonCon=     1 RMS=9.27D-05 Max=2.65D-03 NDo=     1
 LinEq1:  Iter= 15 NonCon=     1 RMS=9.32D-05 Max=2.32D-03 NDo=     1
 LinEq1:  Iter= 16 NonCon=     1 RMS=7.08D-05 Max=1.94D-03 NDo=     1
 LinEq1:  Iter= 17 NonCon=     1 RMS=5.76D-05 Max=1.18D-03 NDo=     1
 LinEq1:  Iter= 18 NonCon=     1 RMS=4.81D-05 Max=9.49D-04 NDo=     1
 LinEq1:  Iter= 19 NonCon=     1 RMS=4.66D-05 Max=9.58D-04 NDo=     1
 LinEq1:  Iter= 20 NonCon=     1 RMS=4.75D-05 Max=1.13D-03 NDo=     1
 LinEq1:  Iter= 21 NonCon=     1 RMS=3.38D-05 Max=7.25D-04 NDo=     1
 LinEq1:  Iter= 22 NonCon=     1 RMS=2.13D-05 Max=5.95D-04 NDo=     1
 LinEq1:  Iter= 23 NonCon=     1 RMS=1.52D-05 Max=3.49D-04 NDo=     1
 LinEq1:  Iter= 24 NonCon=     1 RMS=9.01D-06 Max=2.72D-04 NDo=     1
 LinEq1:  Iter= 25 NonCon=     1 RMS=7.92D-06 Max=2.08D-04 NDo=     1
 LinEq1:  Iter= 26 NonCon=     1 RMS=5.32D-06 Max=1.53D-04 NDo=     1
 LinEq1:  Iter= 27 NonCon=     1 RMS=2.46D-06 Max=5.34D-05 NDo=     1
 LinEq1:  Iter= 28 NonCon=     1 RMS=1.95D-06 Max=4.64D-05 NDo=     1
 LinEq1:  Iter= 29 NonCon=     1 RMS=1.32D-06 Max=4.15D-05 NDo=     1
 LinEq1:  Iter= 30 NonCon=     1 RMS=6.21D-07 Max=1.28D-05 NDo=     1
 LinEq1:  Iter= 31 NonCon=     1 RMS=4.27D-07 Max=9.55D-06 NDo=     1
 LinEq1:  Iter= 32 NonCon=     1 RMS=2.63D-07 Max=4.21D-06 NDo=     1
 LinEq1:  Iter= 33 NonCon=     1 RMS=1.25D-07 Max=3.18D-06 NDo=     1
 LinEq1:  Iter= 34 NonCon=     1 RMS=1.00D-07 Max=1.59D-06 NDo=     1
 LinEq1:  Iter= 35 NonCon=     1 RMS=5.61D-08 Max=1.21D-06 NDo=     1
 LinEq1:  Iter= 36 NonCon=     1 RMS=3.73D-08 Max=9.68D-07 NDo=     1
 LinEq1:  Iter= 37 NonCon=     1 RMS=2.01D-08 Max=4.51D-07 NDo=     1
 LinEq1:  Iter= 38 NonCon=     1 RMS=1.26D-08 Max=3.72D-07 NDo=     1
 LinEq1:  Iter= 39 NonCon=     0 RMS=8.62D-09 Max=2.14D-07 NDo=     1
 Linear equations converged to 2.945D-08 2.945D-07 after    39 iterations.
 Gradient too large for Newton-Raphson -- use scaled steepest descent instead.
     Accept linear search using points  2 and  3.
 LinEq1:  Iter=  0 NonCon=     1 RMS=1.17D-04 Max=6.15D-03 NDo=     1
 LinEq1:  Iter=  1 NonCon=     1 RMS=2.06D-04 Max=7.11D-03 NDo=     1
 LinEq1:  Iter=  2 NonCon=     1 RMS=1.07D-04 Max=3.45D-03 NDo=     1
 LinEq1:  Iter=  3 NonCon=     1 RMS=1.27D-04 Max=4.75D-03 NDo=     1
 LinEq1:  Iter=  4 NonCon=     1 RMS=1.23D-04 Max=3.24D-03 NDo=     1
 LinEq1:  Iter=  5 NonCon=     1 RMS=9.69D-05 Max=2.95D-03 NDo=     1
 LinEq1:  Iter=  6 NonCon=     1 RMS=1.29D-04 Max=2.67D-03 NDo=     1
 LinEq1:  Iter=  7 NonCon=     1 RMS=9.79D-05 Max=2.75D-03 NDo=     1
 LinEq1:  Iter=  8 NonCon=     1 RMS=1.09D-04 Max=3.08D-03 NDo=     1
 LinEq1:  Iter=  9 NonCon=     1 RMS=9.53D-05 Max=3.10D-03 NDo=     1
 LinEq1:  Iter= 10 NonCon=     1 RMS=1.13D-04 Max=2.80D-03 NDo=     1
 LinEq1:  Iter= 11 NonCon=     1 RMS=9.68D-05 Max=2.90D-03 NDo=     1
 LinEq1:  Iter= 12 NonCon=     1 RMS=8.23D-05 Max=2.42D-03 NDo=     1
 LinEq1:  Iter= 13 NonCon=     1 RMS=6.66D-05 Max=1.69D-03 NDo=     1
 LinEq1:  Iter= 14 NonCon=     1 RMS=6.16D-05 Max=2.17D-03 NDo=     1
 LinEq1:  Iter= 15 NonCon=     1 RMS=5.68D-05 Max=1.96D-03 NDo=     1
 LinEq1:  Iter= 16 NonCon=     1 RMS=5.50D-05 Max=1.46D-03 NDo=     1
 LinEq1:  Iter= 17 NonCon=     1 RMS=4.51D-05 Max=1.23D-03 NDo=     1
 LinEq1:  Iter= 18 NonCon=     1 RMS=3.40D-05 Max=1.09D-03 NDo=     1
 LinEq1:  Iter= 19 NonCon=     1 RMS=2.44D-05 Max=9.88D-04 NDo=     1
 LinEq1:  Iter= 20 NonCon=     1 RMS=2.63D-05 Max=9.08D-04 NDo=     1
 LinEq1:  Iter= 21 NonCon=     1 RMS=2.04D-05 Max=5.44D-04 NDo=     1
 LinEq1:  Iter= 22 NonCon=     1 RMS=1.56D-05 Max=5.73D-04 NDo=     1
 LinEq1:  Iter= 23 NonCon=     1 RMS=1.02D-05 Max=2.82D-04 NDo=     1
 LinEq1:  Iter= 24 NonCon=     1 RMS=7.79D-06 Max=1.66D-04 NDo=     1
 LinEq1:  Iter= 25 NonCon=     1 RMS=5.38D-06 Max=1.24D-04 NDo=     1
 LinEq1:  Iter= 26 NonCon=     1 RMS=3.08D-06 Max=7.58D-05 NDo=     1
 LinEq1:  Iter= 27 NonCon=     1 RMS=2.43D-06 Max=6.93D-05 NDo=     1
 LinEq1:  Iter= 28 NonCon=     1 RMS=1.37D-06 Max=4.24D-05 NDo=     1
 LinEq1:  Iter= 29 NonCon=     1 RMS=8.47D-07 Max=2.53D-05 NDo=     1
 LinEq1:  Iter= 30 NonCon=     1 RMS=6.14D-07 Max=1.74D-05 NDo=     1
 LinEq1:  Iter= 31 NonCon=     1 RMS=3.52D-07 Max=7.73D-06 NDo=     1
 LinEq1:  Iter= 32 NonCon=     1 RMS=2.40D-07 Max=5.83D-06 NDo=     1
 LinEq1:  Iter= 33 NonCon=     1 RMS=1.28D-07 Max=3.33D-06 NDo=     1
 LinEq1:  Iter= 34 NonCon=     1 RMS=9.02D-08 Max=2.16D-06 NDo=     1
 LinEq1:  Iter= 35 NonCon=     1 RMS=6.02D-08 Max=1.25D-06 NDo=     1
 LinEq1:  Iter= 36 NonCon=     1 RMS=2.99D-08 Max=6.23D-07 NDo=     1
 LinEq1:  Iter= 37 NonCon=     1 RMS=2.03D-08 Max=3.72D-07 NDo=     1
 LinEq1:  Iter= 38 NonCon=     0 RMS=1.14D-08 Max=2.91D-07 NDo=     1
 Linear equations converged to 2.945D-08 2.945D-07 after    38 iterations.
 LinEq1:  Iter=  0 NonCon=     1 RMS=1.08D-04 Max=5.46D-03 NDo=     1
 LinEq1:  Iter=  1 NonCon=     1 RMS=1.89D-04 Max=6.02D-03 NDo=     1
 LinEq1:  Iter=  2 NonCon=     1 RMS=1.07D-04 Max=4.13D-03 NDo=     1
 LinEq1:  Iter=  3 NonCon=     1 RMS=1.20D-04 Max=4.71D-03 NDo=     1
 LinEq1:  Iter=  4 NonCon=     1 RMS=1.27D-04 Max=3.63D-03 NDo=     1
 LinEq1:  Iter=  5 NonCon=     1 RMS=1.30D-04 Max=3.62D-03 NDo=     1
 LinEq1:  Iter=  6 NonCon=     1 RMS=1.21D-04 Max=3.10D-03 NDo=     1
 LinEq1:  Iter=  7 NonCon=     1 RMS=1.39D-04 Max=4.63D-03 NDo=     1
 LinEq1:  Iter=  8 NonCon=     1 RMS=1.33D-04 Max=3.81D-03 NDo=     1
 LinEq1:  Iter=  9 NonCon=     1 RMS=1.36D-04 Max=4.58D-03 NDo=     1
 LinEq1:  Iter= 10 NonCon=     1 RMS=1.41D-04 Max=4.18D-03 NDo=     1
 LinEq1:  Iter= 11 NonCon=     1 RMS=1.38D-04 Max=3.73D-03 NDo=     1
 LinEq1:  Iter= 12 NonCon=     1 RMS=1.23D-04 Max=3.15D-03 NDo=     1
 LinEq1:  Iter= 13 NonCon=     1 RMS=9.56D-05 Max=2.63D-03 NDo=     1
 LinEq1:  Iter= 14 NonCon=     1 RMS=8.01D-05 Max=3.14D-03 NDo=     1
 LinEq1:  Iter= 15 NonCon=     1 RMS=6.48D-05 Max=1.73D-03 NDo=     1
 LinEq1:  Iter= 16 NonCon=     1 RMS=6.36D-05 Max=2.20D-03 NDo=     1
 LinEq1:  Iter= 17 NonCon=     1 RMS=6.05D-05 Max=1.64D-03 NDo=     1
 LinEq1:  Iter= 18 NonCon=     1 RMS=5.16D-05 Max=1.68D-03 NDo=     1
 LinEq1:  Iter= 19 NonCon=     1 RMS=4.00D-05 Max=1.51D-03 NDo=     1
 LinEq1:  Iter= 20 NonCon=     1 RMS=4.01D-05 Max=1.37D-03 NDo=     1
 LinEq1:  Iter= 21 NonCon=     1 RMS=3.72D-05 Max=1.19D-03 NDo=     1
 LinEq1:  Iter= 22 NonCon=     1 RMS=2.79D-05 Max=7.34D-04 NDo=     1
 LinEq1:  Iter= 23 NonCon=     1 RMS=1.72D-05 Max=5.18D-04 NDo=     1
 LinEq1:  Iter= 24 NonCon=     1 RMS=1.01D-05 Max=2.76D-04 NDo=     1
 LinEq1:  Iter= 25 NonCon=     1 RMS=7.22D-06 Max=1.67D-04 NDo=     1
 LinEq1:  Iter= 26 NonCon=     1 RMS=5.22D-06 Max=1.52D-04 NDo=     1
 LinEq1:  Iter= 27 NonCon=     1 RMS=2.93D-06 Max=8.92D-05 NDo=     1
 LinEq1:  Iter= 28 NonCon=     1 RMS=2.10D-06 Max=6.96D-05 NDo=     1
 LinEq1:  Iter= 29 NonCon=     1 RMS=1.38D-06 Max=5.55D-05 NDo=     1
 LinEq1:  Iter= 30 NonCon=     1 RMS=1.02D-06 Max=3.87D-05 NDo=     1
 LinEq1:  Iter= 31 NonCon=     1 RMS=6.81D-07 Max=2.85D-05 NDo=     1
 LinEq1:  Iter= 32 NonCon=     1 RMS=3.66D-07 Max=1.05D-05 NDo=     1
 LinEq1:  Iter= 33 NonCon=     1 RMS=2.55D-07 Max=6.00D-06 NDo=     1
 LinEq1:  Iter= 34 NonCon=     1 RMS=1.38D-07 Max=2.84D-06 NDo=     1
 LinEq1:  Iter= 35 NonCon=     1 RMS=1.02D-07 Max=2.21D-06 NDo=     1
 LinEq1:  Iter= 36 NonCon=     1 RMS=5.85D-08 Max=1.31D-06 NDo=     1
 LinEq1:  Iter= 37 NonCon=     1 RMS=3.32D-08 Max=6.72D-07 NDo=     1
 LinEq1:  Iter= 38 NonCon=     1 RMS=2.36D-08 Max=5.94D-07 NDo=     1
 LinEq1:  Iter= 39 NonCon=     1 RMS=1.35D-08 Max=3.37D-07 NDo=     1
 LinEq1:  Iter= 40 NonCon=     0 RMS=5.91D-09 Max=1.85D-07 NDo=     1
 Linear equations converged to 2.945D-08 2.945D-07 after    40 iterations.
 Incorrect curvature in search direction -- initial direction reversed.
 Gradient too large for Newton-Raphson -- use scaled steepest descent instead.
     Accept linear search using points  1 and  2.
 LinEq1:  Iter=  0 NonCon=     1 RMS=8.11D-05 Max=4.47D-03 NDo=     1
 LinEq1:  Iter=  1 NonCon=     1 RMS=9.62D-05 Max=4.12D-03 NDo=     1
 LinEq1:  Iter=  2 NonCon=     1 RMS=6.58D-05 Max=3.01D-03 NDo=     1
 LinEq1:  Iter=  3 NonCon=     1 RMS=4.79D-05 Max=1.24D-03 NDo=     1
 LinEq1:  Iter=  4 NonCon=     1 RMS=5.91D-05 Max=1.55D-03 NDo=     1
 LinEq1:  Iter=  5 NonCon=     1 RMS=5.75D-05 Max=1.27D-03 NDo=     1
 LinEq1:  Iter=  6 NonCon=     1 RMS=5.25D-05 Max=1.68D-03 NDo=     1
 LinEq1:  Iter=  7 NonCon=     1 RMS=5.98D-05 Max=1.85D-03 NDo=     1
 LinEq1:  Iter=  8 NonCon=     1 RMS=6.17D-05 Max=2.11D-03 NDo=     1
 LinEq1:  Iter=  9 NonCon=     1 RMS=5.36D-05 Max=1.58D-03 NDo=     1
 LinEq1:  Iter= 10 NonCon=     1 RMS=5.63D-05 Max=1.91D-03 NDo=     1
 LinEq1:  Iter= 11 NonCon=     1 RMS=5.57D-05 Max=1.33D-03 NDo=     1
 LinEq1:  Iter= 12 NonCon=     1 RMS=4.11D-05 Max=1.21D-03 NDo=     1
 LinEq1:  Iter= 13 NonCon=     1 RMS=3.30D-05 Max=1.11D-03 NDo=     1
 LinEq1:  Iter= 14 NonCon=     1 RMS=2.67D-05 Max=6.63D-04 NDo=     1
 LinEq1:  Iter= 15 NonCon=     1 RMS=2.86D-05 Max=7.31D-04 NDo=     1
 LinEq1:  Iter= 16 NonCon=     1 RMS=2.56D-05 Max=7.01D-04 NDo=     1
 LinEq1:  Iter= 17 NonCon=     1 RMS=2.03D-05 Max=6.53D-04 NDo=     1
 LinEq1:  Iter= 18 NonCon=     1 RMS=1.41D-05 Max=5.56D-04 NDo=     1
 LinEq1:  Iter= 19 NonCon=     1 RMS=1.18D-05 Max=3.57D-04 NDo=     1
 LinEq1:  Iter= 20 NonCon=     1 RMS=1.09D-05 Max=3.36D-04 NDo=     1
 LinEq1:  Iter= 21 NonCon=     1 RMS=9.82D-06 Max=2.58D-04 NDo=     1
 LinEq1:  Iter= 22 NonCon=     1 RMS=6.70D-06 Max=2.16D-04 NDo=     1
 LinEq1:  Iter= 23 NonCon=     1 RMS=5.51D-06 Max=1.67D-04 NDo=     1
 LinEq1:  Iter= 24 NonCon=     1 RMS=5.17D-06 Max=1.55D-04 NDo=     1
 LinEq1:  Iter= 25 NonCon=     1 RMS=3.04D-06 Max=1.03D-04 NDo=     1
 LinEq1:  Iter= 26 NonCon=     1 RMS=2.41D-06 Max=6.71D-05 NDo=     1
 LinEq1:  Iter= 27 NonCon=     1 RMS=1.48D-06 Max=4.72D-05 NDo=     1
 LinEq1:  Iter= 28 NonCon=     1 RMS=1.04D-06 Max=3.35D-05 NDo=     1
 LinEq1:  Iter= 29 NonCon=     1 RMS=7.48D-07 Max=2.77D-05 NDo=     1
 LinEq1:  Iter= 30 NonCon=     1 RMS=4.24D-07 Max=1.43D-05 NDo=     1
 LinEq1:  Iter= 31 NonCon=     1 RMS=3.24D-07 Max=8.64D-06 NDo=     1
 LinEq1:  Iter= 32 NonCon=     1 RMS=2.14D-07 Max=6.43D-06 NDo=     1
 LinEq1:  Iter= 33 NonCon=     1 RMS=1.35D-07 Max=2.40D-06 NDo=     1
 LinEq1:  Iter= 34 NonCon=     1 RMS=8.68D-08 Max=2.52D-06 NDo=     1
 LinEq1:  Iter= 35 NonCon=     1 RMS=4.33D-08 Max=9.36D-07 NDo=     1
 LinEq1:  Iter= 36 NonCon=     1 RMS=3.29D-08 Max=7.65D-07 NDo=     1
 LinEq1:  Iter= 37 NonCon=     1 RMS=2.02D-08 Max=4.71D-07 NDo=     1
 LinEq1:  Iter= 38 NonCon=     0 RMS=1.09D-08 Max=2.91D-07 NDo=     1
 Linear equations converged to 2.945D-08 2.945D-07 after    38 iterations.
 Incorrect curvature in search direction -- initial direction reversed.
 LinEq1:  Iter=  0 NonCon=     1 RMS=9.83D-05 Max=5.06D-03 NDo=     1
 LinEq1:  Iter=  1 NonCon=     1 RMS=1.20D-04 Max=5.21D-03 NDo=     1
 LinEq1:  Iter=  2 NonCon=     1 RMS=1.03D-04 Max=3.78D-03 NDo=     1
 LinEq1:  Iter=  3 NonCon=     1 RMS=9.83D-05 Max=3.12D-03 NDo=     1
 LinEq1:  Iter=  4 NonCon=     1 RMS=7.02D-05 Max=1.70D-03 NDo=     1
 LinEq1:  Iter=  5 NonCon=     1 RMS=9.23D-05 Max=1.84D-03 NDo=     1
 LinEq1:  Iter=  6 NonCon=     1 RMS=8.18D-05 Max=3.39D-03 NDo=     1
 LinEq1:  Iter=  7 NonCon=     1 RMS=9.11D-05 Max=3.03D-03 NDo=     1
 LinEq1:  Iter=  8 NonCon=     1 RMS=9.75D-05 Max=4.37D-03 NDo=     1
 LinEq1:  Iter=  9 NonCon=     1 RMS=9.02D-05 Max=2.34D-03 NDo=     1
 LinEq1:  Iter= 10 NonCon=     1 RMS=8.41D-05 Max=2.51D-03 NDo=     1
 LinEq1:  Iter= 11 NonCon=     1 RMS=9.48D-05 Max=2.71D-03 NDo=     1
 LinEq1:  Iter= 12 NonCon=     1 RMS=7.36D-05 Max=2.93D-03 NDo=     1
 LinEq1:  Iter= 13 NonCon=     1 RMS=7.07D-05 Max=3.02D-03 NDo=     1
 LinEq1:  Iter= 14 NonCon=     1 RMS=5.95D-05 Max=2.42D-03 NDo=     1
 LinEq1:  Iter= 15 NonCon=     1 RMS=5.39D-05 Max=1.70D-03 NDo=     1
 LinEq1:  Iter= 16 NonCon=     1 RMS=5.62D-05 Max=1.76D-03 NDo=     1
 LinEq1:  Iter= 17 NonCon=     1 RMS=4.34D-05 Max=1.11D-03 NDo=     1
 LinEq1:  Iter= 18 NonCon=     1 RMS=3.75D-05 Max=1.14D-03 NDo=     1
 LinEq1:  Iter= 19 NonCon=     1 RMS=2.99D-05 Max=1.08D-03 NDo=     1
 LinEq1:  Iter= 20 NonCon=     1 RMS=2.60D-05 Max=7.18D-04 NDo=     1
 LinEq1:  Iter= 21 NonCon=     1 RMS=2.63D-05 Max=4.91D-04 NDo=     1
 LinEq1:  Iter= 22 NonCon=     1 RMS=1.65D-05 Max=3.85D-04 NDo=     1
 LinEq1:  Iter= 23 NonCon=     1 RMS=1.43D-05 Max=4.21D-04 NDo=     1
 LinEq1:  Iter= 24 NonCon=     1 RMS=8.38D-06 Max=1.78D-04 NDo=     1
 LinEq1:  Iter= 25 NonCon=     1 RMS=6.09D-06 Max=1.64D-04 NDo=     1
 LinEq1:  Iter= 26 NonCon=     1 RMS=4.27D-06 Max=1.05D-04 NDo=     1
 LinEq1:  Iter= 27 NonCon=     1 RMS=2.19D-06 Max=6.06D-05 NDo=     1
 LinEq1:  Iter= 28 NonCon=     1 RMS=1.60D-06 Max=3.94D-05 NDo=     1
 LinEq1:  Iter= 29 NonCon=     1 RMS=1.04D-06 Max=2.87D-05 NDo=     1
 LinEq1:  Iter= 30 NonCon=     1 RMS=6.11D-07 Max=1.71D-05 NDo=     1
 LinEq1:  Iter= 31 NonCon=     1 RMS=4.81D-07 Max=1.49D-05 NDo=     1
 LinEq1:  Iter= 32 NonCon=     1 RMS=2.97D-07 Max=7.98D-06 NDo=     1
 LinEq1:  Iter= 33 NonCon=     1 RMS=2.11D-07 Max=4.65D-06 NDo=     1
 LinEq1:  Iter= 34 NonCon=     1 RMS=1.20D-07 Max=3.32D-06 NDo=     1
 LinEq1:  Iter= 35 NonCon=     1 RMS=9.19D-08 Max=2.82D-06 NDo=     1
 LinEq1:  Iter= 36 NonCon=     1 RMS=6.00D-08 Max=1.48D-06 NDo=     1
 LinEq1:  Iter= 37 NonCon=     1 RMS=3.35D-08 Max=7.60D-07 NDo=     1
 LinEq1:  Iter= 38 NonCon=     1 RMS=2.21D-08 Max=3.87D-07 NDo=     1
 LinEq1:  Iter= 39 NonCon=     1 RMS=1.21D-08 Max=2.98D-07 NDo=     1
 LinEq1:  Iter= 40 NonCon=     0 RMS=6.08D-09 Max=1.15D-07 NDo=     1
 Linear equations converged to 2.945D-08 2.945D-07 after    40 iterations.
 Incorrect curvature in search direction -- initial direction reversed.
 Gradient too large for Newton-Raphson -- use scaled steepest descent instead.
     Accept linear search using points  2 and  3.
 Gradient too large for Newton-Raphson -- use scaled steepest descent instead.
     Accept linear search using points  1 and  2.
 LinEq1:  Iter=  0 NonCon=     1 RMS=8.78D-05 Max=4.94D-03 NDo=     1
 LinEq1:  Iter=  1 NonCon=     1 RMS=8.49D-05 Max=3.55D-03 NDo=     1
 LinEq1:  Iter=  2 NonCon=     1 RMS=6.35D-05 Max=3.02D-03 NDo=     1
 LinEq1:  Iter=  3 NonCon=     1 RMS=4.60D-05 Max=1.32D-03 NDo=     1
 LinEq1:  Iter=  4 NonCon=     1 RMS=3.20D-05 Max=7.34D-04 NDo=     1
 LinEq1:  Iter=  5 NonCon=     1 RMS=4.66D-05 Max=2.25D-03 NDo=     1
 LinEq1:  Iter=  6 NonCon=     1 RMS=2.95D-05 Max=8.47D-04 NDo=     1
 LinEq1:  Iter=  7 NonCon=     1 RMS=3.55D-05 Max=1.83D-03 NDo=     1
 LinEq1:  Iter=  8 NonCon=     1 RMS=3.66D-05 Max=1.05D-03 NDo=     1
 LinEq1:  Iter=  9 NonCon=     1 RMS=3.76D-05 Max=2.37D-03 NDo=     1
 LinEq1:  Iter= 10 NonCon=     1 RMS=3.45D-05 Max=1.87D-03 NDo=     1
 LinEq1:  Iter= 11 NonCon=     1 RMS=3.88D-05 Max=2.49D-03 NDo=     1
 LinEq1:  Iter= 12 NonCon=     1 RMS=3.86D-05 Max=2.39D-03 NDo=     1
 LinEq1:  Iter= 13 NonCon=     1 RMS=2.71D-05 Max=1.60D-03 NDo=     1
 LinEq1:  Iter= 14 NonCon=     1 RMS=2.06D-05 Max=9.80D-04 NDo=     1
 LinEq1:  Iter= 15 NonCon=     1 RMS=1.89D-05 Max=6.96D-04 NDo=     1
 LinEq1:  Iter= 16 NonCon=     1 RMS=1.67D-05 Max=7.27D-04 NDo=     1
 LinEq1:  Iter= 17 NonCon=     1 RMS=1.54D-05 Max=4.07D-04 NDo=     1
 LinEq1:  Iter= 18 NonCon=     1 RMS=1.28D-05 Max=3.65D-04 NDo=     1
 LinEq1:  Iter= 19 NonCon=     1 RMS=1.14D-05 Max=2.65D-04 NDo=     1
 LinEq1:  Iter= 20 NonCon=     1 RMS=7.65D-06 Max=2.05D-04 NDo=     1
 LinEq1:  Iter= 21 NonCon=     1 RMS=6.02D-06 Max=1.18D-04 NDo=     1
 LinEq1:  Iter= 22 NonCon=     1 RMS=4.96D-06 Max=9.64D-05 NDo=     1
 LinEq1:  Iter= 23 NonCon=     1 RMS=4.95D-06 Max=1.15D-04 NDo=     1
 LinEq1:  Iter= 24 NonCon=     1 RMS=3.46D-06 Max=1.25D-04 NDo=     1
 LinEq1:  Iter= 25 NonCon=     1 RMS=2.91D-06 Max=7.96D-05 NDo=     1
 LinEq1:  Iter= 26 NonCon=     1 RMS=1.68D-06 Max=5.21D-05 NDo=     1
 LinEq1:  Iter= 27 NonCon=     1 RMS=1.16D-06 Max=3.38D-05 NDo=     1
 LinEq1:  Iter= 28 NonCon=     1 RMS=7.86D-07 Max=2.61D-05 NDo=     1
 LinEq1:  Iter= 29 NonCon=     1 RMS=4.43D-07 Max=1.50D-05 NDo=     1
 LinEq1:  Iter= 30 NonCon=     1 RMS=2.83D-07 Max=7.14D-06 NDo=     1
 LinEq1:  Iter= 31 NonCon=     1 RMS=2.05D-07 Max=6.28D-06 NDo=     1
 LinEq1:  Iter= 32 NonCon=     1 RMS=1.12D-07 Max=2.30D-06 NDo=     1
 LinEq1:  Iter= 33 NonCon=     1 RMS=7.98D-08 Max=1.35D-06 NDo=     1
 LinEq1:  Iter= 34 NonCon=     1 RMS=4.85D-08 Max=8.69D-07 NDo=     1
 LinEq1:  Iter= 35 NonCon=     1 RMS=3.25D-08 Max=8.74D-07 NDo=     1
 LinEq1:  Iter= 36 NonCon=     1 RMS=2.08D-08 Max=6.79D-07 NDo=     1
 LinEq1:  Iter= 37 NonCon=     1 RMS=1.29D-08 Max=4.38D-07 NDo=     1
 LinEq1:  Iter= 38 NonCon=     1 RMS=9.29D-09 Max=3.14D-07 NDo=     1
 LinEq1:  Iter= 39 NonCon=     0 RMS=5.40D-09 Max=1.49D-07 NDo=     1
 Linear equations converged to 2.945D-08 2.945D-07 after    39 iterations.
 LinEq1:  Iter=  0 NonCon=     1 RMS=7.54D-05 Max=3.45D-03 NDo=     1
 LinEq1:  Iter=  1 NonCon=     1 RMS=1.10D-04 Max=3.94D-03 NDo=     1
 LinEq1:  Iter=  2 NonCon=     1 RMS=9.32D-05 Max=3.64D-03 NDo=     1
 LinEq1:  Iter=  3 NonCon=     1 RMS=1.01D-04 Max=4.93D-03 NDo=     1
 LinEq1:  Iter=  4 NonCon=     1 RMS=1.05D-04 Max=3.48D-03 NDo=     1
 LinEq1:  Iter=  5 NonCon=     1 RMS=9.69D-05 Max=3.11D-03 NDo=     1
 LinEq1:  Iter=  6 NonCon=     1 RMS=9.56D-05 Max=3.56D-03 NDo=     1
 LinEq1:  Iter=  7 NonCon=     1 RMS=1.21D-04 Max=3.22D-03 NDo=     1
 LinEq1:  Iter=  8 NonCon=     1 RMS=9.62D-05 Max=5.31D-03 NDo=     1
 LinEq1:  Iter=  9 NonCon=     1 RMS=1.05D-04 Max=6.44D-03 NDo=     1
 LinEq1:  Iter= 10 NonCon=     1 RMS=1.02D-04 Max=5.37D-03 NDo=     1
 LinEq1:  Iter= 11 NonCon=     1 RMS=1.09D-04 Max=7.08D-03 NDo=     1
 LinEq1:  Iter= 12 NonCon=     1 RMS=9.68D-05 Max=6.03D-03 NDo=     1
 LinEq1:  Iter= 13 NonCon=     1 RMS=9.12D-05 Max=5.32D-03 NDo=     1
 LinEq1:  Iter= 14 NonCon=     1 RMS=8.57D-05 Max=3.90D-03 NDo=     1
 LinEq1:  Iter= 15 NonCon=     1 RMS=9.27D-05 Max=3.75D-03 NDo=     1
 LinEq1:  Iter= 16 NonCon=     1 RMS=6.64D-05 Max=2.41D-03 NDo=     1
 LinEq1:  Iter= 17 NonCon=     1 RMS=5.44D-05 Max=1.50D-03 NDo=     1
 LinEq1:  Iter= 18 NonCon=     1 RMS=3.11D-05 Max=5.74D-04 NDo=     1
 LinEq1:  Iter= 19 NonCon=     1 RMS=2.37D-05 Max=4.76D-04 NDo=     1
 LinEq1:  Iter= 20 NonCon=     1 RMS=1.88D-05 Max=4.40D-04 NDo=     1
 LinEq1:  Iter= 21 NonCon=     1 RMS=1.98D-05 Max=3.79D-04 NDo=     1
 LinEq1:  Iter= 22 NonCon=     1 RMS=1.55D-05 Max=5.05D-04 NDo=     1
 LinEq1:  Iter= 23 NonCon=     1 RMS=1.05D-05 Max=2.85D-04 NDo=     1
 LinEq1:  Iter= 24 NonCon=     1 RMS=7.16D-06 Max=2.51D-04 NDo=     1
 LinEq1:  Iter= 25 NonCon=     1 RMS=4.13D-06 Max=1.73D-04 NDo=     1
 LinEq1:  Iter= 26 NonCon=     1 RMS=3.11D-06 Max=1.75D-04 NDo=     1
 LinEq1:  Iter= 27 NonCon=     1 RMS=1.76D-06 Max=5.20D-05 NDo=     1
 LinEq1:  Iter= 28 NonCon=     1 RMS=1.51D-06 Max=4.81D-05 NDo=     1
 LinEq1:  Iter= 29 NonCon=     1 RMS=9.20D-07 Max=3.05D-05 NDo=     1
 LinEq1:  Iter= 30 NonCon=     1 RMS=5.66D-07 Max=1.11D-05 NDo=     1
 LinEq1:  Iter= 31 NonCon=     1 RMS=4.53D-07 Max=7.74D-06 NDo=     1
 LinEq1:  Iter= 32 NonCon=     1 RMS=2.88D-07 Max=6.42D-06 NDo=     1
 LinEq1:  Iter= 33 NonCon=     1 RMS=1.44D-07 Max=2.60D-06 NDo=     1
 LinEq1:  Iter= 34 NonCon=     1 RMS=9.80D-08 Max=2.17D-06 NDo=     1
 LinEq1:  Iter= 35 NonCon=     1 RMS=5.98D-08 Max=1.11D-06 NDo=     1
 LinEq1:  Iter= 36 NonCon=     1 RMS=4.16D-08 Max=8.41D-07 NDo=     1
 LinEq1:  Iter= 37 NonCon=     1 RMS=2.35D-08 Max=6.11D-07 NDo=     1
 LinEq1:  Iter= 38 NonCon=     0 RMS=1.32D-08 Max=2.76D-07 NDo=     1
 Linear equations converged to 2.945D-08 2.945D-07 after    38 iterations.
 LinEq1:  Iter=  0 NonCon=     1 RMS=7.80D-05 Max=1.97D-03 NDo=     1
 LinEq1:  Iter=  1 NonCon=     1 RMS=1.32D-04 Max=4.81D-03 NDo=     1
 LinEq1:  Iter=  2 NonCon=     1 RMS=1.04D-04 Max=3.59D-03 NDo=     1
 LinEq1:  Iter=  3 NonCon=     1 RMS=1.05D-04 Max=5.30D-03 NDo=     1
 LinEq1:  Iter=  4 NonCon=     1 RMS=1.08D-04 Max=4.91D-03 NDo=     1
 LinEq1:  Iter=  5 NonCon=     1 RMS=1.06D-04 Max=4.11D-03 NDo=     1
 LinEq1:  Iter=  6 NonCon=     1 RMS=9.74D-05 Max=4.52D-03 NDo=     1
 LinEq1:  Iter=  7 NonCon=     1 RMS=1.21D-04 Max=3.63D-03 NDo=     1
 LinEq1:  Iter=  8 NonCon=     1 RMS=8.35D-05 Max=2.75D-03 NDo=     1
 LinEq1:  Iter=  9 NonCon=     1 RMS=8.10D-05 Max=4.27D-03 NDo=     1
 LinEq1:  Iter= 10 NonCon=     1 RMS=8.58D-05 Max=3.76D-03 NDo=     1
 LinEq1:  Iter= 11 NonCon=     1 RMS=8.86D-05 Max=6.40D-03 NDo=     1
 LinEq1:  Iter= 12 NonCon=     1 RMS=7.29D-05 Max=4.90D-03 NDo=     1
 LinEq1:  Iter= 13 NonCon=     1 RMS=7.47D-05 Max=4.87D-03 NDo=     1
 LinEq1:  Iter= 14 NonCon=     1 RMS=7.24D-05 Max=4.12D-03 NDo=     1
 LinEq1:  Iter= 15 NonCon=     1 RMS=7.26D-05 Max=3.43D-03 NDo=     1
 LinEq1:  Iter= 16 NonCon=     1 RMS=5.53D-05 Max=2.03D-03 NDo=     1
 LinEq1:  Iter= 17 NonCon=     1 RMS=4.77D-05 Max=1.63D-03 NDo=     1
 LinEq1:  Iter= 18 NonCon=     1 RMS=3.09D-05 Max=7.65D-04 NDo=     1
 LinEq1:  Iter= 19 NonCon=     1 RMS=2.66D-05 Max=6.86D-04 NDo=     1
 LinEq1:  Iter= 20 NonCon=     1 RMS=2.34D-05 Max=5.93D-04 NDo=     1
 LinEq1:  Iter= 21 NonCon=     1 RMS=2.28D-05 Max=5.44D-04 NDo=     1
 LinEq1:  Iter= 22 NonCon=     1 RMS=1.52D-05 Max=2.55D-04 NDo=     1
 LinEq1:  Iter= 23 NonCon=     1 RMS=1.04D-05 Max=1.76D-04 NDo=     1
 LinEq1:  Iter= 24 NonCon=     1 RMS=5.77D-06 Max=1.20D-04 NDo=     1
 LinEq1:  Iter= 25 NonCon=     1 RMS=3.56D-06 Max=1.11D-04 NDo=     1
 LinEq1:  Iter= 26 NonCon=     1 RMS=2.55D-06 Max=9.79D-05 NDo=     1
 LinEq1:  Iter= 27 NonCon=     1 RMS=1.31D-06 Max=4.48D-05 NDo=     1
 LinEq1:  Iter= 28 NonCon=     1 RMS=1.02D-06 Max=3.08D-05 NDo=     1
 LinEq1:  Iter= 29 NonCon=     1 RMS=5.98D-07 Max=2.18D-05 NDo=     1
 LinEq1:  Iter= 30 NonCon=     1 RMS=3.95D-07 Max=1.44D-05 NDo=     1
 LinEq1:  Iter= 31 NonCon=     1 RMS=3.08D-07 Max=9.88D-06 NDo=     1
 LinEq1:  Iter= 32 NonCon=     1 RMS=2.14D-07 Max=7.12D-06 NDo=     1
 LinEq1:  Iter= 33 NonCon=     1 RMS=1.47D-07 Max=4.82D-06 NDo=     1
 LinEq1:  Iter= 34 NonCon=     1 RMS=9.20D-08 Max=2.51D-06 NDo=     1
 LinEq1:  Iter= 35 NonCon=     1 RMS=6.51D-08 Max=1.71D-06 NDo=     1
 LinEq1:  Iter= 36 NonCon=     1 RMS=4.01D-08 Max=7.85D-07 NDo=     1
 LinEq1:  Iter= 37 NonCon=     1 RMS=2.40D-08 Max=4.16D-07 NDo=     1
 LinEq1:  Iter= 38 NonCon=     1 RMS=1.83D-08 Max=3.34D-07 NDo=     1
 LinEq1:  Iter= 39 NonCon=     0 RMS=9.55D-09 Max=1.64D-07 NDo=     1
 Linear equations converged to 2.945D-08 2.945D-07 after    39 iterations.
     Minimum is close to point  2 DX=  5.77D-02 DF= -2.54D-06 DXR=  5.45D-02 DFR=  2.98D-03 which will be used.
 LinEq1:  Iter=  0 NonCon=     1 RMS=6.45D-05 Max=1.65D-03 NDo=     1
 LinEq1:  Iter=  1 NonCon=     1 RMS=1.06D-04 Max=5.10D-03 NDo=     1
 LinEq1:  Iter=  2 NonCon=     1 RMS=8.50D-05 Max=1.90D-03 NDo=     1
 LinEq1:  Iter=  3 NonCon=     1 RMS=7.95D-05 Max=3.39D-03 NDo=     1
 LinEq1:  Iter=  4 NonCon=     1 RMS=7.77D-05 Max=2.18D-03 NDo=     1
 LinEq1:  Iter=  5 NonCon=     1 RMS=6.98D-05 Max=2.20D-03 NDo=     1
 LinEq1:  Iter=  6 NonCon=     1 RMS=5.78D-05 Max=1.91D-03 NDo=     1
 LinEq1:  Iter=  7 NonCon=     1 RMS=6.87D-05 Max=2.96D-03 NDo=     1
 LinEq1:  Iter=  8 NonCon=     1 RMS=6.10D-05 Max=1.59D-03 NDo=     1
 LinEq1:  Iter=  9 NonCon=     1 RMS=5.00D-05 Max=1.58D-03 NDo=     1
 LinEq1:  Iter= 10 NonCon=     1 RMS=3.29D-05 Max=6.97D-04 NDo=     1
 LinEq1:  Iter= 11 NonCon=     1 RMS=3.92D-05 Max=1.43D-03 NDo=     1
 LinEq1:  Iter= 12 NonCon=     1 RMS=3.83D-05 Max=1.22D-03 NDo=     1
 LinEq1:  Iter= 13 NonCon=     1 RMS=3.32D-05 Max=1.10D-03 NDo=     1
 LinEq1:  Iter= 14 NonCon=     1 RMS=3.29D-05 Max=1.04D-03 NDo=     1
 LinEq1:  Iter= 15 NonCon=     1 RMS=3.93D-05 Max=1.81D-03 NDo=     1
 LinEq1:  Iter= 16 NonCon=     1 RMS=2.84D-05 Max=1.33D-03 NDo=     1
 LinEq1:  Iter= 17 NonCon=     1 RMS=2.69D-05 Max=1.47D-03 NDo=     1
 LinEq1:  Iter= 18 NonCon=     1 RMS=2.18D-05 Max=8.32D-04 NDo=     1
 LinEq1:  Iter= 19 NonCon=     1 RMS=2.19D-05 Max=1.14D-03 NDo=     1
 LinEq1:  Iter= 20 NonCon=     1 RMS=1.44D-05 Max=7.36D-04 NDo=     1
 LinEq1:  Iter= 21 NonCon=     1 RMS=1.39D-05 Max=6.12D-04 NDo=     1
 LinEq1:  Iter= 22 NonCon=     1 RMS=9.62D-06 Max=3.14D-04 NDo=     1
 LinEq1:  Iter= 23 NonCon=     1 RMS=7.38D-06 Max=2.92D-04 NDo=     1
 LinEq1:  Iter= 24 NonCon=     1 RMS=4.33D-06 Max=1.21D-04 NDo=     1
 LinEq1:  Iter= 25 NonCon=     1 RMS=3.59D-06 Max=9.70D-05 NDo=     1
 LinEq1:  Iter= 26 NonCon=     1 RMS=2.43D-06 Max=5.23D-05 NDo=     1
 LinEq1:  Iter= 27 NonCon=     1 RMS=1.40D-06 Max=2.67D-05 NDo=     1
 LinEq1:  Iter= 28 NonCon=     1 RMS=1.23D-06 Max=2.76D-05 NDo=     1
 LinEq1:  Iter= 29 NonCon=     1 RMS=6.04D-07 Max=1.17D-05 NDo=     1
 LinEq1:  Iter= 30 NonCon=     1 RMS=3.67D-07 Max=6.44D-06 NDo=     1
 LinEq1:  Iter= 31 NonCon=     1 RMS=2.58D-07 Max=5.03D-06 NDo=     1
 LinEq1:  Iter= 32 NonCon=     1 RMS=1.52D-07 Max=2.84D-06 NDo=     1
 LinEq1:  Iter= 33 NonCon=     1 RMS=1.04D-07 Max=1.81D-06 NDo=     1
 LinEq1:  Iter= 34 NonCon=     1 RMS=6.17D-08 Max=1.03D-06 NDo=     1
 LinEq1:  Iter= 35 NonCon=     1 RMS=4.20D-08 Max=8.87D-07 NDo=     1
 LinEq1:  Iter= 36 NonCon=     1 RMS=2.48D-08 Max=5.57D-07 NDo=     1
 LinEq1:  Iter= 37 NonCon=     0 RMS=1.33D-08 Max=2.69D-07 NDo=     1
 Linear equations converged to 2.945D-08 2.945D-07 after    37 iterations.
     Accept linear search using points  1 and  2.
 LinEq1:  Iter=  0 NonCon=     1 RMS=3.72D-05 Max=6.71D-04 NDo=     1
 LinEq1:  Iter=  1 NonCon=     1 RMS=5.08D-05 Max=1.84D-03 NDo=     1
 LinEq1:  Iter=  2 NonCon=     1 RMS=4.87D-05 Max=9.93D-04 NDo=     1
 LinEq1:  Iter=  3 NonCon=     1 RMS=4.31D-05 Max=2.53D-03 NDo=     1
 LinEq1:  Iter=  4 NonCon=     1 RMS=4.04D-05 Max=1.02D-03 NDo=     1
 LinEq1:  Iter=  5 NonCon=     1 RMS=3.97D-05 Max=1.17D-03 NDo=     1
 LinEq1:  Iter=  6 NonCon=     1 RMS=4.10D-05 Max=1.02D-03 NDo=     1
 LinEq1:  Iter=  7 NonCon=     1 RMS=4.13D-05 Max=1.42D-03 NDo=     1
 LinEq1:  Iter=  8 NonCon=     1 RMS=4.58D-05 Max=1.46D-03 NDo=     1
 LinEq1:  Iter=  9 NonCon=     1 RMS=3.89D-05 Max=1.42D-03 NDo=     1
 LinEq1:  Iter= 10 NonCon=     1 RMS=4.37D-05 Max=1.40D-03 NDo=     1
 LinEq1:  Iter= 11 NonCon=     1 RMS=3.62D-05 Max=1.17D-03 NDo=     1
 LinEq1:  Iter= 12 NonCon=     1 RMS=3.98D-05 Max=1.41D-03 NDo=     1
 LinEq1:  Iter= 13 NonCon=     1 RMS=3.44D-05 Max=1.17D-03 NDo=     1
 LinEq1:  Iter= 14 NonCon=     1 RMS=3.70D-05 Max=2.33D-03 NDo=     1
 LinEq1:  Iter= 15 NonCon=     1 RMS=3.40D-05 Max=1.72D-03 NDo=     1
 LinEq1:  Iter= 16 NonCon=     1 RMS=3.39D-05 Max=2.18D-03 NDo=     1
 LinEq1:  Iter= 17 NonCon=     1 RMS=2.32D-05 Max=1.58D-03 NDo=     1
 LinEq1:  Iter= 18 NonCon=     1 RMS=1.67D-05 Max=1.06D-03 NDo=     1
 LinEq1:  Iter= 19 NonCon=     1 RMS=1.51D-05 Max=7.69D-04 NDo=     1
 LinEq1:  Iter= 20 NonCon=     1 RMS=1.40D-05 Max=6.74D-04 NDo=     1
 LinEq1:  Iter= 21 NonCon=     1 RMS=1.29D-05 Max=4.36D-04 NDo=     1
 LinEq1:  Iter= 22 NonCon=     1 RMS=7.35D-06 Max=2.41D-04 NDo=     1
 LinEq1:  Iter= 23 NonCon=     1 RMS=4.98D-06 Max=1.31D-04 NDo=     1
 LinEq1:  Iter= 24 NonCon=     1 RMS=3.06D-06 Max=7.57D-05 NDo=     1
 LinEq1:  Iter= 25 NonCon=     1 RMS=2.61D-06 Max=7.95D-05 NDo=     1
 LinEq1:  Iter= 26 NonCon=     1 RMS=1.53D-06 Max=3.23D-05 NDo=     1
 LinEq1:  Iter= 27 NonCon=     1 RMS=1.06D-06 Max=2.33D-05 NDo=     1
 LinEq1:  Iter= 28 NonCon=     1 RMS=8.72D-07 Max=1.45D-05 NDo=     1
 LinEq1:  Iter= 29 NonCon=     1 RMS=4.43D-07 Max=8.65D-06 NDo=     1
 LinEq1:  Iter= 30 NonCon=     1 RMS=2.65D-07 Max=5.91D-06 NDo=     1
 LinEq1:  Iter= 31 NonCon=     1 RMS=1.78D-07 Max=3.77D-06 NDo=     1
 LinEq1:  Iter= 32 NonCon=     1 RMS=1.13D-07 Max=1.99D-06 NDo=     1
 LinEq1:  Iter= 33 NonCon=     1 RMS=7.24D-08 Max=1.59D-06 NDo=     1
 LinEq1:  Iter= 34 NonCon=     1 RMS=4.83D-08 Max=9.57D-07 NDo=     1
 LinEq1:  Iter= 35 NonCon=     1 RMS=2.92D-08 Max=7.44D-07 NDo=     1
 LinEq1:  Iter= 36 NonCon=     1 RMS=1.93D-08 Max=3.62D-07 NDo=     1
 LinEq1:  Iter= 37 NonCon=     0 RMS=1.10D-08 Max=1.95D-07 NDo=     1
 Linear equations converged to 2.945D-08 2.945D-07 after    37 iterations.
     Accept linear search using points  2 and  3.
 LinEq1:  Iter=  0 NonCon=     1 RMS=1.71D-05 Max=6.08D-04 NDo=     1
 LinEq1:  Iter=  1 NonCon=     1 RMS=1.82D-05 Max=5.78D-04 NDo=     1
[...]
 ,0.,0.,0.,0.,0.,0.,0.,0.,0.,0.,0.,0.,0.,0.,0.,0.,0.,0.,0.,0.,0.,0.,0.,
 0.,0.,0.,0.,0.,0.,0.,0.,0.,0.,0.,0.,0.,0.,0.,0.,0.,0.,0.,0.,0.,0.,0.,0
 .,0.,0.,0.,0.,0.,0.,0.,0.,0.,0.,0.,0.,0.,0.,0.,0.,0.,0.,0.,0.,0.,0.,0.
 ,0.,0.,0.,0.,0.,0.,0.,0.,0.,0.,0.,0.,0.,0.,0.,0.,0.,0.,0.,0.,0.,0.,0.,
 0.,0.,0.,0.,0.,0.,0.,0.,0.,0.,0.,0.,0.,0.,0.,0.,0.,0.,0.,0.,0.,0.,0.,0
 .,0.,0.,0.,0.,0.,0.,0.,0.,0.,0.,0.,0.,0.,0.,0.,0.,0.,0.,0.,0.,0.,0.,0.
 ,0.,0.,0.,0.,0.,0.,0.,0.,0.,0.,0.,0.,0.,0.,0.,0.,0.,0.,0.,0.,0.,0.,0.,
 0.,0.,0.,0.,0.,0.,0.,0.,0.,0.,0.,0.,0.,0.,0.,0.,0.,0.,0.,0.,0.,0.,0.,0
 .,0.,0.,0.,0.,0.,0.,0.,0.,0.,0.,0.,0.,0.,0.,0.,0.,0.,0.,0.,0.,0.,0.,0.
 ,0.,0.,0.,0.,0.,0.,0.,0.,0.,0.,0.,0.,0.,0.,0.,0.,0.,0.,0.,0.,0.,0.,0.,
 0.,0.,0.,0.,0.,0.,0.,0.,0.,0.,0.,0.,0.,0.,0.,0.,0.,0.,0.,0.,0.,0.,0.,0
 .,0.,0.,0.,0.,0.,0.,0.,0.,0.,0.,0.,0.,0.,0.,0.,0.,0.,0.,0.,0.,0.,0.,0.
 ,0.,0.,0.,0.,0.,0.,0.,0.,0.,0.,0.,0.,0.,0.,0.,0.,0.,0.,0.,0.,0.,0.,0.,
 0.,0.,0.,0.,0.,0.,0.,0.,0.,0.,0.,0.,0.,0.,0.,0.,0.,0.,0.,0.,0.,0.,0.,0
 .,0.,0.,0.,0.,0.,0.,0.,0.,0.,0.,0.,0.,0.,0.,0.,0.,0.,0.,0.,0.,0.,0.,0.
 ,0.,0.,0.,0.,0.,0.,0.,0.,0.,0.,0.,0.,0.,0.,0.,0.,0.,0.,0.,0.,0.,0.,0.,
 0.,0.,0.,0.,0.,0.,0.,0.,0.,0.,0.,0.,0.,0.,0.,0.,0.,0.,0.,0.,0.,0.,0.,0
 .,0.,0.,0.,0.,0.,0.,0.,0.,0.,0.,0.,0.,0.,0.,0.,0.,0.,0.,0.,0.,0.,0.,0.
 ,0.,0.,0.,0.,0.,0.,0.,0.,0.,0.,0.,0.,0.,0.,0.,0.,0.,0.,0.,0.,0.,0.,0.,
 0.,0.,0.,0.,0.,0.,0.,0.,0.,0.,0.,0.,0.,0.,0.,0.,0.,0.,0.,0.,0.,0.,0.,0
 .,0.,0.,0.,0.,0.,0.,0.,0.,0.,0.,0.,0.,0.,0.,0.,0.,0.,0.,0.,0.,0.,0.,0.
 ,0.,0.,0.,0.,0.,0.,0.,0.,0.,0.,0.,0.,0.,0.,0.,0.,0.,0.,0.,0.,0.,0.,0.,
 0.,0.,0.,0.,0.,0.,0.,0.,0.,0.,0.,0.,0.,0.,0.,0.,0.,0.,0.,0.,0.,0.,0.,0
 .,0.,0.,0.,0.,0.,0.,0.,0.,0.,0.,0.,0.,0.,0.,0.,0.,0.,0.,0.,0.,0.,0.,0.
 ,0.,0.,0.,0.,0.,0.,0.,0.,0.,0.,0.,0.,0.,0.,0.,0.,0.,0.,0.,0.,0.,0.,0.,
 0.,0.,0.,0.,0.,0.,0.,0.,0.,0.,0.,0.,0.,0.,0.,0.,0.,0.,0.,0.,0.,0.,0.,0
 .,0.,0.,0.,0.,0.,0.,0.,0.,0.,0.,0.,0.,0.,0.,0.,0.,0.,0.,0.,0.,0.,0.,0.
 ,0.,0.,0.,0.,0.,0.,0.,0.,0.,0.,0.,0.,0.,0.,0.,0.,0.,0.,0.,0.,0.,0.,0.,
 0.,0.,0.,0.,0.,0.,0.,0.,0.,0.,0.,0.,0.,0.,0.,0.,0.,0.,0.,0.,0.,0.,0.,0
 .,0.,0.,0.,0.,0.,0.,0.,0.,0.,0.,0.,0.,0.,0.,0.,0.,0.,0.,0.,0.,0.,0.,0.
 ,0.,0.,0.,0.,0.,0.,0.,0.,0.,0.,0.,0.,0.,0.,0.,0.,0.,0.,0.,0.,0.,0.,0.,
 0.,0.,0.,0.,0.,0.,0.,0.,0.,0.,0.,0.,0.,0.,0.,0.,0.,0.,0.,0.,0.,0.,0.,0
 .,0.,0.,0.,0.,0.,0.,0.,0.,0.,0.,0.,0.,0.,0.,0.,0.,0.,0.,0.,0.,0.,0.,0.
 ,0.,0.,0.,0.,0.,0.,0.,0.,0.,0.,0.,0.,0.,0.,0.,0.,0.,0.,0.,0.,0.,0.,0.,
 0.,0.,0.,0.,0.,0.,0.,0.,0.,0.,0.,0.,0.,0.,0.,0.,0.,0.,0.,0.,0.,0.,0.,0
 .,0.,0.,0.,0.,0.,0.,0.,0.,0.,0.,0.,0.,0.,0.,0.,0.,0.,0.,0.,0.,0.,0.,0.
 ,0.,0.,0.,0.,0.,0.,0.,0.,0.,0.,0.,0.,0.,0.,0.,0.,0.,0.,0.,0.,0.,0.,0.,
 0.,0.,0.,0.,0.,0.,0.,0.,0.,0.,0.,0.,0.,0.,0.,0.,0.,0.,0.,0.,0.,0.,0.,0
 .,0.,0.,0.,0.,0.,0.,0.,0.,0.,0.,0.,0.,0.,0.,0.,0.,0.,0.,0.,0.,0.,0.,0.
 ,0.,0.,0.,0.,0.,0.,0.,0.,0.,0.,0.,0.,0.,0.,0.,0.,0.,0.,0.,0.,0.,0.,0.,
 0.,0.,0.,0.,0.,0.,0.,0.,0.,0.,0.,0.,0.,0.,0.,0.,0.,0.,0.,0.,0.,0.,0.,0
 .,0.,0.,0.,0.,0.,0.,0.,0.,0.,0.,0.,0.,0.,0.,0.,0.,0.,0.,0.,0.,0.,0.,0.
 ,0.,0.,0.,0.,0.,0.,0.,0.,0.,0.,0.,0.,0.,0.,0.,0.,0.,0.,0.,0.,0.,0.,0.,
 0.,0.,0.,0.,0.,0.,0.,0.,0.,0.,0.,0.,0.,0.,0.,0.,0.,0.,0.,0.,0.,0.,0.,0
 .,0.,0.,0.,0.,0.,0.,0.,0.,0.,0.,0.,0.,0.,0.,0.,0.,0.,0.,0.,0.,0.,0.,0.
 ,0.,0.,0.,0.,0.,0.,0.,0.,0.,0.,0.,0.,0.,0.,0.,0.,0.,0.,0.,0.,0.,0.,0.,
 0.,0.,0.,0.,0.,0.,0.,0.,0.,0.,0.,0.,0.,0.,0.,0.,0.,0.,0.,0.,0.,0.,0.,0
 .,0.,0.,0.,0.,0.,0.,0.,0.,0.,0.,0.,0.,0.,0.,0.,0.,0.,0.,0.,0.,0.,0.,0.
 ,0.,0.,0.,0.,0.,0.,0.,0.,0.,0.,0.,0.,0.,0.,0.,0.,0.,0.,0.,0.,0.,0.,0.,
 0.,0.,0.,0.,0.,0.,0.,0.,0.,0.,0.,0.,0.,0.,0.,0.,0.,0.,0.,0.,0.,0.,0.,0
 .,0.,0.,0.,0.,0.,0.,0.,0.,0.,0.,0.,0.,0.,0.,0.,0.,0.,0.,0.,0.,0.,0.,0.
 ,0.,0.,0.,0.,0.,0.,0.,0.,0.,0.,0.,0.,0.,0.,0.,0.,0.,0.,0.,0.,0.,0.,0.,
 0.,0.,0.,0.,0.,0.,0.,0.,0.,0.,0.,0.,0.,0.,0.,0.,0.,0.,0.,0.,0.,0.,0.,0
 .,0.,0.,0.,0.,0.,0.,0.,0.,0.,0.,0.,0.,0.,0.,0.,0.,0.,0.,0.,0.,0.,0.,0.
 ,0.,0.,0.,0.,0.,0.,0.,0.,0.,0.,0.,0.,0.,0.,0.,0.,0.,0.,0.,0.,0.,0.,0.,
 0.,0.,0.,0.,0.,0.,0.,0.,0.,0.,0.,0.,0.,0.,0.,0.,0.,0.,0.,0.,0.,0.,0.,0
 .,0.,0.,0.,0.,0.,0.,0.,0.,0.,0.,0.,0.,0.,0.,0.,0.,0.,0.,0.,0.,0.,0.,0.
 ,0.,0.,0.,0.,0.,0.,0.,0.,0.,0.,0.,0.,0.,0.,0.,0.,0.,0.,0.,0.,0.,0.,0.,
 0.,0.,0.,0.,0.,0.,0.,0.,0.,0.,0.,0.,0.,0.,0.,0.,0.,0.,0.,0.,0.,0.,0.,0
 .,0.,0.,0.,0.,0.,0.,0.,0.,0.,0.,0.,0.,0.,0.,0.,0.,0.,0.,0.,0.,0.,0.,0.
 ,0.,0.,0.,0.,0.,0.,0.,0.,0.,0.,0.,0.,0.,0.,0.,0.,0.,0.,0.,0.,0.,0.,0.,
 0.,0.,0.,0.,0.,0.,0.,0.,0.,0.,0.,0.,0.,0.,0.,0.,0.,0.,0.,0.,0.,0.,0.,0
 .,0.,0.,0.,0.,0.,0.,0.,0.,0.,0.,0.,0.,0.,0.,0.,0.,0.,0.,0.,0.,0.,0.,0.
 ,0.,0.,0.,0.,0.,0.,0.,0.,0.,0.,0.,0.,0.,0.,0.,0.,0.,0.,0.,0.,0.,0.,0.,
 0.,0.,0.,0.,0.,0.,0.,0.,0.,0.,0.,0.,0.,0.,0.,0.,0.,0.,0.,0.,0.,0.,0.,0
 .,0.,0.,0.,0.,0.,0.,0.,0.,0.,0.,0.,0.,0.,0.,0.,0.,0.,0.,0.,0.,0.,0.,0.
 ,0.,0.,0.,0.,0.,0.,0.,0.,0.,0.,0.,0.,0.,0.,0.,0.,0.,0.,0.,0.,0.,0.,0.,
 0.,0.,0.,0.,0.,0.,0.,0.,0.,0.,0.,0.,0.,0.,0.,0.,0.,0.,0.,0.,0.,0.,0.,0
 .,0.,0.,0.,0.,0.,0.,0.,0.,0.,0.,0.,0.,0.,0.,0.,0.,0.,0.,0.,0.,0.,0.,0.
 ,0.,0.,0.,0.,0.,0.,0.,0.,0.,0.,0.,0.,0.,0.,0.,0.,0.,0.,0.,0.,0.,0.,0.,
 0.,0.,0.,0.,0.,0.,0.,0.,0.,0.,0.,0.,0.,0.,0.,0.,0.,0.,0.,0.,0.,0.,0.,0
 .,0.,0.,0.,0.,0.,0.,0.,0.,0.,0.,0.,0.,0.,0.,0.,0.,0.,0.,0.,0.,0.,0.,0.
 ,0.,0.,0.,0.,0.,0.,0.,0.,0.,0.,0.,0.,0.,0.,0.,0.,0.,0.,0.,0.,0.,0.,0.,
 0.,0.,0.,0.,0.,0.,0.,0.,0.,0.,0.,0.,0.,0.,0.,0.,0.,0.,0.,0.,0.,0.,0.,0
 .,0.,0.,0.,0.,0.,0.,0.,0.,0.,0.,0.,0.,0.,0.,0.,0.,0.,0.,0.,0.,0.,0.,0.
 ,0.,0.,0.,0.,0.,0.,0.,0.,0.,0.,0.,0.,0.,0.,0.,0.,0.,0.,0.,0.,0.,0.,0.,
 0.,0.,0.,0.,0.,0.,0.,0.,0.,0.,0.,0.,0.,0.,0.,0.,0.,0.,0.,0.,0.,0.,0.,0
 .,0.,0.,0.,0.,0.,0.,0.,0.,0.,0.,0.,0.,0.,0.,0.,0.,0.,0.,0.,0.,0.,0.,0.
 ,0.,0.,0.,0.,0.,0.,0.,0.,0.,0.,0.,0.,0.,0.,0.,0.,0.,0.,0.,0.,0.,0.,0.,
 0.,0.,0.,0.,0.,0.,0.,0.,0.,0.,0.,0.,0.,0.,0.,0.,0.,0.,0.,0.,0.,0.,0.,0
 .,0.,0.,0.,0.,0.,0.,0.,0.,0.,0.,0.,0.,0.,0.,0.,0.,0.,0.,0.,0.,0.,0.,0.
 ,0.,0.,0.,0.,0.,0.,0.,0.,0.,0.,0.,0.,0.,0.,0.,0.,0.,0.,0.,0.,0.,0.,0.,
 0.,0.,0.,0.,0.,0.,0.,0.,0.,0.,0.,0.,0.,0.,0.,0.,0.,0.,0.,0.,0.,0.,0.,0
 .,0.,0.,0.,0.,0.,0.,0.,0.,0.,0.,0.,0.,0.,0.,0.,0.,0.,0.,0.,0.,0.,0.,0.
 ,0.,0.,0.,0.,0.,0.,0.,0.,0.,0.,0.,0.,0.,0.,0.,0.,0.,0.,0.,0.,0.,0.,0.,
 0.,0.,0.,0.,0.,0.,0.,0.,0.,0.,0.,0.,0.,0.,0.,0.,0.,0.,0.,0.,0.,0.,0.,0
 .,0.,0.,0.,0.,0.,0.,0.,0.,0.,0.,0.,0.,0.,0.,0.,0.,0.,0.,0.,0.,0.,0.,0.
 ,0.,0.,0.,0.,0.,0.,0.,0.,0.,0.,0.,0.,0.,0.,0.,0.,0.,0.,0.,0.,0.,0.,0.,
 0.,0.,0.,0.,0.,0.,0.,0.,0.,0.,0.,0.,0.,0.,0.,0.,0.,0.,0.,0.,0.,0.,0.,0
 .,0.,0.,0.,0.,0.,0.,0.,0.,0.,0.,0.,0.,0.,0.,0.,0.,0.,0.,0.,0.,0.,0.,0.
 ,0.,0.,0.,0.,0.,0.,0.,0.,0.,0.,0.,0.,0.,0.,0.,0.,0.,0.,0.,0.,0.,0.,0.,
 0.,0.,0.,0.,0.,0.,0.,0.,0.,0.,0.,0.,0.,0.,0.,0.,0.,0.,0.,0.,0.,0.,0.,0
 .,0.,0.,0.,0.,0.,0.,0.,0.,0.,0.,0.,0.,0.,0.,0.,0.,0.,0.,0.,0.,0.,0.,0.
 ,0.,0.,0.,0.,0.,0.,0.,0.,0.,0.,0.,0.,0.,0.,0.,0.,0.,0.,0.,0.,0.,0.,0.,
 0.,0.,0.,0.,0.,0.,0.,0.,0.,0.,0.,0.,0.,0.,0.,0.,0.,0.,0.,0.,0.,0.,0.,0
 .,0.,0.,0.,0.,0.,0.,0.,0.,0.,0.,0.,0.,0.,0.,0.,0.,0.,0.,0.,0.,0.,0.,0.
 ,0.,0.,0.,0.,0.,0.,0.,0.,0.,0.,0.,0.,0.,0.,0.,0.,0.,0.,0.,0.,0.,0.,0.,
 0.,0.,0.,0.,0.,0.,0.,0.,0.,0.,0.,0.,0.,0.,0.,0.,0.,0.,0.,0.,0.,0.,0.,0
 .,0.,0.,0.,0.,0.,0.,0.,0.,0.,0.,0.,0.,0.,0.,0.,0.,0.,0.,0.,0.,0.,0.,0.
 ,0.,0.,0.,0.,0.,0.,0.,0.,0.,0.,0.,0.,0.,0.,0.,0.,0.,0.,0.,0.,0.,0.,0.,
 0.,0.,0.,0.,0.,0.,0.,0.,0.,0.,0.,0.,0.,0.,0.,0.,0.,0.,0.,0.,0.,0.,0.,0
 .,0.,0.,0.,0.,0.,0.,0.,0.,0.,0.,0.,0.,0.,0.,0.,0.,0.,0.,0.,0.,0.,0.,0.
 ,0.,0.,0.,0.,0.,0.,0.,0.,0.,0.,0.,0.,0.,0.,0.,0.,0.,0.,0.,0.,0.,0.,0.,
 0.,0.,0.,0.,0.,0.,0.,0.,0.,0.,0.,0.,0.,0.,0.,0.,0.,0.,0.,0.,0.,0.,0.,0
 .,0.,0.,0.,0.,0.,0.,0.,0.,0.,0.,0.,0.,0.,0.,0.,0.,0.,0.,0.,0.,0.,0.,0.
 ,0.,0.,0.,0.,0.,0.,0.,0.,0.,0.,0.,0.,0.,0.,0.,0.,0.,0.,0.,0.,0.,0.,0.,
 0.,0.,0.,0.,0.,0.,0.,0.,0.,0.,0.,0.,0.,0.,0.,0.,0.,0.,0.,0.,0.,0.,0.,0
 .,0.,0.,0.,0.,0.,0.,0.,0.,0.,0.,0.,0.,0.,0.,0.,0.,0.,0.,0.,0.,0.,0.,0.
 ,0.,0.,0.,0.,0.,0.,0.,0.,0.,0.,0.,0.,0.,0.,0.,0.,0.,0.,0.,0.,0.,0.,0.,
 0.,0.,0.,0.,0.,0.,0.,0.,0.,0.,0.,0.,0.,0.,0.,0.,0.,0.,0.,0.,0.,0.,0.,0
 .,0.,0.,0.,0.,0.,0.,0.,0.,0.,0.,0.,0.,0.,0.,0.,0.,0.,0.,0.,0.,0.,0.,0.
 ,0.,0.,0.,0.,0.,0.,0.,0.,0.,0.,0.,0.,0.,0.,0.,0.,0.,0.,0.,0.,0.,0.,0.,
 0.,0.,0.,0.,0.,0.,0.,0.,0.,0.,0.,0.,0.,0.,0.,0.,0.,0.,0.,0.,0.,0.,0.,0
 .,0.,0.,0.,0.,0.,0.,0.,0.,0.,0.,0.,0.,0.,0.,0.,0.,0.,0.,0.,0.,0.,0.,0.
 ,0.,0.,0.,0.,0.,0.,0.,0.,0.,0.,0.,0.,0.,0.,0.,0.,0.,0.,0.,0.,0.,0.,0.,
 0.,0.,0.,0.,0.,0.,0.,0.,0.,0.,0.,0.,0.,0.,0.,0.,0.,0.,0.,0.,0.,0.,0.,0
 .,0.,0.,0.,0.,0.,0.,0.,0.,0.,0.,0.,0.,0.,0.,0.,0.,0.,0.,0.,0.,0.,0.,0.
 ,0.,0.,0.,0.,0.,0.,0.,0.,0.,0.,0.,0.,0.,0.,0.,0.,0.,0.,0.,0.,0.,0.,0.,
 0.,0.,0.,0.,0.,0.,0.,0.,0.,0.,0.,0.,0.,0.,0.,0.,0.,0.,0.,0.,0.,0.,0.,0
 .,0.,0.,0.,0.,0.,0.,0.,0.,0.,0.,0.,0.,0.,0.,0.,0.,0.,0.,0.,0.,0.,0.,0.
 ,0.,0.,0.,0.,0.,0.,0.,0.,0.,0.,0.,0.,0.,0.,0.,0.,0.,0.,0.,0.,0.,0.,0.,
 0.,0.,0.,0.,0.,0.,0.,0.,0.,0.,0.,0.,0.,0.,0.,0.,0.,0.,0.,0.,0.,0.,0.,0
 .,0.,0.,0.,0.,0.,0.,0.,0.,0.,0.,0.,0.,0.,0.,0.,0.,0.,0.,0.,0.,0.,0.,0.
 ,0.,0.,0.,0.,0.,0.,0.,0.,0.,0.,0.,0.,0.,0.,0.,0.,0.,0.,0.,0.,0.,0.,0.,
 0.,0.,0.,0.,0.,0.,0.,0.,0.,0.,0.,0.,0.,0.,0.,0.,0.,0.,0.,0.,0.,0.,0.,0
 .,0.,0.,0.,0.,0.,0.,0.,0.,0.,0.,0.,0.,0.,0.,0.,0.,0.,0.,0.,0.,0.,0.,0.
 ,0.,0.,0.,0.,0.,0.,0.,0.,0.,0.,0.,0.,0.,0.,0.,0.,0.,0.,0.,0.,0.,0.,0.,
 0.,0.,0.,0.,0.,0.,0.,0.,0.,0.,0.,0.,0.,0.,0.,0.,0.,0.,0.,0.,0.,0.,0.,0
 .,0.,0.,0.,0.,0.,0.,0.,0.,0.,0.,0.,0.,0.,0.,0.,0.,0.,0.,0.,0.,0.,0.,0.
 ,0.,0.,0.,0.,0.,0.,0.,0.,0.,0.,0.,0.,0.,0.,0.,0.,0.,0.,0.,0.,0.,0.,0.,
 0.,0.,0.,0.,0.,0.,0.,0.,0.,0.,0.,0.,0.,0.,0.,0.,0.,0.,0.,0.,0.,0.,0.,0
 .,0.,0.,0.,0.,0.,0.,0.,0.,0.,0.,0.,0.,0.,0.,0.,0.,0.,0.,0.,0.,0.,0.,0.
 ,0.,0.,0.,0.,0.,0.,0.,0.,0.,0.,0.,0.,0.,0.,0.,0.,0.,0.,0.,0.,0.,0.,0.,
 0.,0.,0.,0.,0.,0.,0.,0.,0.,0.,0.,0.,0.,0.,0.,0.,0.,0.,0.,0.,0.,0.,0.,0
 .,0.,0.,0.,0.,0.,0.,0.,0.,0.,0.,0.,0.,0.,0.,0.,0.,0.,0.,0.,0.,0.,0.,0.
 ,0.,0.,0.,0.,0.,0.,0.,0.,0.,0.,0.,0.,0.,0.,0.,0.,0.,0.,0.,0.,0.,0.,0.,
 0.,0.,0.,0.,0.,0.,0.,0.,0.,0.,0.,0.,0.,0.,0.,0.,0.,0.,0.,0.,0.,0.,0.,0
 .,0.,0.,0.,0.,0.,0.,0.,0.,0.,0.,0.,0.,0.,0.,0.,0.,0.,0.,0.,0.,0.,0.,0.
 ,0.,0.,0.,0.,0.,0.,0.,0.,0.,0.,0.,0.,0.,0.,0.,0.,0.,0.,0.,0.,0.,0.,0.,
 0.,0.,0.,0.,0.,0.,0.,0.,0.,0.,0.,0.,0.,0.,0.,0.,0.,0.,0.,0.,0.,0.,0.,0
 .,0.,0.,0.,0.,0.,0.,0.,0.,0.,0.,0.,0.,0.,0.,0.,0.,0.,0.,0.,0.,0.,0.,0.
 ,0.,0.,0.,0.,0.,0.,0.,0.,0.,0.,0.,0.,0.,0.,0.,0.,0.,0.,0.,0.,0.,0.,0.,
 0.,0.,0.,0.,0.,0.,0.,0.,0.,0.,0.,0.,0.,0.,0.,0.,0.,0.,0.,0.,0.,0.,0.,0
 .,0.,0.,0.,0.,0.,0.,0.,0.,0.,0.,0.,0.,0.,0.,0.,0.,0.,0.,0.,0.,0.,0.,0.
 ,0.,0.,0.,0.,0.,0.,0.,0.,0.,0.,0.,0.,0.,0.,0.,0.,0.,0.,0.,0.,0.,0.,0.,
 0.,0.,0.,0.,0.,0.,0.,0.,0.,0.,0.,0.,0.,0.,0.,0.,0.,0.,0.,0.,0.,0.,0.,0
 .,0.,0.,0.,0.,0.,0.,0.,0.,0.,0.,0.,0.,0.,0.,0.,0.,0.,0.,0.,0.,0.,0.,0.
 ,0.,0.,0.,0.,0.,0.,0.,0.,0.,0.,0.,0.,0.,0.,0.,0.,0.,0.,0.,0.,0.,0.,0.,
 0.,0.,0.,0.,0.,0.,0.,0.,0.,0.,0.,0.,0.,0.,0.,0.,0.,0.,0.,0.,0.,0.,0.,0
 .,0.,0.,0.,0.,0.,0.,0.,0.,0.,0.,0.,0.,0.,0.,0.,0.,0.,0.,0.,0.,0.,0.,0.
 ,0.,0.,0.,0.,0.,0.,0.,0.,0.,0.,0.,0.,0.,0.,0.,0.,0.,0.,0.,0.,0.,0.,0.,
 0.,0.,0.,0.,0.,0.,0.,0.,0.,0.,0.,0.,0.,0.,0.,0.,0.,0.,0.,0.,0.,0.,0.,0
 .,0.,0.,0.,0.,0.,0.,0.,0.,0.,0.,0.,0.,0.,0.,0.,0.,0.,0.,0.,0.,0.,0.,0.
 ,0.,0.,0.,0.,0.,0.,0.,0.,0.,0.,0.,0.,0.,0.,0.,0.,0.,0.,0.,0.,0.,0.,0.,
 0.,0.,0.,0.,0.,0.,0.,0.,0.,0.,0.,0.,0.,0.,0.,0.,0.,0.,0.,0.,0.,0.,0.,0
 .,0.,0.,0.,0.,0.,0.,0.,0.,0.,0.,0.,0.,0.,0.,0.,0.,0.,0.,0.,0.,0.,0.,0.
 ,0.,0.,0.,0.,0.,0.,0.,0.,0.,0.,0.,0.,0.,0.,0.,0.,0.,0.,0.,0.,0.,0.,0.,
 0.,0.,0.,0.,0.,0.,0.,0.,0.,0.,0.,0.,0.,0.,0.,0.,0.,0.,0.,0.,0.,0.,0.,0
 .,0.,0.,0.,0.,0.,0.,0.,0.,0.,0.,0.,0.,0.,0.,0.,0.,0.,0.,0.,0.,0.,0.,0.
 ,0.,0.,0.,0.,0.,0.,0.,0.,0.,0.,0.,0.,0.,0.,0.,0.,0.,0.,0.,0.,0.,0.,0.,
 0.,0.,0.,0.,0.,0.,0.,0.,0.,0.,0.,0.,0.,0.,0.,0.,0.,0.,0.,0.,0.,0.,0.,0
 .,0.,0.,0.,0.,0.,0.,0.,0.,0.,0.,0.,0.,0.,0.,0.,0.,0.,0.,0.,0.,0.,0.,0.
 ,0.,0.,0.,0.,0.,0.,0.,0.,0.,0.,0.,0.,0.,0.,0.,0.,0.,0.,0.,0.,0.,0.,0.,
 0.,0.,0.,0.,0.,0.,0.,0.,0.,0.,0.,0.,0.,0.,0.,0.,0.,0.,0.,0.,0.,0.,0.,0
 .,0.,0.,0.,0.,0.,0.,0.,0.,0.,0.,0.,0.,0.,0.,0.,0.,0.,0.,0.,0.,0.,0.,0.
 ,0.,0.,0.,0.,0.,0.,0.,0.,0.,0.,0.,0.,0.,0.,0.,0.,0.,0.,0.,0.,0.,0.,0.,
 0.,0.,0.,0.,0.,0.,0.,0.,0.,0.,0.,0.,0.,0.,0.,0.,0.,0.,0.,0.,0.,0.,0.,0
 .,0.,0.,0.,0.,0.,0.,0.,0.,0.,0.,0.,0.,0.,0.,0.,0.,0.,0.,0.,0.,0.,0.,0.
 ,0.,0.,0.,0.,0.,0.,0.,0.,0.,0.,0.,0.,0.,0.,0.,0.,0.,0.,0.,0.,0.,0.,0.,
 0.,0.,0.,0.,0.,0.,0.,0.,0.,0.,0.,0.,0.,0.,0.,0.,0.,0.,0.,0.,0.,0.,0.,0
 .,0.,0.,0.,0.,0.,0.,0.,0.,0.,0.,0.,0.,0.,0.,0.,0.,0.,0.,0.,0.,0.,0.,0.
 ,0.,0.,0.,0.,0.,0.,0.,0.,0.,0.,0.,0.,0.,0.,0.,0.,0.,0.,0.,0.,0.,0.,0.,
 0.,0.,0.,0.,0.,0.,0.,0.,0.,0.,0.,0.,0.,0.,0.,0.,0.,0.,0.,0.,0.,0.,0.,0
 .,0.,0.,0.,0.,0.,0.,0.,0.,0.,0.,0.,0.,0.,0.,0.,0.,0.,0.,0.,0.,0.,0.,0.
 ,0.,0.,0.,0.,0.,0.,0.,0.,0.,0.,0.,0.,0.,0.,0.,0.,0.,0.,0.,0.,0.,0.,0.,
 0.,0.,0.,0.,0.,0.,0.,0.,0.,0.,0.,0.,0.,0.,0.,0.,0.,0.,0.,0.,0.,0.,0.,0
 .,0.,0.,0.,0.,0.,0.,0.,0.,0.,0.,0.,0.,0.,0.,0.,0.,0.,0.,0.,0.,0.,0.,0.
 ,0.,0.,0.,0.,0.,0.,0.,0.,0.,0.,0.,0.,0.,0.,0.,0.,0.,0.,0.,0.,0.,0.,0.,
 0.,0.,0.,0.,0.,0.,0.,0.,0.,0.,0.,0.,0.,0.,0.,0.,0.,0.,0.,0.,0.,0.,0.,0
 .,0.,0.,0.,0.,0.,0.,0.,0.,0.,0.,0.,0.,0.,0.,0.,0.,0.,0.,0.,0.,0.,0.,0.
 ,0.,0.,0.,0.,0.,0.,0.,0.,0.,0.,0.,0.,0.,0.,0.,0.,0.,0.,0.,0.,0.,0.,0.,
 0.,0.,0.,0.,0.,0.,0.,0.,0.,0.,0.,0.,0.,0.,0.,0.,0.,0.,0.,0.,0.,0.,0.,0
 .,0.,0.,0.,0.,0.,0.,0.,0.,0.,0.,0.,0.,0.,0.,0.,0.,0.,0.,0.,0.,0.,0.,0.
 ,0.,0.,0.,0.,0.,0.,0.,0.,0.,0.,0.,0.,0.,0.,0.,0.,0.,0.,0.,0.,0.,0.,0.,
 0.,0.,0.,0.,0.,0.,0.,0.,0.,0.,0.,0.,0.,0.,0.,0.,0.,0.,0.,0.,0.,0.,0.,0
 .,0.,0.,0.,0.,0.,0.,0.,0.,0.,0.,0.,0.,0.,0.,0.,0.,0.,0.,0.,0.,0.,0.,0.
 ,0.,0.,0.,0.,0.,0.,0.,0.,0.,0.,0.,0.,0.,0.,0.,0.,0.,0.,0.,0.,0.,0.,0.,
 0.,0.,0.,0.,0.,0.,0.,0.,0.,0.,0.,0.,0.,0.,0.,0.,0.,0.,0.,0.,0.,0.,0.,0
 .,0.,0.,0.,0.,0.,0.,0.,0.,0.,0.,0.,0.,0.,0.,0.,0.,0.,0.,0.,0.,0.,0.,0.
 ,0.,0.,0.,0.,0.,0.,0.,0.,0.,0.,0.,0.,0.,0.,0.,0.,0.,0.,0.,0.,0.,0.,0.,
 0.,0.,0.,0.,0.,0.,0.,0.,0.,0.,0.,0.,0.,0.,0.,0.,0.,0.,0.,0.,0.,0.,0.,0
 .,0.,0.,0.,0.,0.,0.,0.,0.,0.,0.,0.,0.,0.,0.,0.,0.,0.,0.,0.,0.,0.,0.,0.
 ,0.,0.,0.,0.,0.,0.,0.,0.,0.,0.,0.,0.,0.,0.,0.,0.,0.,0.,0.,0.,0.,0.,0.,
 0.,0.,0.,0.,0.,0.,0.,0.,0.,0.,0.,0.,0.,0.,0.,0.,0.,0.,0.,0.,0.,0.,0.,0
 .,0.,0.,0.,0.,0.,0.,0.,0.,0.,0.,0.,0.,0.,0.,0.,0.,0.,0.,0.,0.,0.,0.,0.
 ,0.,0.,0.,0.,0.,0.,0.,0.,0.,0.,0.,0.,0.,0.,0.,0.,0.,0.,0.,0.,0.,0.,0.,
 0.,0.,0.,0.,0.,0.,0.,0.,0.,0.,0.,0.,0.,0.,0.,0.,0.,0.,0.,0.,0.,0.,0.,0
 .,0.,0.,0.,0.,0.,0.,0.,0.,0.,0.,0.,0.,0.,0.,0.,0.,0.,0.,0.,0.,0.,0.,0.
 ,0.,0.,0.,0.,0.,0.,0.,0.,0.,0.,0.,0.,0.,0.,0.,0.,0.,0.,0.,0.,0.,0.,0.,
 0.,0.,0.,0.,0.,0.,0.,0.,0.,0.,0.,0.,0.,0.,0.,0.,0.,0.,0.,0.,0.,0.,0.,0
 .,0.,0.,0.,0.,0.,0.,0.,0.,0.,0.,0.,0.,0.,0.,0.,0.,0.,0.,0.,0.,0.,0.,0.
 ,0.,0.,0.,0.,0.,0.,0.,0.,0.,0.,0.,0.,0.,0.,0.,0.,0.,0.,0.,0.,0.,0.,0.,
 0.,0.,0.,0.,0.,0.,0.,0.,0.,0.,0.,0.,0.,0.,0.,0.,0.,0.,0.,0.,0.,0.,0.,0
 .,0.,0.,0.,0.,0.,0.,0.,0.,0.,0.,0.,0.,0.,0.,0.,0.,0.,0.,0.,0.,0.,0.,0.
 ,0.,0.,0.,0.,0.,0.,0.,0.,0.,0.,0.,0.,0.,0.,0.,0.,0.,0.,0.,0.,0.,0.,0.,
 0.,0.,0.,0.,0.,0.,0.,0.,0.,0.,0.,0.,0.,0.,0.,0.,0.,0.,0.,0.,0.,0.,0.,0
 .,0.,0.,0.,0.,0.,0.,0.,0.,0.,0.,0.,0.,0.,0.,0.,0.,0.,0.,0.,0.,0.,0.,0.
 ,0.,0.,0.,0.,0.,0.,0.,0.,0.,0.,0.,0.,0.,0.,0.,0.,0.,0.,0.,0.,0.,0.,0.,
 0.,0.,0.,0.,0.,0.,0.,0.,0.,0.,0.,0.,0.,0.,0.,0.,0.,0.,0.,0.,0.,0.,0.,0
 .,0.,0.,0.,0.,0.,0.,0.,0.,0.,0.,0.,0.,0.,0.,0.,0.,0.,0.,0.,0.,0.,0.,0.
 ,0.,0.,0.,0.,0.,0.,0.,0.,0.,0.,0.,0.,0.,0.,0.,0.,0.,0.,0.,0.,0.,0.,0.,
 0.,0.,0.,0.,0.,0.,0.,0.,0.,0.,0.,0.,0.,0.,0.,0.,0.,0.,0.,0.,0.,0.,0.,0
 .,0.,0.,0.,0.,0.,0.,0.,0.,0.,0.,0.,0.,0.,0.,0.,0.,0.,0.,0.,0.,0.,0.,0.
 ,0.,0.,0.,0.,0.,0.,0.,0.,0.,0.,0.,0.,0.,0.,0.,0.,0.,0.,0.,0.,0.,0.,0.,
 0.,0.,0.,0.,0.,0.,0.,0.,0.,0.,0.,0.,0.,0.,0.,0.,0.,0.,0.,0.,0.,0.,0.,0
 .,0.,0.,0.,0.,0.,0.,0.,0.,0.,0.,0.,0.,0.,0.,0.,0.,0.,0.,0.,0.,0.,0.,0.
 ,0.,0.,0.,0.,0.,0.,0.,0.,0.,0.,0.,0.,0.,0.,0.,0.,0.,0.,0.,0.,0.,0.,0.,
 0.,0.,0.,0.,0.,0.,0.,0.,0.,0.,0.,0.,0.,0.,0.,0.,0.,0.,0.,0.,0.,0.,0.,0
 .,0.,0.,0.,0.,0.,0.,0.,0.,0.,0.,0.,0.,0.,0.,0.,0.,0.,0.,0.,0.,0.,0.,0.
 ,0.,0.,0.,0.,0.,0.,0.,0.,0.,0.,0.,0.,0.,0.,0.,0.,0.,0.,0.,0.,0.,0.,0.,
 0.,0.,0.,0.,0.,0.,0.,0.,0.,0.,0.,0.,0.,0.,0.,0.,0.,0.,0.,0.,0.,0.,0.,0
 .,0.,0.,0.,0.,0.,0.,0.,0.,0.,0.,0.,0.,0.,0.,0.,0.,0.,0.,0.,0.,0.,0.,0.
 ,0.,0.,0.,0.,0.,0.,0.,0.,0.,0.,0.,0.,0.,0.,0.,0.,0.,0.,0.,0.,0.,0.,0.,
 0.,0.,0.,0.,0.,0.,0.,0.,0.,0.,0.,0.,0.,0.,0.,0.,0.,0.,0.,0.,0.,0.,0.,0
 .,0.,0.,0.,0.,0.,0.,0.,0.,0.,0.,0.,0.,0.,0.,0.,0.,0.,0.,0.,0.,0.,0.,0.
 ,0.,0.,0.,0.,0.,0.,0.,0.,0.,0.,0.,0.,0.,0.,0.,0.,0.,0.,0.,0.,0.,0.,0.,
 0.,0.,0.,0.,0.,0.,0.,0.,0.,0.,0.,0.,0.,0.,0.,0.,0.,0.,0.,0.,0.,0.,0.,0
 .,0.,0.,0.,0.,0.,0.,0.,0.,0.,0.,0.,0.,0.,0.,0.,0.,0.,0.,0.,0.,0.,0.,0.
 ,0.,0.,0.,0.,0.,0.,0.,0.,0.,0.,0.,0.,0.,0.,0.,0.,0.,0.,0.,0.,0.,0.,0.,
 0.,0.,0.,0.,0.,0.,0.,0.,0.,0.,0.,0.,0.,0.,0.,0.,0.,0.,0.,0.,0.,0.,0.,0
 .,0.,0.,0.,0.,0.,0.,0.,0.,0.,0.,0.,0.,0.,0.,0.,0.,0.,0.,0.,0.,0.,0.,0.
 ,0.,0.,0.,0.,0.,0.,0.,0.,0.,0.,0.,0.,0.,0.,0.,0.,0.,0.,0.,0.,0.,0.,1.0
 9397939,0.,0.,0.,0.,0.,0.,0.,0.,0.,0.,0.,0.,0.,0.,0.,0.,0.,0.,0.,0.,0.
 ,0.,0.,0.,0.,0.,0.,0.,0.,0.,0.,0.,0.,0.,0.,0.,0.,0.,0.,0.,0.,0.,0.,0.,
 0.,0.,0.,0.,0.,0.,0.,0.,0.,0.,0.,0.,0.,0.,0.,0.,0.,0.,0.,0.,0.,0.,0.,0
 .,0.,0.,0.,0.,0.,0.,0.,0.,0.,0.,0.,0.,0.,0.,0.,0.,0.,0.,0.,0.,0.,0.,0.
 ,0.,0.,0.,0.,0.,0.,0.,0.,0.,0.,0.,0.,0.,0.,0.,0.,0.,0.,0.,0.,0.,0.,0.,
 0.,0.,0.,0.,0.,0.,0.,0.,0.,0.,0.,0.,0.,0.,0.,0.,0.,0.,0.,0.,0.,0.,0.,0
 .,0.,0.,0.,0.,0.,0.,0.05251604,-0.04143432,0.,0.,0.,0.,0.,0.,0.,0.,0.,
 0.,0.,0.,0.,0.,0.,0.,0.,0.,0.,0.,0.,0.,0.,0.,0.,0.,0.,0.,0.,0.,0.,0.,0
 .,0.,0.,0.,0.,0.,0.,0.,0.,0.,0.,0.,0.,0.,0.,0.,0.,0.,0.,0.,0.,0.,0.,0.
 ,0.,0.,0.,0.,0.,0.,0.,0.,0.,0.,0.,0.,0.,0.,0.,0.,0.,0.,0.,0.,0.,0.,0.,
 0.,0.,0.,0.,0.,0.,0.,0.,0.,0.,0.,0.,0.,0.,0.,0.,0.,0.,0.,0.,0.,0.,0.,0
 .,0.,0.,0.,0.,0.,0.,0.,0.,0.,0.,0.,0.,0.,0.,0.,0.,0.,0.,0.,0.,0.,0.,0.
 ,0.,0.,0.,0.,0.,0.,0.,0.,0.,0.,0.,0.,0.,0.,0.,0.,0.,0.,0.00795032,-0.0
 2512256,-0.11109791,0.,0.,0.,0.,0.,0.,0.,0.,0.,0.,0.,0.,0.,0.,0.,0.,0.
 ,0.,0.,0.,0.,0.,0.,0.,0.,0.,0.,0.,0.,0.,0.,0.,0.,0.,0.,0.,0.,0.,0.,0.,
 0.,0.,0.,0.,0.,0.,0.,0.,0.,0.,0.,0.,0.,0.,0.,0.,0.,0.,0.,0.,0.,0.,0.,0
 .,0.,0.,0.,0.,0.,0.,0.,0.,0.,0.,0.,0.,0.,0.,0.,0.,0.,0.,0.,0.,0.,0.,0.
 ,0.,0.,0.,0.,0.,0.,0.,0.,0.,0.,0.,0.,0.,0.,0.,0.,0.,0.,0.,0.,0.,0.,0.,
 0.,0.,0.,0.,0.,0.,0.,0.,0.,0.,0.,0.,0.,0.,0.,0.,0.,0.,0.,0.,0.,0.,0.,0
 .,0.,0.,0.,0.,0.,0.,0.,0.,0.,0.,-1.06257008,0.00942942,0.03674209,1.13
 245045,0.,0.,0.,0.,0.,0.,0.,0.,0.,0.,0.,0.,0.,0.,0.,0.,0.,0.,0.,0.,0.,
 0.,0.,0.,0.,0.,0.,0.,0.,0.,0.,0.,0.,0.,0.,0.,0.,0.,0.,0.,0.,0.,0.,0.,0
 .,0.,0.,0.,0.,0.,0.,0.,0.,0.,0.,0.,0.,0.,0.,0.,0.,0.,0.,0.,0.,0.,0.,0.
 ,0.,0.,0.,0.,0.,0.,0.,0.,0.,0.,0.,0.,0.,0.,0.,0.,0.,0.,0.,0.,0.,0.,0.,
 0.,0.,0.,0.,0.,0.,0.,0.,0.,0.,0.,0.,0.,0.,0.,0.,0.,0.,0.,0.,0.,0.,0.,0
 .,0.,0.,0.,0.,0.,0.,0.,0.,0.,0.,0.,0.,0.,0.,0.,0.,0.,0.,0.,0.,0.,0.,0.
 ,0.,0.,0.,0.,0.,0.,-0.01327313,0.08126203,0.02043931,0.06731178,-0.005
 61730,0.,0.,0.,0.,0.,0.,0.,0.,0.,0.,0.,0.,0.,0.,0.,0.,0.,0.,0.,0.,0.,0
 .,0.,0.,0.,0.,0.,0.,0.,0.,0.,0.,0.,0.,0.,0.,0.,0.,0.,0.,0.,0.,0.,0.,0.
 ,0.,0.,0.,0.,0.,0.,0.,0.,0.,0.,0.,0.,0.,0.,0.,0.,0.,0.,0.,0.,0.,0.,0.,
 0.,0.,0.,0.,0.,0.,0.,0.,0.,0.,0.,0.,0.,0.,0.,0.,0.,0.,0.,0.,0.,0.,0.,0
 .,0.,0.,0.,0.,0.,0.,0.,0.,0.,0.,0.,0.,0.,0.,0.,0.,0.,0.,0.,0.,0.,0.,0.
 ,0.,0.,0.,0.,0.,0.,0.,0.,0.,0.,0.,0.,0.,0.,0.,0.,0.,0.,0.,0.,0.,0.,0.,
 0.,0.,0.,0.,0.,0.,-0.04224844,0.01203465,0.06930662,0.08978806,0.01146
 645,0.00206550||0.,0.,0.,0.,0.,0.,0.,0.,0.,0.,0.,0.,0.,0.,0.,0.,0.,0.,
 0.,0.,0.,0.,0.,0.,0.,0.,0.,0.,0.,0.,0.,0.,0.,0.,0.,0.,0.,0.,0.,0.,0.,0
 .,0.,0.,0.,0.,0.,0.,0.,0.,0.,0.,0.,0.,0.,0.,0.,0.,0.,0.,0.,0.,0.,0.,0.
 ,0.,0.,0.,0.,0.,0.,0.,0.,0.,0.,0.,0.,0.,0.,0.,0.,0.,0.,0.,0.,0.,0.,0.,
 0.,0.,0.,0.,0.,0.,0.,0.,0.,0.,0.,0.,0.,0.,0.,0.,0.,0.,0.,0.,0.,0.,0.,0
 .,0.,0.,0.,0.,0.,0.,0.,0.,0.,0.,0.,0.,0.,0.,0.,0.,0.,0.,0.,0.,0.,0.,0.
 ,0.,0.,0.,0.,0.,0.,0.,0.,0.,0.07769938,-0.00244281,-0.01264147,-0.1520
 6297,-0.02451531,-0.04855340|||@


 Just remember, when you're over the hill, you begin to pick up speed.
 -- Charles Schulz
 Job cpu time:       0 days  0 hours  8 minutes 26.0 seconds.
 File lengths (MBytes):  RWF=   1083 Int=      0 D2E=      0 Chk=     11 Scr=      1
 Normal termination of Gaussian 09 at Sun Jan 05 16:24:06 2025.
