 Entering Link 1 = C:\G09W\l1.exe PID=     24732.
  
 Copyright (c) 1988,1990,1992,1993,1995,1998,2003,2009,2013,
            Gaussian, Inc.  All Rights Reserved.
  
 This is part of the Gaussian(R) 09 program.  It is based on
 the Gaussian(R) 03 system (copyright 2003, Gaussian, Inc.),
 the Gaussian(R) 98 system (copyright 1998, Gaussian, Inc.),
 the Gaussian(R) 94 system (copyright 1995, Gaussian, Inc.),
 the Gaussian 92(TM) system (copyright 1992, Gaussian, Inc.),
 the Gaussian 90(TM) system (copyright 1990, Gaussian, Inc.),
 the Gaussian 88(TM) system (copyright 1988, Gaussian, Inc.),
 the Gaussian 86(TM) system (copyright 1986, Carnegie Mellon
 University), and the Gaussian 82(TM) system (copyright 1983,
 Carnegie Mellon University). Gaussian is a federally registered
 trademark of Gaussian, Inc.
  
 This software contains proprietary and confidential information,
 including trade secrets, belonging to Gaussian, Inc.
  
 This software is provided under written license and may be
 used, copied, transmitted, or stored only in accord with that
 written license.
  
 The following legend is applicable only to US Government
 contracts under FAR:
  
                    RESTRICTED RIGHTS LEGEND
  
 Use, reproduction and disclosure by the US Government is
 subject to restrictions as set forth in subparagraphs (a)
 and (c) of the Commercial Computer Software - Restricted
 Rights clause in FAR 52.227-19.
  
 Gaussian, Inc.
 340 Quinnipiac St., Bldg. 40, Wallingford CT 06492
  
  
 ---------------------------------------------------------------
 Warning -- This program may not be used in any manner that
 competes with the business of Gaussian, Inc. or will provide
 assistance to any competitor of Gaussian, Inc.  The licensee
 of this program is prohibited from giving any competitor of
 Gaussian, Inc. access to this program.  By using this program,
 the user acknowledges that Gaussian, Inc. is engaged in the
 business of creating and licensing software in the field of
 computational chemistry and represents and warrants to the
 licensee that it is not a competitor of Gaussian, Inc. and that
 it will not use this program in any manner prohibited above.
 ---------------------------------------------------------------
  

 Cite this work as:
 Gaussian 09, Revision D.01,
 M. J. Frisch, G. W. Trucks, H. B. Schlegel, G. E. Scuseria, 
 M. A. Robb, J. R. Cheeseman, G. Scalmani, V. Barone, B. Mennucci, 
 G. A. Petersson, H. Nakatsuji, M. Caricato, X. Li, H. P. Hratchian, 
 A. F. Izmaylov, J. Bloino, G. Zheng, J. L. Sonnenberg, M. Hada, 
 M. Ehara, K. Toyota, R. Fukuda, J. Hasegawa, M. Ishida, T. Nakajima, 
 Y. Honda, O. Kitao, H. Nakai, T. Vreven, J. A. Montgomery, Jr., 
 J. E. Peralta, F. Ogliaro, M. Bearpark, J. J. Heyd, E. Brothers, 
 K. N. Kudin, V. N. Staroverov, T. Keith, R. Kobayashi, J. Normand, 
 K. Raghavachari, A. Rendell, J. C. Burant, S. S. Iyengar, J. Tomasi, 
 M. Cossi, N. Rega, J. M. Millam, M. Klene, J. E. Knox, J. B. Cross, 
 V. Bakken, C. Adamo, J. Jaramillo, R. Gomperts, R. E. Stratmann, 
 O. Yazyev, A. J. Austin, R. Cammi, C. Pomelli, J. W. Ochterski, 
 R. L. Martin, K. Morokuma, V. G. Zakrzewski, G. A. Voth, 
 P. Salvador, J. J. Dannenberg, S. Dapprich, A. D. Daniels, 
 O. Farkas, J. B. Foresman, J. V. Ortiz, J. Cioslowski, 
 and D. J. Fox, Gaussian, Inc., Wallingford CT, 2013.
 
 ******************************************
 Gaussian 09:  IA32W-G09RevD.01 24-Apr-2013
                13-Jan-2025 
 ******************************************
 %nprocshared=2
 Will use up to    2 processors via shared memory.
 %mem=1GB
 %chk=C:\Users\Yash Shaw\Downloads\MOS2+NO.chk
 --------------------------------------------------------------
 # freq pm6 guess=huckel scf=qc geom=connectivity opt=cartesian
 --------------------------------------------------------------
 1/10=7,14=-1,18=10,26=1,38=1,57=2/1,3;
 2/12=2,17=6,18=5,29=2,40=1/2;
 3/5=2,16=1,25=1,41=3900000,71=1/1,2,3;
 4/11=4,35=1/1;
 5/5=2,8=3,35=1,38=5/8;
 6/7=2,8=2,9=2,10=2,28=1/1;
 7/7=1,29=1/1,2,3,16;
 1/10=7,14=-1,18=10,26=1/3(2);
 2/29=1/2;
 99/12=1/99;
 2/29=1/2;
 3/5=2,16=1,25=1,41=3900000,71=1,135=20/1,2,3;
 4/5=5,11=4,16=3,35=1/1;
 5/5=2,8=3,35=1,38=5/8;
 7/7=1/1,2,3,16;
 1/14=-1,18=10,26=1/3(-5);
 2/29=1/2;
 6/7=2,8=2,9=2,10=2,19=2,28=1/1;
 99/9=1,12=1/99;
 -------
 MOS2+NO
 -------
 Symbolic Z-matrix:
 Charge =  0 Multiplicity = 2
 Mo                   -1   -0.26955   1.78188   1.97593 
 S                    -1   -1.54269   2.86386   3.72236 
 S                    -1   -2.27589   2.30087   0.73222 
 Mo                   -1    2.81321   1.98884   1.18104 
 Mo                   -1    5.89597   2.19581   0.38616 
 Mo                   -1    8.97874   2.40277  -0.40873 
 S                    -1    1.54008   3.07082   2.92747 
 S                    -1    4.62284   3.27779   2.13258 
 S                    -1    7.7056    3.48475   1.3377 
 S                    -1    0.80687   2.50784  -0.06266 
 S                    -1    3.88963   2.7148   -0.85755 
 S                    -1    6.9724    2.92177  -1.65244 
 Mo                   -1   -2.106     4.39031   1.93513 
 Mo                   -1   -3.94246   6.99873   1.89432 
 Mo                   -1   -5.77891   9.60716   1.85352 
 S                    -1   -3.37914   5.47229   3.68155 
 S                    -1   -5.21559   8.08071   3.64075 
 S                    -1   -7.05204   10.68914   3.59995 
 S                    -1   -4.11235   4.9093    0.69142 
 S                    -1   -5.9488    7.51773   0.65061 
 S                    -1   -7.78525   10.12616   0.60981 
 Mo                   -1    0.97676   4.59727   1.14024 
 Mo                   -1   -0.85969   7.2057    1.09943 
 Mo                   -1   -2.69614   9.81413   1.05863 
 Mo                   -1    4.05952   4.80424   0.34535 
 Mo                   -1    2.22307   7.41266   0.30455 
 Mo                   -1    0.38662   10.02109   0.26374 
 Mo                   -1    7.14229   5.0112   -0.44954 
 Mo                   -1    5.30584   7.61963  -0.49034 
 Mo                   -1    3.46939   10.22806  -0.53114 
 S                    -1   -0.29638   5.67925   2.88667 
 S                    -1   -2.13283   8.28768   2.84586 
 S                    -1   -3.96928   10.89611   2.80506 
 S                    -1    2.78639   5.88622   2.09178 
 S                    -1    0.94994   8.49464   2.05098 
 S                    -1   -0.88651   11.10307   2.01017 
 S                    -1    5.86915   6.09318   1.29689 
 S                    -1    4.0327    8.70161   1.25609 
 S                    -1    2.19625   11.31004   1.21528 
 S                    -1   -1.02958   5.11627  -0.10347 
 S                    -1   -2.86603   7.72469  -0.14427 
 S                    -1   -4.70248   10.33312  -0.18508 
 S                    -1    2.05318   5.32323  -0.89835 
 S                    -1    0.21673   7.93166  -0.93916 
 S                    -1   -1.61972   10.54009  -0.97996 
 S                    -1    5.13595   5.5302   -1.69324 
 S                    -1    3.2995    8.13862  -1.73405 
 S                    -1    1.46304   10.74705  -1.77485 
 O                    0     3.12673   6.18912   3.47875 
 N                    0     3.37949   6.45785   4.61727 
 

 GradGradGradGradGradGradGradGradGradGradGradGradGradGradGradGradGradGrad
 Berny optimization.
 Initialization pass.
 No Z-matrix variables, so optimization will use Cartesian coordinates.
 Trust Radius=3.00D-01 FncErr=1.00D-07 GrdErr=1.00D-07
 Number of steps in this run=    160 maximum allowed number of steps=    300.
 GradGradGradGradGradGradGradGradGradGradGradGradGradGradGradGradGradGrad

 ---------------------------------------------------------------------------------------------------
                            Z-MATRIX (ANGSTROMS AND DEGREES)
   CD    Cent   Atom    N1       Length/X        N2       Alpha/Y        N3        Beta/Z          J
 ---------------------------------------------------------------------------------------------------
      1      1  Mo      -1  -0.269554          1.781878          1.975930
      2      2  S       -1  -1.542689          2.863858          3.722359
      3      3  S       -1  -2.275895          2.300873          0.732224
      4      4  Mo      -1   2.813211          1.988843          1.181043
      5      5  Mo      -1   5.895975          2.195807          0.386156
      6      6  Mo      -1   8.978739          2.402772         -0.408731
      7      7  S       -1   1.540075          3.070823          2.927472
      8      8  S       -1   4.622839          3.277788          2.132585
      9      9  S       -1   7.705603          3.484753          1.337697
     10     10  S       -1   0.806869          2.507837         -0.062664
     11     11  S       -1   3.889633          2.714802         -0.857551
     12     12  S       -1   6.972397          2.921767         -1.652438
     13     13  Mo      -1  -2.106004          4.390306          1.935126
     14     14  Mo      -1  -3.942455          6.998734          1.894321
     15     15  Mo      -1  -5.778906          9.607162          1.853517
     16     16  S       -1  -3.379140          5.472287          3.681554
     17     17  S       -1  -5.215591          8.080715          3.640750
     18     18  S       -1  -7.052041         10.689143          3.599946
     19     19  S       -1  -4.112346          4.909301          0.691419
     20     20  S       -1  -5.948797          7.517729          0.650615
     21     21  S       -1  -7.785248         10.126157          0.609810
     22     22  Mo      -1   0.976760          4.597271          1.140239
     23     23  Mo      -1  -0.859691          7.205699          1.099434
     24     24  Mo      -1  -2.696142          9.814127          1.058630
     25     25  Mo      -1   4.059524          4.804236          0.345352
     26     26  Mo      -1   2.223073          7.412664          0.304547
     27     27  Mo      -1   0.386622         10.021092          0.263743
     28     28  Mo      -1   7.142288          5.011200         -0.449535
     29     29  Mo      -1   5.305837          7.619628         -0.490340
     30     30  Mo      -1   3.469386         10.228057         -0.531144
     31     31  S       -1  -0.296376          5.679251          2.886667
     32     32  S       -1  -2.132826          8.287679          2.845863
     33     33  S       -1  -3.969277         10.896108          2.805058
     34     34  S       -1   2.786388          5.886216          2.091780
     35     35  S       -1   0.949938          8.494644          2.050976
     36     36  S       -1  -0.886513         11.103072          2.010171
     37     37  S       -1   5.869153          6.093181          1.296893
     38     38  S       -1   4.032702          8.701609          1.256089
     39     39  S       -1   2.196251         11.310037          1.215284
     40     40  S       -1  -1.029582          5.116266         -0.103468
     41     41  S       -1  -2.866033          7.724694         -0.144272
     42     42  S       -1  -4.702484         10.333122         -0.185077
     43     43  S       -1   2.053182          5.323230         -0.898355
     44     44  S       -1   0.216731          7.931659         -0.939159
     45     45  S       -1  -1.619719         10.540087         -0.979964
     46     46  S       -1   5.135946          5.530195         -1.693242
     47     47  S       -1   3.299496          8.138623         -1.734046
     48     48  S       -1   1.463045         10.747052         -1.774851
     49     49  O        0   3.126728          6.189121          3.478746
     50     50  N        0   3.379494          6.457846          4.617265
 ---------------------------------------------------------------------------------------------------
                         Z-Matrix orientation:                         
 ---------------------------------------------------------------------
 Center     Atomic      Atomic             Coordinates (Angstroms)
 Number     Number       Type             X           Y           Z
 ---------------------------------------------------------------------
      1         42           0       -0.269554    1.781878    1.975930
      2         16           0       -1.542689    2.863858    3.722359
      3         16           0       -2.275895    2.300873    0.732224
      4         42           0        2.813211    1.988843    1.181043
      5         42           0        5.895975    2.195807    0.386156
      6         42           0        8.978739    2.402772   -0.408731
      7         16           0        1.540075    3.070823    2.927472
      8         16           0        4.622839    3.277788    2.132585
      9         16           0        7.705603    3.484753    1.337697
     10         16           0        0.806869    2.507837   -0.062664
     11         16           0        3.889633    2.714802   -0.857551
     12         16           0        6.972397    2.921767   -1.652438
     13         42           0       -2.106004    4.390306    1.935126
     14         42           0       -3.942455    6.998734    1.894321
     15         42           0       -5.778906    9.607162    1.853517
     16         16           0       -3.379140    5.472287    3.681554
     17         16           0       -5.215591    8.080715    3.640750
     18         16           0       -7.052041   10.689143    3.599946
     19         16           0       -4.112346    4.909301    0.691419
     20         16           0       -5.948797    7.517729    0.650615
     21         16           0       -7.785248   10.126157    0.609810
     22         42           0        0.976760    4.597271    1.140239
     23         42           0       -0.859691    7.205699    1.099434
     24         42           0       -2.696142    9.814127    1.058630
     25         42           0        4.059524    4.804236    0.345352
     26         42           0        2.223073    7.412664    0.304547
     27         42           0        0.386622   10.021092    0.263743
     28         42           0        7.142288    5.011200   -0.449535
     29         42           0        5.305837    7.619628   -0.490340
     30         42           0        3.469386   10.228057   -0.531144
     31         16           0       -0.296376    5.679251    2.886667
     32         16           0       -2.132826    8.287679    2.845863
     33         16           0       -3.969277   10.896108    2.805058
     34         16           0        2.786388    5.886216    2.091780
     35         16           0        0.949938    8.494644    2.050976
     36         16           0       -0.886513   11.103072    2.010171
     37         16           0        5.869153    6.093181    1.296893
     38         16           0        4.032702    8.701609    1.256089
     39         16           0        2.196251   11.310037    1.215284
     40         16           0       -1.029582    5.116266   -0.103468
     41         16           0       -2.866033    7.724694   -0.144272
     42         16           0       -4.702484   10.333122   -0.185077
     43         16           0        2.053182    5.323230   -0.898355
     44         16           0        0.216731    7.931659   -0.939159
     45         16           0       -1.619719   10.540087   -0.979964
     46         16           0        5.135946    5.530195   -1.693242
     47         16           0        3.299496    8.138623   -1.734046
     48         16           0        1.463045   10.747052   -1.774851
     49          8           0        3.126728    6.189121    3.478746
     50          7           0        3.379494    6.457846    4.617265
 ---------------------------------------------------------------------
                    Distance matrix (angstroms):
                    1          2          3          4          5
     1  Mo   0.000000
     2  S    2.416934   0.000000
     3  S    2.416934   3.129769   0.000000
     4  Mo   3.190316   5.118378   5.118378   0.000000
     5  Mo   6.380631   8.179869   8.179869   3.190316   0.000000
     6  Mo   9.570947  11.312778  11.312778   6.380631   3.190316
     7  S    2.416934   3.190316   4.469180   2.416934   5.118378
     8  S    5.118378   6.380631   7.106892   2.416934   2.416934
     9  S    8.179869   9.570947  10.069681   5.118378   2.416934
    10  S    2.416934   4.469180   3.190316   2.416934   5.118378
    11  S    5.118378   7.106892   6.380631   2.416934   2.416934
    12  S    8.179869  10.069681   9.570947   5.118378   2.416934
    13  Mo   3.190316   2.416934   2.416934   5.525789   8.440782
    14  Mo   6.380631   5.118378   5.118378   8.440782  11.051578
    15  Mo   9.570947   8.179869   8.179869  11.502847  13.906264
    16  S    5.118378   3.190316   4.469180   7.532074  10.374137
    17  S    8.179869   6.380631   7.106892  10.374137  12.988125
    18  S   11.312778   9.570947  10.069681  13.374211  15.815066
    19  S    5.118378   4.469180   3.190316   7.532074  10.374137
    20  S    8.179869   7.106892   6.380631  10.374137  12.988125
    21  S   11.312778  10.069681   9.570947  13.374211  15.815066
    22  Mo   3.190316   4.002460   4.002460   3.190316   5.525789
    23  Mo   5.525789   5.118378   5.118378   6.380631   8.440782
    24  Mo   8.440782   7.532074   7.532074   9.570947  11.502847
    25  Mo   5.525789   6.823051   6.823051   3.190316   3.190316
    26  Mo   6.380631   6.823051   6.823051   5.525789   6.380631
    27  Mo   8.440782   8.179869   8.179869   8.440782   9.570947
    28  Mo   8.440782   9.871403   9.871403   5.525789   3.190316
    29  Mo   8.440782   9.341653   9.341653   6.380631   5.525789
    30  Mo   9.570947   9.871403   9.871403   8.440782   8.440782
    31  S    4.002460   3.190316   4.469180   5.118378   7.532074
    32  S    6.823051   5.525789   6.350574   8.179869  10.374137
    33  S    9.871403   8.440782   9.002347  11.312778  13.374211
    34  S    5.118378   5.525789   6.350574   4.002460   5.118378
    35  S    6.823051   6.380631   7.106892   6.823051   8.179869
    36  S    9.341653   8.440782   9.002347   9.871403  11.312778
    37  S    7.532074   8.440782   9.002347   5.118378   4.002460
    38  S    8.179869   8.440782   9.002347   6.823051   6.823051
    39  S    9.871403   9.570947  10.069681   9.341653   9.871403
    40  S    4.002460   4.469180   3.190316   5.118378   7.532074
    41  S    6.823051   6.350574   5.525789   8.179869  10.374137
    42  S    9.871403   9.002347   8.440782  11.312778  13.374211
    43  S    5.118378   6.350574   5.525789   4.002460   5.118378
    44  S    6.823051   7.106892   6.380631   6.823051   8.179869
    45  S    9.341653   9.002347   8.440782   9.871403  11.312778
    46  S    7.532074   9.002347   8.440782   5.118378   4.002460
    47  S    8.179869   9.002347   8.440782   6.823051   6.823051
    48  S    9.871403  10.069681   9.570947   9.341653   9.871403
    49  O    5.763417   5.737610   7.200708   4.797923   5.760155
    50  N    6.492833   6.159991   8.022306   5.665712   6.511523
                    6          7          8          9         10
     6  Mo   0.000000
     7  S    8.179869   0.000000
     8  S    5.118378   3.190316   0.000000
     9  S    2.416934   6.380631   3.190316   0.000000
    10  S    8.179869   3.129769   4.469180   7.106892   0.000000
    11  S    5.118378   4.469180   3.129769   4.469180   3.190316
    12  S    2.416934   7.106892   4.469180   3.129769   6.380631
    13  Mo  11.502847   4.002460   6.823051   9.871403   4.002460
    14  Mo  13.906264   6.823051   9.341653  12.179293   6.823051
    15  Mo  16.577367   9.871403  12.179293  14.818298   9.871403
    16  S   13.374211   5.525789   8.440782  11.502847   6.350574
    17  S   15.815066   8.440782  11.051578  13.906264   9.002347
    18  S   18.485652  11.502847  13.906264  16.577367  11.921029
    19  S   13.374211   6.350574   9.002347  11.921029   5.525789
    20  S   15.815066   9.002347  11.486201  14.254109   8.440782
    21  S   18.485652  11.921029  14.254109  16.870226  11.502847
    22  Mo   8.440782   2.416934   4.002460   6.823051   2.416934
    23  Mo  11.051578   5.118378   6.823051   9.341653   5.118378
    24  Mo  13.906264   8.179869   9.871403  12.179293   8.179869
    25  Mo   5.525789   4.002460   2.416934   4.002460   4.002460
    26  Mo   8.440782   5.118378   5.118378   6.823051   5.118378
    27  Mo  11.502847   7.532074   8.179869   9.871403   7.532074
    28  Mo   3.190316   6.823051   4.002460   2.416934   6.823051
    29  Mo   6.380631   6.823051   5.118378   5.118378   6.823051
    30  Mo   9.570947   8.179869   7.532074   8.179869   8.179869
    31  S   10.374137   3.190316   5.525789   8.440782   4.469180
    32  S   12.988125   6.380631   8.440782  11.051578   7.106892
    33  S   15.815066   9.570947  11.502847  13.906264  10.069681
    34  S    7.532074   3.190316   3.190316   5.525789   4.469180
    35  S   10.374137   5.525789   6.380631   8.440782   6.350574
    36  S   13.374211   8.440782   9.570947  11.502847   9.002347
    37  S    5.118378   5.525789   3.190316   3.190316   6.350574
    38  S    8.179869   6.380631   5.525789   6.380631   7.106892
    39  S   11.312778   8.440782   8.440782   9.570947   9.002347
    40  S   10.374137   4.469180   6.350574   9.002347   3.190316
    41  S   12.988125   7.106892   9.002347  11.486201   6.380631
    42  S   15.815066  10.069681  11.921029  14.254109   9.570947
    43  S    7.532074   4.469180   4.469180   6.350574   3.190316
    44  S   10.374137   6.350574   7.106892   9.002347   5.525789
    45  S   13.374211   9.002347  10.069681  11.921029   8.440782
    46  S    5.118378   6.350574   4.469180   4.469180   5.525789
    47  S    8.179869   7.106892   6.350574   7.106892   6.380631
    48  S   11.312778   9.002347   9.002347  10.069681   8.440782
    49  O    7.980911   3.541913   3.539259   5.732695   5.610274
    50  N    8.547269   4.208419   4.222833   6.189513   6.642492
                   11         12         13         14         15
    11  S    0.000000
    12  S    3.190316   0.000000
    13  Mo   6.823051   9.871403   0.000000
    14  Mo   9.341653  12.179293   3.190316   0.000000
    15  Mo  12.179293  14.818298   6.380631   3.190316   0.000000
    16  S    9.002347  11.921029   2.416934   2.416934   5.118378
    17  S   11.486201  14.254109   5.118378   2.416934   2.416934
    18  S   14.254109  16.870226   8.179869   5.118378   2.416934
    19  S    8.440782  11.502847   2.416934   2.416934   5.118378
    20  S   11.051578  13.906264   5.118378   2.416934   2.416934
    21  S   13.906264  16.577367   8.179869   5.118378   2.416934
    22  Mo   4.002460   6.823051   3.190316   5.525789   8.440782
    23  Mo   6.823051   9.341653   3.190316   3.190316   5.525789
    24  Mo   9.871403  12.179293   5.525789   3.190316   3.190316
    25  Mo   2.416934   4.002460   6.380631   8.440782  11.051578
    26  Mo   5.118378   6.823051   5.525789   6.380631   8.440782
    27  Mo   8.179869   9.871403   6.380631   5.525789   6.380631
    28  Mo   4.002459   2.416934   9.570947  11.502847  13.906264
    29  Mo   5.118378   5.118378   8.440782   9.570947  11.502847
    30  Mo   7.532074   8.179869   8.440782   8.440782   9.570947
    31  S    6.350574   9.002347   2.416934   4.002460   6.823051
    32  S    9.002347  11.486201   4.002460   2.416934   4.002460
    33  S   11.921029  14.254109   6.823051   4.002460   2.416934
    34  S    4.469180   6.350574   5.118378   6.823051   9.341653
    35  S    7.106892   9.002347   5.118378   5.118378   6.823051
    36  S   10.069681  11.921029   6.823051   5.118378   5.118378
    37  S    4.469180   4.469180   8.179869   9.871403  12.179293
    38  S    6.350574   7.106892   7.532074   8.179869   9.871403
    39  S    9.002347  10.069681   8.179869   7.532074   8.179869
    40  S    5.525789   8.440782   2.416934   4.002460   6.823051
    41  S    8.440782  11.051578   4.002460   2.416934   4.002460
    42  S   11.502847  13.906264   6.823051   4.002460   2.416934
    43  S    3.190316   5.525789   5.118378   6.823051   9.341653
    44  S    6.380631   8.440782   5.118378   5.118378   6.823051
    45  S    9.570947  11.502847   6.823051   5.118378   5.118378
    46  S    3.190316   3.190316   8.179869   9.871403  12.179293
    47  S    5.525789   6.380631   7.532074   8.179869   9.871403
    48  S    8.440782   9.570947   8.179869   7.532074   8.179869
    49  O    5.608599   7.196792   5.744562   7.289666   9.676503
    50  N    6.651634   8.044998   6.446649   7.830576  10.071385
                   16         17         18         19         20
    16  S    0.000000
    17  S    3.190316   0.000000
    18  S    6.380631   3.190316   0.000000
    19  S    3.129769   4.469180   7.106892   0.000000
    20  S    4.469180   3.129769   4.469180   3.190316   0.000000
    21  S    7.106892   4.469180   3.129769   6.380631   3.190316
    22  Mo   5.118378   7.532074  10.374137   5.118378   7.532074
    23  Mo   4.002460   5.118378   7.532074   4.002460   5.118378
    24  Mo   5.118378   4.002460   5.118378   5.118378   4.002460
    25  Mo   8.179869  10.374137  12.988125   8.179869  10.374137
    26  Mo   6.823051   8.179869  10.374137   6.823051   8.179869
    27  Mo   6.823051   6.823051   8.179869   6.823051   6.823051
    28  Mo  11.312778  13.374211  15.815066  11.312778  13.374211
    29  Mo   9.871403  11.312778  13.374211   9.871403  11.312778
    30  Mo   9.341653   9.871403  11.312778   9.341653   9.871403
    31  S    3.190316   5.525789   8.440782   4.469180   6.350574
    32  S    3.190316   3.190316   5.525789   4.469180   4.469180
    33  S    5.525789   3.190316   3.190316   6.350574   4.469180
    34  S    6.380631   8.440782  11.051578   7.106892   9.002347
    35  S    5.525789   6.380631   8.440782   6.350574   7.106892
    36  S    6.380631   5.525789   6.380631   7.106892   6.350574
    37  S    9.570947  11.502847  13.906264  10.069681  11.921029
    38  S    8.440782   9.570947  11.502847   9.002347  10.069681
    39  S    8.440782   8.440782   9.570947   9.002347   9.002347
    40  S    4.469180   6.350574   9.002347   3.190316   5.525789
    41  S    4.469180   4.469180   6.350574   3.190316   3.190316
    42  S    6.350574   4.469180   4.469180   5.525789   3.190316
    43  S    7.106892   9.002347  11.486201   6.380631   8.440782
    44  S    6.350574   7.106892   9.002347   5.525789   6.380631
    45  S    7.106892   6.350574   7.106892   6.380631   5.525789
    46  S   10.069681  11.921029  14.254109   9.570947  11.502847
    47  S    9.002347  10.069681  11.921029   8.440782   9.570947
    48  S    9.002347   9.002347  10.069681   8.440782   8.440782
    49  O    6.548381   8.555621  11.129791   7.862018   9.598369
    50  N    6.893911   8.801293  11.302908   8.598716  10.191892
                   21         22         23         24         25
    21  S    0.000000
    22  Mo  10.374137   0.000000
    23  Mo   7.532074   3.190316   0.000000
    24  Mo   5.118378   6.380631   3.190316   0.000000
    25  Mo  12.988125   3.190316   5.525789   8.440782   0.000000
    26  Mo  10.374137   3.190316   3.190316   5.525789   3.190316
    27  Mo   8.179869   5.525789   3.190316   3.190316   6.380631
    28  Mo  15.815066   6.380631   8.440782  11.051578   3.190316
    29  Mo  13.374211   5.525789   6.380631   8.440782   3.190316
    30  Mo  11.312778   6.380631   5.525789   6.380631   5.525789
    31  S    9.002347   2.416934   2.416934   5.118378   5.118378
    32  S    6.350574   5.118378   2.416934   2.416934   7.532074
    33  S    4.469180   8.179869   5.118378   2.416934  10.374137
    34  S   11.486201   2.416934   4.002460   6.823051   2.416934
    35  S    9.002347   4.002460   2.416934   4.002460   5.118378
    36  S    7.106892   6.823051   4.002460   2.416934   8.179869
    37  S   14.254109   5.118378   6.823051   9.341653   2.416934
    38  S   11.921029   5.118378   5.118378   6.823051   4.002460
    39  S   10.069681   6.823051   5.118378   5.118378   6.823051
    40  S    8.440782   2.416934   2.416934   5.118378   5.118378
    41  S    5.525789   5.118378   2.416934   2.416934   7.532074
    42  S    3.190316   8.179869   5.118378   2.416934  10.374137
    43  S   11.051578   2.416934   4.002460   6.823051   2.416934
    44  S    8.440782   4.002460   2.416934   4.002460   5.118378
    45  S    6.380631   6.823051   4.002460   2.416934   8.179869
    46  S   13.906264   5.118378   6.823051   9.341653   2.416934
    47  S   11.502847   5.118378   5.118378   6.823051   4.002460
    48  S    9.570947   6.823051   5.118378   5.118378   6.823051
    49  O   11.949990   3.553163   4.752483   7.273476   3.550518
    50  N   12.416427   4.617855   5.559236   7.800119   4.630995
                   26         27         28         29         30
    26  Mo   0.000000
    27  Mo   3.190316   0.000000
    28  Mo   5.525789   8.440782   0.000000
    29  Mo   3.190316   5.525789   3.190316   0.000000
    30  Mo   3.190316   3.190316   6.380631   3.190316   0.000000
    31  S    4.002459   5.118378   8.179869   6.823051   6.823051
    32  S    5.118378   4.002460  10.374137   8.179869   6.823051
    33  S    7.532074   5.118378  12.988125  10.374137   8.179869
    34  S    2.416934   5.118378   5.118378   4.002460   5.118378
    35  S    2.416934   2.416934   7.532074   5.118378   4.002460
    36  S    5.118378   2.416934  10.374137   7.532074   5.118378
    37  S    4.002460   6.823051   2.416934   2.416934   5.118378
    38  S    2.416934   4.002460   5.118378   2.416934   2.416934
    39  S    4.002460   2.416934   8.179869   5.118378   2.416934
    40  S    4.002460   5.118378   8.179869   6.823051   6.823051
    41  S    5.118378   4.002460  10.374137   8.179869   6.823051
    42  S    7.532074   5.118378  12.988125  10.374137   8.179869
    43  S    2.416934   5.118378   5.118378   4.002459   5.118378
    44  S    2.416934   2.416934   7.532074   5.118378   4.002460
    45  S    5.118378   2.416934  10.374137   7.532074   5.118378
    46  S    4.002460   6.823051   2.416934   2.416934   5.118378
    47  S    2.416934   4.002460   5.118378   2.416934   2.416934
    48  S    4.002460   2.416934   8.179869   5.118378   2.416934
    49  O    3.519828   5.703370   5.739652   4.748527   5.701722
    50  N    4.566018   6.372375   6.474865   5.581054   6.381903
                   31         32         33         34         35
    31  S    0.000000
    32  S    3.190316   0.000000
    33  S    6.380631   3.190316   0.000000
    34  S    3.190316   5.525789   8.440782   0.000000
    35  S    3.190316   3.190316   5.525789   3.190316   0.000000
    36  S    5.525789   3.190316   3.190316   6.380631   3.190316
    37  S    6.380631   8.440782  11.051578   3.190316   5.525789
    38  S    5.525789   6.380631   8.440782   3.190316   3.190316
    39  S    6.380631   5.525789   6.380631   5.525789   3.190316
    40  S    3.129769   4.469180   7.106892   4.469180   4.469180
    41  S    4.469180   3.129769   4.469180   6.350574   4.469180
    42  S    7.106892   4.469180   3.129769   9.002347   6.350574
    43  S    4.469180   6.350574   9.002347   3.129769   4.469180
    44  S    4.469180   4.469180   6.350574   4.469180   3.129769
    45  S    6.350574   4.469180   4.469180   7.106892   4.469180
    46  S    7.106892   9.002347  11.486201   4.469180   6.350574
    47  S    6.350574   7.106892   9.002347   4.469180   4.469180
    48  S    7.106892   6.350574   7.106892   6.350574   4.469180
    49  O    3.511148   5.698018   8.541831   1.459882   3.477411
    50  N    4.136810   6.072218   8.774206   2.656428   4.078864
                   36         37         38         39         40
    36  S    0.000000
    37  S    8.440782   0.000000
    38  S    5.525789   3.190316   0.000000
    39  S    3.190316   6.380631   3.190316   0.000000
    40  S    6.350574   7.106892   6.350574   7.106892   0.000000
    41  S    4.469180   9.002347   7.106892   6.350574   3.190316
    42  S    4.469180  11.486201   9.002347   7.106892   6.380631
    43  S    7.106892   4.469180   4.469180   6.350574   3.190316
    44  S    4.469180   6.350574   4.469180   4.469180   3.190316
    45  S    3.129769   9.002347   6.350574   4.469180   5.525789
    46  S    9.002347   3.129769   4.469180   7.106892   6.380631
    47  S    6.350574   4.469180   3.129769   4.469180   5.525789
    48  S    4.469180   7.106892   4.469180   3.129769   6.380631
    49  O    6.512276   3.505792   3.474708   5.675635   5.590902
    50  N    6.824506   4.166084   4.093734   6.042954   6.597356
                   41         42         43         44         45
    41  S    0.000000
    42  S    3.190316   0.000000
    43  S    5.525789   8.440782   0.000000
    44  S    3.190316   5.525789   3.190316   0.000000
    45  S    3.190316   3.190316   6.380631   3.190316   0.000000
    46  S    8.440782  11.051578   3.190316   5.525789   8.440782
    47  S    6.380631   8.440782   3.190316   3.190316   5.525789
    48  S    5.525789   6.380631   5.525789   3.190316   3.190316
    49  O    7.169200   9.586078   4.589257   5.569776   7.831971
    50  N    7.955108  10.168511   5.785199   6.561177   8.543172
                   46         47         48         49         50
    46  S    0.000000
    47  S    3.190316   0.000000
    48  S    6.380631   3.190316   0.000000
    49  O    5.587540   5.568089   7.151423   0.000000
    50  N    6.615751   6.570432   7.932793   1.196800   0.000000
 Stoichiometry    Mo16NOS32(2)
 Framework group  C1[X(Mo16NOS32)]
 Deg. of freedom   144
 Full point group                 C1      NOp   1
 Largest Abelian subgroup         C1      NOp   1
 Largest concise Abelian subgroup C1      NOp   1
                         Standard orientation:                         
 ---------------------------------------------------------------------
 Center     Atomic      Atomic             Coordinates (Angstroms)
 Number     Number       Type             X           Y           Z
 ---------------------------------------------------------------------
      1         42           0       -0.774933    4.786245   -0.045513
      2         16           0        1.060715    4.785300    1.526734
      3         16           0        1.073248    4.786871   -1.603009
      4         42           0       -3.537940    3.191326   -0.057378
      5         42           0       -6.300947    1.596408   -0.069243
      6         42           0       -9.063954    0.001489   -0.081108
      7         16           0       -1.702292    3.190381    1.514869
      8         16           0       -4.465299    1.595463    1.503004
      9         16           0       -7.228306    0.000544    1.491139
     10         16           0       -1.689759    3.191952   -1.614874
     11         16           0       -4.452766    1.597034   -1.626739
     12         16           0       -7.215773    0.002115   -1.638604
     13         42           0        1.987804    3.190848   -0.035251
     14         42           0        4.750542    1.595451   -0.024988
     15         42           0        7.513279    0.000054   -0.014726
     16         16           0        3.823453    3.189903    1.536997
     17         16           0        6.586190    1.594506    1.547259
     18         16           0        9.348928   -0.000891    1.557522
     19         16           0        3.835986    3.191474   -1.592746
     20         16           0        6.598723    1.596077   -1.582484
     21         16           0        9.361461    0.000680   -1.572221
     22         42           0       -0.775203    1.595929   -0.047116
     23         42           0        1.987535    0.000533   -0.036853
     24         42           0        4.750272   -1.594864   -0.026591
     25         42           0       -3.538210    0.001011   -0.058981
     26         42           0       -0.775472   -1.594386   -0.048718
     27         42           0        1.987265   -3.189783   -0.038456
     28         42           0       -6.301217   -1.593908   -0.070846
     29         42           0       -3.538480   -3.189304   -0.060583
     30         42           0       -0.775742   -4.784701   -0.050321
     31         16           0        1.060446    1.594984    1.525132
     32         16           0        3.823183   -0.000412    1.535394
     33         16           0        6.585920   -1.595809    1.545657
     34         16           0       -1.702562    0.000066    1.513267
     35         16           0        1.060176   -1.595331    1.523529
     36         16           0        3.822913   -3.190728    1.533792
     37         16           0       -4.465569   -1.594853    1.501402
     38         16           0       -1.702831   -3.190249    1.511664
     39         16           0        1.059906   -4.785646    1.521927
     40         16           0        1.072979    1.596556   -1.604611
     41         16           0        3.835716    0.001159   -1.594349
     42         16           0        6.598453   -1.594238   -1.584086
     43         16           0       -1.690028    0.001637   -1.616477
     44         16           0        1.072709   -1.593760   -1.606214
     45         16           0        3.835446   -3.189157   -1.595952
     46         16           0       -4.453036   -1.593281   -1.628342
     47         16           0       -1.690298   -3.188678   -1.618079
     48         16           0        1.072439   -4.784075   -1.607817
     49          8           0       -1.690475   -0.037620    2.972613
     50          7           0       -1.648129   -0.075883    4.168051
 ---------------------------------------------------------------------
 Rotational constants (GHZ):      0.0260916      0.0092742      0.0074244
 Standard basis: VSTO-6G (5D, 7F)
 There are   488 symmetry adapted cartesian basis functions of A   symmetry.
 There are   440 symmetry adapted basis functions of A   symmetry.
   440 basis functions,  2928 primitive gaussians,   488 cartesian basis functions
   150 alpha electrons      149 beta electrons
       nuclear repulsion energy      4283.5856669770 Hartrees.
 Integral buffers will be    262144 words long.
 Regular integral format.
 Two-electron integral symmetry is turned off.
 Do NDO integrals.
 One-electron integrals computed using PRISM.
 NBasis=   440 RedAO= F EigKep=  0.00D+00  NBF=   440
 NBsUse=   440 1.00D-04 EigRej=  0.00D+00 NBFU=   440
 Projected New-EHT guess.
 Enter ItEHT:  IZDO=4 IZDPar=0 Conv= 1.00D-06 N=  280
 It=   1                  EEH= -49.8887684304     EQH= 0.000000000000E+00 EH= -49.8887684304    
 Initial guess <Sx>= 0.0000 <Sy>= 0.0000 <Sz>= 0.5000 <S**2>= 0.7500 S= 0.5000
 Keep J ints in memory in canonical form, NReq=6411632.
 Gradient too large for Newton-Raphson or scaled steepest descent --
 use steepest descent instead.
     Accept linear search using points  2 and  3.
 Gradient too large for Newton-Raphson or scaled steepest descent --
 use steepest descent instead.
     Minimum is close to point  2 DX=  3.97D-03 DF= -1.20D-01 DXR=  1.95D-02 DFR=  3.78D-04 which will be used.
 Gradient too large for Newton-Raphson or scaled steepest descent --
 use steepest descent instead.
     Accept linear search using points  1 and  2.
 Gradient too large for Newton-Raphson or scaled steepest descent --
 use steepest descent instead.
     Accept linear search using points  2 and  3.
 Gradient too large for Newton-Raphson or scaled steepest descent --
 use steepest descent instead.
     Minimum is close to point  3 DX=  1.95D-02 DF= -4.12D-01 DXR=  6.09D-02 DFR=  2.97D-03 which will be used.
 Gradient too large for Newton-Raphson or scaled steepest descent --
 use steepest descent instead.
     Minimum is close to point  3 DX=  1.16D-02 DF= -4.00D-02 DXR=  2.82D-02 DFR=  6.01D-04 which will be used.
 Gradient too large for Newton-Raphson -- use scaled steepest descent instead.
     Minimum is close to point  2 DX=  2.63D-02 DF= -1.22D-01 DXR=  6.16D-02 DFR=  3.81D-03 which will be used.
 Gradient too large for Newton-Raphson -- use scaled steepest descent instead.
     Note:  rotation exceeds Pi/2.
     Minimum is close to point  3 DX=  1.98D-02 DF= -5.28D-02 DXR=  6.20D-02 DFR=  2.16D-03 which will be used.
 Gradient too large for Newton-Raphson -- use scaled steepest descent instead.
 Gradient too large for Newton-Raphson -- use scaled steepest descent instead.
     Accept linear search using points  1 and  2.
 Gradient too large for Newton-Raphson -- use scaled steepest descent instead.
 Gradient too large for Newton-Raphson -- use scaled steepest descent instead.
     Accept linear search using points  1 and  2.
 Gradient too large for Newton-Raphson -- use scaled steepest descent instead.
     Minimum is close to point  5 DX=  2.42D-02 DF= -5.45D-03 DXR=  3.34D-02 DFR=  9.19D-04 which will be used.
 Gradient too large for Newton-Raphson -- use scaled steepest descent instead.
 Gradient too large for Newton-Raphson -- use scaled steepest descent instead.
 Gradient too large for Newton-Raphson -- use scaled steepest descent instead.
     Accept linear search using points  2 and  3.
 Gradient too large for Newton-Raphson -- use scaled steepest descent instead.
 Gradient too large for Newton-Raphson -- use scaled steepest descent instead.
     Minimum is close to point  2 DX=  5.13D-03 DF= -2.26D-04 DXR=  1.68D-02 DFR=  2.83D-04 which will be used.
 Gradient too large for Newton-Raphson -- use scaled steepest descent instead.
     Minimum is close to point  2 DX=  3.26D-02 DF= -6.42D-03 DXR=  9.79D-02 DFR=  9.68D-03 which will be used.
 Gradient too large for Newton-Raphson -- use scaled steepest descent instead.
     Accept linear search using points  2 and  3.
 Gradient too large for Newton-Raphson -- use scaled steepest descent instead.
     Accept linear search using points  1 and  2.
 Gradient too large for Newton-Raphson -- use scaled steepest descent instead.
     Accept linear search using points  4 and  5.
     Minimum is close to point  5 DX= -4.04D-02 DF= -5.10D-04 DXR=  1.58D-02 DFR=  3.19D-04 which will be used.
 Gradient too large for Newton-Raphson -- use scaled steepest descent instead.
     Minimum is close to point  3 DX= -2.40D-02 DF= -3.94D-03 DXR=  8.69D-02 DFR=  7.61D-03 which will be used.
 Gradient too large for Newton-Raphson -- use scaled steepest descent instead.
 Gradient too large for Newton-Raphson -- use scaled steepest descent instead.
     Minimum is close to point  2 DX=  7.23D-04 DF= -5.91D-07 DXR=  1.80D-03 DFR=  3.26D-06 which will be used.
 Gradient too large for Newton-Raphson -- use scaled steepest descent instead.
 Gradient too large for Newton-Raphson -- use scaled steepest descent instead.
     Accept linear search using points  1 and  2.
 Gradient too large for Newton-Raphson -- use scaled steepest descent instead.
 Gradient too large for Newton-Raphson -- use scaled steepest descent instead.
 Gradient too large for Newton-Raphson -- use scaled steepest descent instead.
 Gradient too large for Newton-Raphson -- use scaled steepest descent instead.
     Minimum is close to point  3 DX= -8.79D-04 DF= -3.60D-07 DXR=  2.20D-03 DFR=  4.86D-06 which will be used.
 Gradient too large for Newton-Raphson -- use scaled steepest descent instead.
     Accept linear search using points  2 and  3.
 Gradient too large for Newton-Raphson -- use scaled steepest descent instead.
     Accept linear search using points  1 and  2.
 Gradient too large for Newton-Raphson -- use scaled steepest descent instead.
     Accept linear search using points  3 and  4.
 Gradient too large for Newton-Raphson -- use scaled steepest descent instead.
     Minimum is close to point  3 DX= -2.24D-02 DF= -2.33D-04 DXR=  5.94D-02 DFR=  3.54D-03 which will be used.
 Gradient too large for Newton-Raphson -- use scaled steepest descent instead.
 Gradient too large for Newton-Raphson -- use scaled steepest descent instead.
     Accept linear search using points  1 and  2.
 Gradient too large for Newton-Raphson -- use scaled steepest descent instead.
     Accept linear search using points  3 and  4.
 Gradient too large for Newton-Raphson -- use scaled steepest descent instead.
     Minimum is close to point  3 DX= -1.98D-02 DF= -1.24D-04 DXR=  5.21D-02 DFR=  2.72D-03 which will be used.
 Gradient too large for Newton-Raphson -- use scaled steepest descent instead.
 Gradient too large for Newton-Raphson -- use scaled steepest descent instead.
     Accept linear search using points  1 and  2.
 Gradient too large for Newton-Raphson -- use scaled steepest descent instead.
     Accept linear search using points  3 and  4.
     Minimum is close to point  4 DX= -1.85D-01 DF= -2.29D-04 DXR=  6.81D-02 DFR=  5.94D-03 which will be used.
 Gradient too large for Newton-Raphson -- use scaled steepest descent instead.
     Minimum is close to point  3 DX= -3.11D-02 DF= -2.93D-04 DXR=  8.44D-02 DFR=  7.17D-03 which will be used.
 Gradient too large for Newton-Raphson -- use scaled steepest descent instead.
 Gradient too large for Newton-Raphson -- use scaled steepest descent instead.
     Accept linear search using points  1 and  2.
 Gradient too large for Newton-Raphson -- use scaled steepest descent instead.
 Gradient too large for Newton-Raphson -- use scaled steepest descent instead.
 Gradient too large for Newton-Raphson -- use scaled steepest descent instead.
 Gradient too large for Newton-Raphson -- use scaled steepest descent instead.
 Gradient too large for Newton-Raphson -- use scaled steepest descent instead.
 Gradient too large for Newton-Raphson -- use scaled steepest descent instead.
     Minimum is close to point  3 DX= -5.23D-03 DF= -1.64D-06 DXR=  1.33D-02 DFR=  1.76D-04 which will be used.
 Gradient too large for Newton-Raphson -- use scaled steepest descent instead.
     Accept linear search using points  2 and  3.
 Gradient too large for Newton-Raphson -- use scaled steepest descent instead.
     Accept linear search using points  1 and  2.
 Gradient too large for Newton-Raphson -- use scaled steepest descent instead.
     Minimum is close to point  3 DX=  2.83D-02 DF= -1.40D-06 DXR=  1.64D-02 DFR=  2.68D-04 which will be used.
 Gradient too large for Newton-Raphson -- use scaled steepest descent instead.
     Minimum is close to point  3 DX=  3.02D-02 DF= -2.39D-05 DXR=  7.03D-02 DFR=  4.96D-03 which will be used.
 Gradient too large for Newton-Raphson -- use scaled steepest descent instead.
     Accept linear search using points  3 and  4.
     Minimum is close to point  4 DX= -1.45D-01 DF= -2.37D-05 DXR=  4.44D-02 DFR=  3.12D-03 which will be used.
 Gradient too large for Newton-Raphson -- use scaled steepest descent instead.
 Gradient too large for Newton-Raphson -- use scaled steepest descent instead.
 Gradient too large for Newton-Raphson -- use scaled steepest descent instead.
     Minimum is close to point  3 DX= -5.61D-03 DF= -1.25D-06 DXR=  1.42D-02 DFR=  2.03D-04 which will be used.
 Gradient too large for Newton-Raphson -- use scaled steepest descent instead.
     Accept linear search using points  2 and  3.
 Gradient too large for Newton-Raphson -- use scaled steepest descent instead.
     Minimum is close to point  3 DX=  3.03D-02 DF= -1.88D-05 DXR=  7.03D-02 DFR=  4.97D-03 which will be used.
 Gradient too large for Newton-Raphson -- use scaled steepest descent instead.
     Accept linear search using points  3 and  4.
 Gradient too large for Newton-Raphson -- use scaled steepest descent instead.
 Gradient too large for Newton-Raphson -- use scaled steepest descent instead.
     Accept linear search using points  2 and  3.
     Minimum is close to point  3 DX= -4.00D-02 DF= -1.55D-06 DXR=  1.85D-02 DFR=  4.00D-04 which will be used.
 Gradient too large for Newton-Raphson -- use scaled steepest descent instead.
     Minimum is close to point  3 DX=  2.51D-02 DF= -1.27D-05 DXR=  5.91D-02 DFR=  3.50D-03 which will be used.
 Gradient too large for Newton-Raphson -- use scaled steepest descent instead.
 Gradient too large for Newton-Raphson -- use scaled steepest descent instead.
     Minimum is close to point  3 DX=  2.05D-02 DF= -8.68D-06 DXR=  4.87D-02 DFR=  2.38D-03 which will be used.
 Gradient too large for Newton-Raphson -- use scaled steepest descent instead.
     Minimum is close to point  3 DX=  1.95D-01 DF= -2.52D-05 DXR=  8.51D-02 DFR=  7.30D-03 which will be used.
 Gradient too large for Newton-Raphson -- use scaled steepest descent instead.
 Gradient too large for Newton-Raphson -- use scaled steepest descent instead.
 Gradient too large for Newton-Raphson -- use scaled steepest descent instead.
     Accept linear search using points  1 and  2.
 Gradient too large for Newton-Raphson -- use scaled steepest descent instead.
     Minimum is close to point  3 DX=  1.41D-01 DF= -1.69D-05 DXR=  8.58D-02 DFR=  7.42D-03 which will be used.
 Gradient too large for Newton-Raphson -- use scaled steepest descent instead.
     Accept linear search using points  1 and  2.
 Gradient too large for Newton-Raphson -- use scaled steepest descent instead.
     Accept linear search using points  2 and  3.
 Gradient too large for Newton-Raphson -- use scaled steepest descent instead.
     Accept linear search using points  1 and  2.
 Gradient too large for Newton-Raphson -- use scaled steepest descent instead.
     Minimum is close to point  3 DX=  1.51D-01 DF= -1.63D-05 DXR=  8.60D-02 DFR=  7.47D-03 which will be used.
 Gradient too large for Newton-Raphson -- use scaled steepest descent instead.
     Accept linear search using points  1 and  2.
 Gradient too large for Newton-Raphson -- use scaled steepest descent instead.
     Accept linear search using points  2 and  3.
 Gradient too large for Newton-Raphson -- use scaled steepest descent instead.
     Accept linear search using points  1 and  2.
 Gradient too large for Newton-Raphson -- use scaled steepest descent instead.
 Gradient too large for Newton-Raphson -- use scaled steepest descent instead.
     Minimum is close to point  3 DX=  2.64D-02 DF= -8.02D-06 DXR=  6.20D-02 DFR=  3.85D-03 which will be used.
 Gradient too large for Newton-Raphson -- use scaled steepest descent instead.
     Minimum is close to point  4 DX=  3.32D-02 DF= -3.05D-07 DXR=  9.13D-03 DFR=  8.41D-05 which will be used.
 Gradient too large for Newton-Raphson -- use scaled steepest descent instead.
 Gradient too large for Newton-Raphson -- use scaled steepest descent instead.
 Gradient too large for Newton-Raphson -- use scaled steepest descent instead.
 Gradient too large for Newton-Raphson -- use scaled steepest descent instead.
 Gradient too large for Newton-Raphson -- use scaled steepest descent instead.
     Minimum is close to point  3 DX= -1.09D-02 DF= -2.24D-06 DXR=  2.80D-02 DFR=  7.84D-04 which will be used.
 Gradient too large for Newton-Raphson -- use scaled steepest descent instead.
     Accept linear search using points  2 and  3.
     Minimum is close to point  3 DX= -1.04D-01 DF= -5.39D-06 DXR=  4.74D-02 DFR=  2.79D-03 which will be used.
 Gradient too large for Newton-Raphson -- use scaled steepest descent instead.
     Minimum is close to point  3 DX=  5.64D-03 DF= -4.11D-07 DXR=  1.39D-02 DFR=  1.94D-04 which will be used.
 Gradient too large for Newton-Raphson -- use scaled steepest descent instead.
     Accept linear search using points  3 and  4.
 Gradient too large for Newton-Raphson -- use scaled steepest descent instead.
     Minimum is close to point  3 DX= -5.51D-03 DF= -4.65D-07 DXR=  1.40D-02 DFR=  1.95D-04 which will be used.
 Gradient too large for Newton-Raphson -- use scaled steepest descent instead.
     Minimum is close to point  3 DX=  2.09D-01 DF= -1.46D-05 DXR=  8.67D-02 DFR=  7.60D-03 which will be used.
 Gradient too large for Newton-Raphson -- use scaled steepest descent instead.
     Minimum is close to point  3 DX=  2.19D-02 DF= -4.39D-06 DXR=  5.20D-02 DFR=  2.71D-03 which will be used.
 Gradient too large for Newton-Raphson -- use scaled steepest descent instead.
     Minimum is close to point  4 DX= -3.63D-01 DF= -2.64D-05 DXR=  9.97D-02 DFR=  1.01D-02 which will be used.
 Gradient too large for Newton-Raphson -- use scaled steepest descent instead.
 Gradient too large for Newton-Raphson -- use scaled steepest descent instead.
 Gradient too large for Newton-Raphson -- use scaled steepest descent instead.
 Gradient too large for Newton-Raphson -- use scaled steepest descent instead.
     Accept linear search using points  3 and  4.
 Gradient too large for Newton-Raphson -- use scaled steepest descent instead.
 Gradient too large for Newton-Raphson -- use scaled steepest descent instead.
 Gradient too large for Newton-Raphson -- use scaled steepest descent instead.
     Minimum is close to point  3 DX=  1.19D-04 DF= -1.61D-10 DXR=  2.98D-04 DFR=  8.89D-08 which will be used.
 Gradient too large for Newton-Raphson -- use scaled steepest descent instead.
     Accept linear search using points  2 and  3.
     Minimum is close to point  3 DX= -5.01D-02 DF= -7.49D-07 DXR=  2.22D-02 DFR=  5.74D-04 which will be used.
 Gradient too large for Newton-Raphson -- use scaled steepest descent instead.
     Minimum is close to point  3 DX=  2.76D-02 DF= -5.28D-06 DXR=  6.45D-02 DFR=  4.18D-03 which will be used.
 Gradient too large for Newton-Raphson -- use scaled steepest descent instead.
     Accept linear search using points  3 and  4.
 Gradient too large for Newton-Raphson -- use scaled steepest descent instead.
     Minimum is close to point  3 DX=  1.42D-02 DF= -1.94D-06 DXR=  3.43D-02 DFR=  1.18D-03 which will be used.
 Gradient too large for Newton-Raphson -- use scaled steepest descent instead.
     Accept linear search using points  2 and  3.
     Minimum is close to point  3 DX= -2.06D-01 DF= -1.17D-05 DXR=  9.84D-02 DFR=  1.04D-02 which will be used.
 Gradient too large for Newton-Raphson -- use scaled steepest descent instead.
 Gradient too large for Newton-Raphson -- use scaled steepest descent instead.
 Gradient too large for Newton-Raphson -- use scaled steepest descent instead.
     Accept linear search using points  1 and  2.
 Gradient too large for Newton-Raphson -- use scaled steepest descent instead.
     Accept linear search using points  3 and  4.
     Minimum is close to point  4 DX= -2.35D-01 DF= -1.05D-05 DXR=  8.51D-02 DFR=  8.94D-03 which will be used.
 Gradient too large for Newton-Raphson -- use scaled steepest descent instead.
     Minimum is close to point  3 DX= -6.67D-03 DF= -4.24D-07 DXR=  1.69D-02 DFR=  2.87D-04 which will be used.
 Gradient too large for Newton-Raphson -- use scaled steepest descent instead.
     Minimum is close to point  3 DX=  2.16D-01 DF= -8.90D-06 DXR=  9.32D-02 DFR=  8.78D-03 which will be used.
 Gradient too large for Newton-Raphson -- use scaled steepest descent instead.
     Minimum is close to point  3 DX=  3.61D-02 DF= -5.75D-06 DXR=  8.28D-02 DFR=  6.90D-03 which will be used.
 Gradient too large for Newton-Raphson -- use scaled steepest descent instead.
     Minimum is close to point  4 DX=  2.08D-01 DF= -4.01D-06 DXR=  4.94D-02 DFR=  2.46D-03 which will be used.
 Gradient too large for Newton-Raphson -- use scaled steepest descent instead.
 Gradient too large for Newton-Raphson -- use scaled steepest descent instead.
     Accept linear search using points  2 and  3.
     Minimum is close to point  3 DX= -1.40D-01 DF= -3.86D-06 DXR=  5.71D-02 DFR=  4.19D-03 which will be used.
 Gradient too large for Newton-Raphson -- use scaled steepest descent instead.
     Minimum is close to point  3 DX=  2.16D-02 DF= -2.59D-06 DXR=  5.12D-02 DFR=  2.63D-03 which will be used.
 Gradient too large for Newton-Raphson -- use scaled steepest descent instead.
 Gradient too large for Newton-Raphson -- use scaled steepest descent instead.
     Minimum is close to point  3 DX=  4.44D-02 DF= -8.46D-06 DXR=  9.99D-02 DFR=  1.01D-02 which will be used.
 Gradient too large for Newton-Raphson -- use scaled steepest descent instead.
 Gradient too large for Newton-Raphson -- use scaled steepest descent instead.
     Minimum is close to point  3 DX= -2.96D-02 DF= -3.19D-06 DXR=  6.30D-02 DFR=  3.98D-03 which will be used.
 Gradient too large for Newton-Raphson -- use scaled steepest descent instead.
     Accept linear search using points  1 and  2.
 Gradient too large for Newton-Raphson -- use scaled steepest descent instead.
     Accept linear search using points  1 and  2.
 Gradient too large for Newton-Raphson -- use scaled steepest descent instead.
     Minimum is close to point  3 DX=  7.96D-02 DF= -1.60D-06 DXR=  5.77D-02 DFR=  3.34D-03 which will be used.
 Gradient too large for Newton-Raphson -- use scaled steepest descent instead.
     Accept linear search using points  1 and  2.
 Gradient too large for Newton-Raphson -- use scaled steepest descent instead.
     Minimum is close to point  3 DX=  8.53D-02 DF= -1.37D-06 DXR=  5.06D-02 DFR=  2.57D-03 which will be used.
 Gradient too large for Newton-Raphson -- use scaled steepest descent instead.
     Accept linear search using points  1 and  2.
 Gradient too large for Newton-Raphson -- use scaled steepest descent instead.
     Accept linear search using points  2 and  3.
 Gradient too large for Newton-Raphson -- use scaled steepest descent instead.
     Accept linear search using points  1 and  2.
 Gradient too large for Newton-Raphson -- use scaled steepest descent instead.
 Gradient too large for Newton-Raphson -- use scaled steepest descent instead.
     Minimum is close to point  3 DX=  2.81D-02 DF= -2.35D-06 DXR=  6.56D-02 DFR=  4.33D-03 which will be used.
 Gradient too large for Newton-Raphson -- use scaled steepest descent instead.
 Gradient too large for Newton-Raphson -- use scaled steepest descent instead.
 Gradient too large for Newton-Raphson -- use scaled steepest descent instead.
     Accept linear search using points  3 and  4.
     Minimum is close to point  4 DX= -3.59D-01 DF= -6.15D-06 DXR=  7.41D-02 DFR=  6.80D-03 which will be used.
 Gradient too large for Newton-Raphson -- use scaled steepest descent instead.
 Gradient too large for Newton-Raphson -- use scaled steepest descent instead.
 Gradient too large for Newton-Raphson -- use scaled steepest descent instead.
 LinEq1:  Iter=  0 NonCon=     1 RMS=1.59D-04 Max=9.64D-03 NDo=     1
 AX will form     1 AO Fock derivatives at one time.
 LinEq1:  Iter=  1 NonCon=     1 RMS=7.24D-05 Max=1.66D-03 NDo=     1
 LinEq1:  Iter=  2 NonCon=     1 RMS=5.58D-05 Max=2.02D-03 NDo=     1
 LinEq1:  Iter=  3 NonCon=     1 RMS=3.23D-05 Max=7.81D-04 NDo=     1
 LinEq1:  Iter=  4 NonCon=     1 RMS=3.17D-05 Max=9.55D-04 NDo=     1
 LinEq1:  Iter=  5 NonCon=     1 RMS=2.40D-05 Max=6.13D-04 NDo=     1
 LinEq1:  Iter=  6 NonCon=     1 RMS=1.97D-05 Max=4.12D-04 NDo=     1
 LinEq1:  Iter=  7 NonCon=     1 RMS=1.83D-05 Max=3.76D-04 NDo=     1
 LinEq1:  Iter=  8 NonCon=     1 RMS=1.59D-05 Max=3.13D-04 NDo=     1
 LinEq1:  Iter=  9 NonCon=     1 RMS=1.29D-05 Max=2.95D-04 NDo=     1
 LinEq1:  Iter= 10 NonCon=     1 RMS=1.24D-05 Max=3.00D-04 NDo=     1
 LinEq1:  Iter= 11 NonCon=     1 RMS=1.06D-05 Max=3.33D-04 NDo=     1
 LinEq1:  Iter= 12 NonCon=     1 RMS=8.52D-06 Max=2.45D-04 NDo=     1
 LinEq1:  Iter= 13 NonCon=     1 RMS=7.91D-06 Max=2.59D-04 NDo=     1
 LinEq1:  Iter= 14 NonCon=     1 RMS=7.17D-06 Max=2.01D-04 NDo=     1
 LinEq1:  Iter= 15 NonCon=     1 RMS=5.03D-06 Max=1.37D-04 NDo=     1
 LinEq1:  Iter= 16 NonCon=     1 RMS=4.19D-06 Max=8.91D-05 NDo=     1
 LinEq1:  Iter= 17 NonCon=     1 RMS=3.73D-06 Max=1.02D-04 NDo=     1
 LinEq1:  Iter= 18 NonCon=     1 RMS=3.57D-06 Max=7.85D-05 NDo=     1
 LinEq1:  Iter= 19 NonCon=     1 RMS=2.52D-06 Max=5.21D-05 NDo=     1
 LinEq1:  Iter= 20 NonCon=     1 RMS=1.71D-06 Max=3.48D-05 NDo=     1
 LinEq1:  Iter= 21 NonCon=     1 RMS=1.06D-06 Max=2.41D-05 NDo=     1
 LinEq1:  Iter= 22 NonCon=     1 RMS=7.44D-07 Max=1.41D-05 NDo=     1
 LinEq1:  Iter= 23 NonCon=     1 RMS=4.76D-07 Max=1.16D-05 NDo=     1
 LinEq1:  Iter= 24 NonCon=     1 RMS=3.50D-07 Max=8.43D-06 NDo=     1
 LinEq1:  Iter= 25 NonCon=     1 RMS=2.47D-07 Max=7.67D-06 NDo=     1
 LinEq1:  Iter= 26 NonCon=     1 RMS=1.79D-07 Max=3.83D-06 NDo=     1
 LinEq1:  Iter= 27 NonCon=     1 RMS=1.24D-07 Max=2.82D-06 NDo=     1
 LinEq1:  Iter= 28 NonCon=     1 RMS=8.22D-08 Max=1.63D-06 NDo=     1
 LinEq1:  Iter= 29 NonCon=     1 RMS=5.09D-08 Max=1.40D-06 NDo=     1
 LinEq1:  Iter= 30 NonCon=     1 RMS=3.41D-08 Max=7.79D-07 NDo=     1
 LinEq1:  Iter= 31 NonCon=     1 RMS=2.13D-08 Max=4.40D-07 NDo=     1
 LinEq1:  Iter= 32 NonCon=     0 RMS=1.16D-08 Max=2.00D-07 NDo=     1
 Linear equations converged to 2.947D-08 2.947D-07 after    32 iterations.
 Incorrect curvature in search direction -- initial direction reversed.
 Gradient too large for Newton-Raphson -- use scaled steepest descent instead.
 Gradient too large for Newton-Raphson -- use scaled steepest descent instead.
 Gradient too large for Newton-Raphson -- use scaled steepest descent instead.
     Minimum is close to point  2 DX=  5.14D-03 DF= -1.06D-08 DXR=  3.94D-03 DFR=  1.55D-05 which will be used.
 Gradient too large for Newton-Raphson -- use scaled steepest descent instead.
     Accept linear search using points  1 and  2.
 LinEq1:  Iter=  0 NonCon=     1 RMS=1.23D-04 Max=7.15D-03 NDo=     1
 LinEq1:  Iter=  1 NonCon=     1 RMS=1.26D-04 Max=3.43D-03 NDo=     1
 LinEq1:  Iter=  2 NonCon=     1 RMS=5.60D-05 Max=1.17D-03 NDo=     1
 LinEq1:  Iter=  3 NonCon=     1 RMS=3.40D-05 Max=1.42D-03 NDo=     1
 LinEq1:  Iter=  4 NonCon=     1 RMS=2.65D-05 Max=8.79D-04 NDo=     1
 LinEq1:  Iter=  5 NonCon=     1 RMS=1.67D-05 Max=6.03D-04 NDo=     1
 LinEq1:  Iter=  6 NonCon=     1 RMS=1.38D-05 Max=5.32D-04 NDo=     1
 LinEq1:  Iter=  7 NonCon=     1 RMS=1.02D-05 Max=2.30D-04 NDo=     1
 LinEq1:  Iter=  8 NonCon=     1 RMS=9.40D-06 Max=1.91D-04 NDo=     1
 LinEq1:  Iter=  9 NonCon=     1 RMS=9.06D-06 Max=2.81D-04 NDo=     1
 LinEq1:  Iter= 10 NonCon=     1 RMS=8.60D-06 Max=2.99D-04 NDo=     1
 LinEq1:  Iter= 11 NonCon=     1 RMS=6.42D-06 Max=1.68D-04 NDo=     1
 LinEq1:  Iter= 12 NonCon=     1 RMS=4.63D-06 Max=9.43D-05 NDo=     1
 LinEq1:  Iter= 13 NonCon=     1 RMS=3.55D-06 Max=7.08D-05 NDo=     1
 LinEq1:  Iter= 14 NonCon=     1 RMS=3.08D-06 Max=7.05D-05 NDo=     1
 LinEq1:  Iter= 15 NonCon=     1 RMS=2.65D-06 Max=5.04D-05 NDo=     1
 LinEq1:  Iter= 16 NonCon=     1 RMS=2.53D-06 Max=7.06D-05 NDo=     1
 LinEq1:  Iter= 17 NonCon=     1 RMS=1.72D-06 Max=3.57D-05 NDo=     1
 LinEq1:  Iter= 18 NonCon=     1 RMS=1.44D-06 Max=3.74D-05 NDo=     1
 LinEq1:  Iter= 19 NonCon=     1 RMS=1.39D-06 Max=3.67D-05 NDo=     1
 LinEq1:  Iter= 20 NonCon=     1 RMS=1.08D-06 Max=2.59D-05 NDo=     1
 LinEq1:  Iter= 21 NonCon=     1 RMS=1.02D-06 Max=3.50D-05 NDo=     1
 LinEq1:  Iter= 22 NonCon=     1 RMS=6.18D-07 Max=1.40D-05 NDo=     1
 LinEq1:  Iter= 23 NonCon=     1 RMS=6.19D-07 Max=1.65D-05 NDo=     1
 LinEq1:  Iter= 24 NonCon=     1 RMS=5.02D-07 Max=1.26D-05 NDo=     1
 LinEq1:  Iter= 25 NonCon=     1 RMS=3.50D-07 Max=5.77D-06 NDo=     1
 LinEq1:  Iter= 26 NonCon=     1 RMS=2.07D-07 Max=4.12D-06 NDo=     1
 LinEq1:  Iter= 27 NonCon=     1 RMS=1.51D-07 Max=3.62D-06 NDo=     1
 LinEq1:  Iter= 28 NonCon=     1 RMS=9.22D-08 Max=2.12D-06 NDo=     1
 LinEq1:  Iter= 29 NonCon=     1 RMS=4.48D-08 Max=1.06D-06 NDo=     1
 LinEq1:  Iter= 30 NonCon=     1 RMS=3.14D-08 Max=5.67D-07 NDo=     1
 LinEq1:  Iter= 31 NonCon=     1 RMS=2.14D-08 Max=5.41D-07 NDo=     1
 LinEq1:  Iter= 32 NonCon=     1 RMS=1.15D-08 Max=3.05D-07 NDo=     1
 LinEq1:  Iter= 33 NonCon=     0 RMS=6.71D-09 Max=1.26D-07 NDo=     1
 Linear equations converged to 2.947D-08 2.947D-07 after    33 iterations.
 LinEq1:  Iter=  0 NonCon=     1 RMS=1.14D-04 Max=6.34D-03 NDo=     1
 LinEq1:  Iter=  1 NonCon=     1 RMS=1.32D-04 Max=3.33D-03 NDo=     1
 LinEq1:  Iter=  2 NonCon=     1 RMS=9.44D-05 Max=1.55D-03 NDo=     1
 LinEq1:  Iter=  3 NonCon=     1 RMS=7.09D-05 Max=1.40D-03 NDo=     1
 LinEq1:  Iter=  4 NonCon=     1 RMS=5.54D-05 Max=1.22D-03 NDo=     1
 LinEq1:  Iter=  5 NonCon=     1 RMS=5.94D-05 Max=2.05D-03 NDo=     1
 LinEq1:  Iter=  6 NonCon=     1 RMS=4.68D-05 Max=1.39D-03 NDo=     1
 LinEq1:  Iter=  7 NonCon=     1 RMS=4.00D-05 Max=1.17D-03 NDo=     1
 LinEq1:  Iter=  8 NonCon=     1 RMS=3.22D-05 Max=9.12D-04 NDo=     1
 LinEq1:  Iter=  9 NonCon=     1 RMS=3.06D-05 Max=7.91D-04 NDo=     1
 LinEq1:  Iter= 10 NonCon=     1 RMS=1.98D-05 Max=6.83D-04 NDo=     1
 LinEq1:  Iter= 11 NonCon=     1 RMS=1.60D-05 Max=3.21D-04 NDo=     1
 LinEq1:  Iter= 12 NonCon=     1 RMS=1.82D-05 Max=5.96D-04 NDo=     1
 LinEq1:  Iter= 13 NonCon=     1 RMS=1.46D-05 Max=2.98D-04 NDo=     1
 LinEq1:  Iter= 14 NonCon=     1 RMS=1.16D-05 Max=2.31D-04 NDo=     1
 LinEq1:  Iter= 15 NonCon=     1 RMS=9.16D-06 Max=1.82D-04 NDo=     1
 LinEq1:  Iter= 16 NonCon=     1 RMS=7.68D-06 Max=2.20D-04 NDo=     1
 LinEq1:  Iter= 17 NonCon=     1 RMS=5.96D-06 Max=1.21D-04 NDo=     1
 LinEq1:  Iter= 18 NonCon=     1 RMS=4.58D-06 Max=1.23D-04 NDo=     1
 LinEq1:  Iter= 19 NonCon=     1 RMS=4.55D-06 Max=1.10D-04 NDo=     1
 LinEq1:  Iter= 20 NonCon=     1 RMS=3.61D-06 Max=8.93D-05 NDo=     1
 LinEq1:  Iter= 21 NonCon=     1 RMS=2.62D-06 Max=6.20D-05 NDo=     1
 LinEq1:  Iter= 22 NonCon=     1 RMS=1.92D-06 Max=4.19D-05 NDo=     1
 LinEq1:  Iter= 23 NonCon=     1 RMS=1.43D-06 Max=2.86D-05 NDo=     1
 LinEq1:  Iter= 24 NonCon=     1 RMS=9.38D-07 Max=2.13D-05 NDo=     1
 LinEq1:  Iter= 25 NonCon=     1 RMS=6.52D-07 Max=1.44D-05 NDo=     1
 LinEq1:  Iter= 26 NonCon=     1 RMS=4.08D-07 Max=1.21D-05 NDo=     1
 LinEq1:  Iter= 27 NonCon=     1 RMS=2.15D-07 Max=4.66D-06 NDo=     1
 LinEq1:  Iter= 28 NonCon=     1 RMS=1.37D-07 Max=3.17D-06 NDo=     1
 LinEq1:  Iter= 29 NonCon=     1 RMS=8.37D-08 Max=1.77D-06 NDo=     1
 LinEq1:  Iter= 30 NonCon=     1 RMS=5.53D-08 Max=1.05D-06 NDo=     1
 LinEq1:  Iter= 31 NonCon=     1 RMS=3.80D-08 Max=1.01D-06 NDo=     1
 LinEq1:  Iter= 32 NonCon=     1 RMS=2.11D-08 Max=4.97D-07 NDo=     1
 LinEq1:  Iter= 33 NonCon=     0 RMS=1.26D-08 Max=2.52D-07 NDo=     1
 Linear equations converged to 2.947D-08 2.947D-07 after    33 iterations.
 Incorrect curvature in search direction -- initial direction reversed.
     Minimum is close to point  3 DX= -1.80D-03 DF= -1.12D-06 DXR=  9.45D-02 DFR=  9.01D-03 which will be used.
 Gradient too large for Newton-Raphson -- use scaled steepest descent instead.
     Accept linear search using points  2 and  3.
     Minimum is close to point  3 DX= -8.81D-02 DF= -1.05D-06 DXR=  7.27D-02 DFR=  2.65D-03 which will be used.
 Gradient too large for Newton-Raphson -- use scaled steepest descent instead.
     Accept linear search using points  1 and  2.
 LinEq1:  Iter=  0 NonCon=     1 RMS=1.03D-04 Max=6.19D-03 NDo=     1
 LinEq1:  Iter=  1 NonCon=     1 RMS=1.06D-04 Max=2.81D-03 NDo=     1
 LinEq1:  Iter=  2 NonCon=     1 RMS=4.90D-05 Max=6.73D-04 NDo=     1
 LinEq1:  Iter=  3 NonCon=     1 RMS=3.19D-05 Max=1.15D-03 NDo=     1
 LinEq1:  Iter=  4 NonCon=     1 RMS=2.65D-05 Max=7.69D-04 NDo=     1
 LinEq1:  Iter=  5 NonCon=     1 RMS=2.63D-05 Max=6.62D-04 NDo=     1
 LinEq1:  Iter=  6 NonCon=     1 RMS=2.09D-05 Max=8.15D-04 NDo=     1
 LinEq1:  Iter=  7 NonCon=     1 RMS=1.73D-05 Max=4.21D-04 NDo=     1
 LinEq1:  Iter=  8 NonCon=     1 RMS=9.04D-06 Max=2.65D-04 NDo=     1
 LinEq1:  Iter=  9 NonCon=     1 RMS=8.96D-06 Max=2.40D-04 NDo=     1
 LinEq1:  Iter= 10 NonCon=     1 RMS=9.64D-06 Max=3.03D-04 NDo=     1
 LinEq1:  Iter= 11 NonCon=     1 RMS=6.73D-06 Max=1.25D-04 NDo=     1
 LinEq1:  Iter= 12 NonCon=     1 RMS=6.40D-06 Max=1.35D-04 NDo=     1
 LinEq1:  Iter= 13 NonCon=     1 RMS=6.05D-06 Max=1.39D-04 NDo=     1
 LinEq1:  Iter= 14 NonCon=     1 RMS=4.26D-06 Max=1.13D-04 NDo=     1
 LinEq1:  Iter= 15 NonCon=     1 RMS=3.08D-06 Max=9.07D-05 NDo=     1
 LinEq1:  Iter= 16 NonCon=     1 RMS=2.34D-06 Max=5.43D-05 NDo=     1
 LinEq1:  Iter= 17 NonCon=     1 RMS=2.16D-06 Max=4.86D-05 NDo=     1
 LinEq1:  Iter= 18 NonCon=     1 RMS=1.76D-06 Max=4.91D-05 NDo=     1
 LinEq1:  Iter= 19 NonCon=     1 RMS=1.57D-06 Max=3.14D-05 NDo=     1
 LinEq1:  Iter= 20 NonCon=     1 RMS=1.25D-06 Max=2.22D-05 NDo=     1
 LinEq1:  Iter= 21 NonCon=     1 RMS=1.02D-06 Max=1.96D-05 NDo=     1
 LinEq1:  Iter= 22 NonCon=     1 RMS=7.46D-07 Max=1.58D-05 NDo=     1
 LinEq1:  Iter= 23 NonCon=     1 RMS=5.38D-07 Max=1.14D-05 NDo=     1
 LinEq1:  Iter= 24 NonCon=     1 RMS=3.41D-07 Max=6.84D-06 NDo=     1
 LinEq1:  Iter= 25 NonCon=     1 RMS=2.72D-07 Max=5.96D-06 NDo=     1
 LinEq1:  Iter= 26 NonCon=     1 RMS=1.71D-07 Max=5.01D-06 NDo=     1
 LinEq1:  Iter= 27 NonCon=     1 RMS=1.19D-07 Max=2.69D-06 NDo=     1
 LinEq1:  Iter= 28 NonCon=     1 RMS=8.11D-08 Max=2.16D-06 NDo=     1
 LinEq1:  Iter= 29 NonCon=     1 RMS=5.19D-08 Max=9.62D-07 NDo=     1
 LinEq1:  Iter= 30 NonCon=     1 RMS=3.68D-08 Max=8.76D-07 NDo=     1
 LinEq1:  Iter= 31 NonCon=     1 RMS=2.00D-08 Max=4.01D-07 NDo=     1
 LinEq1:  Iter= 32 NonCon=     0 RMS=1.10D-08 Max=2.72D-07 NDo=     1
 Linear equations converged to 2.947D-08 2.947D-07 after    32 iterations.
 Incorrect curvature in search direction -- initial direction reversed.
 LinEq1:  Iter=  0 NonCon=     1 RMS=1.04D-04 Max=6.26D-03 NDo=     1
 LinEq1:  Iter=  1 NonCon=     1 RMS=1.07D-04 Max=2.86D-03 NDo=     1
 LinEq1:  Iter=  2 NonCon=     1 RMS=4.97D-05 Max=7.04D-04 NDo=     1
 LinEq1:  Iter=  3 NonCon=     1 RMS=3.23D-05 Max=1.18D-03 NDo=     1
 LinEq1:  Iter=  4 NonCon=     1 RMS=2.69D-05 Max=7.99D-04 NDo=     1
 LinEq1:  Iter=  5 NonCon=     1 RMS=2.68D-05 Max=6.84D-04 NDo=     1
 LinEq1:  Iter=  6 NonCon=     1 RMS=2.14D-05 Max=8.21D-04 NDo=     1
 LinEq1:  Iter=  7 NonCon=     1 RMS=1.75D-05 Max=4.36D-04 NDo=     1
 LinEq1:  Iter=  8 NonCon=     1 RMS=9.25D-06 Max=2.61D-04 NDo=     1
 LinEq1:  Iter=  9 NonCon=     1 RMS=9.13D-06 Max=2.36D-04 NDo=     1
 LinEq1:  Iter= 10 NonCon=     1 RMS=9.73D-06 Max=3.07D-04 NDo=     1
 LinEq1:  Iter= 11 NonCon=     1 RMS=6.90D-06 Max=1.31D-04 NDo=     1
 LinEq1:  Iter= 12 NonCon=     1 RMS=6.65D-06 Max=1.39D-04 NDo=     1
 LinEq1:  Iter= 13 NonCon=     1 RMS=6.20D-06 Max=1.39D-04 NDo=     1
 LinEq1:  Iter= 14 NonCon=     1 RMS=4.41D-06 Max=1.20D-04 NDo=     1
 LinEq1:  Iter= 15 NonCon=     1 RMS=3.24D-06 Max=1.00D-04 NDo=     1
 LinEq1:  Iter= 16 NonCon=     1 RMS=2.61D-06 Max=5.88D-05 NDo=     1
 LinEq1:  Iter= 17 NonCon=     1 RMS=2.38D-06 Max=5.65D-05 NDo=     1
 LinEq1:  Iter= 18 NonCon=     1 RMS=2.02D-06 Max=5.12D-05 NDo=     1
 LinEq1:  Iter= 19 NonCon=     1 RMS=1.68D-06 Max=3.30D-05 NDo=     1
 LinEq1:  Iter= 20 NonCon=     1 RMS=1.35D-06 Max=2.36D-05 NDo=     1
 LinEq1:  Iter= 21 NonCon=     1 RMS=1.14D-06 Max=2.14D-05 NDo=     1
 LinEq1:  Iter= 22 NonCon=     1 RMS=7.63D-07 Max=1.66D-05 NDo=     1
 LinEq1:  Iter= 23 NonCon=     1 RMS=5.69D-07 Max=1.16D-05 NDo=     1
 LinEq1:  Iter= 24 NonCon=     1 RMS=3.49D-07 Max=6.91D-06 NDo=     1
 LinEq1:  Iter= 25 NonCon=     1 RMS=2.65D-07 Max=5.72D-06 NDo=     1
 LinEq1:  Iter= 26 NonCon=     1 RMS=1.79D-07 Max=5.51D-06 NDo=     1
 LinEq1:  Iter= 27 NonCon=     1 RMS=1.24D-07 Max=2.83D-06 NDo=     1
 LinEq1:  Iter= 28 NonCon=     1 RMS=8.33D-08 Max=2.22D-06 NDo=     1
 LinEq1:  Iter= 29 NonCon=     1 RMS=5.52D-08 Max=1.04D-06 NDo=     1
 LinEq1:  Iter= 30 NonCon=     1 RMS=3.71D-08 Max=9.70D-07 NDo=     1
 LinEq1:  Iter= 31 NonCon=     1 RMS=2.09D-08 Max=4.62D-07 NDo=     1
 LinEq1:  Iter= 32 NonCon=     0 RMS=1.12D-08 Max=2.68D-07 NDo=     1
 Linear equations converged to 2.947D-08 2.947D-07 after    32 iterations.
 Incorrect curvature in search direction -- initial direction reversed.
 LinEq1:  Iter=  0 NonCon=     1 RMS=1.05D-04 Max=6.31D-03 NDo=     1
 LinEq1:  Iter=  1 NonCon=     1 RMS=1.08D-04 Max=2.90D-03 NDo=     1
 LinEq1:  Iter=  2 NonCon=     1 RMS=5.03D-05 Max=7.40D-04 NDo=     1
 LinEq1:  Iter=  3 NonCon=     1 RMS=3.27D-05 Max=1.20D-03 NDo=     1
 LinEq1:  Iter=  4 NonCon=     1 RMS=2.73D-05 Max=8.22D-04 NDo=     1
 LinEq1:  Iter=  5 NonCon=     1 RMS=2.73D-05 Max=7.01D-04 NDo=     1
 LinEq1:  Iter=  6 NonCon=     1 RMS=2.17D-05 Max=8.21D-04 NDo=     1
 LinEq1:  Iter=  7 NonCon=     1 RMS=1.76D-05 Max=4.49D-04 NDo=     1
 LinEq1:  Iter=  8 NonCon=     1 RMS=9.41D-06 Max=2.57D-04 NDo=     1
 LinEq1:  Iter=  9 NonCon=     1 RMS=9.26D-06 Max=2.36D-04 NDo=     1
 LinEq1:  Iter= 10 NonCon=     1 RMS=9.81D-06 Max=3.09D-04 NDo=     1
 LinEq1:  Iter= 11 NonCon=     1 RMS=7.01D-06 Max=1.40D-04 NDo=     1
 LinEq1:  Iter= 12 NonCon=     1 RMS=6.81D-06 Max=1.42D-04 NDo=     1
 LinEq1:  Iter= 13 NonCon=     1 RMS=6.28D-06 Max=1.38D-04 NDo=     1
 LinEq1:  Iter= 14 NonCon=     1 RMS=4.53D-06 Max=1.25D-04 NDo=     1
 LinEq1:  Iter= 15 NonCon=     1 RMS=3.39D-06 Max=1.06D-04 NDo=     1
 LinEq1:  Iter= 16 NonCon=     1 RMS=2.84D-06 Max=6.10D-05 NDo=     1
 LinEq1:  Iter= 17 NonCon=     1 RMS=2.53D-06 Max=6.16D-05 NDo=     1
 LinEq1:  Iter= 18 NonCon=     1 RMS=2.21D-06 Max=5.17D-05 NDo=     1
 LinEq1:  Iter= 19 NonCon=     1 RMS=1.74D-06 Max=3.34D-05 NDo=     1
 LinEq1:  Iter= 20 NonCon=     1 RMS=1.39D-06 Max=2.57D-05 NDo=     1
 LinEq1:  Iter= 21 NonCon=     1 RMS=1.21D-06 Max=2.18D-05 NDo=     1
 LinEq1:  Iter= 22 NonCon=     1 RMS=7.45D-07 Max=1.66D-05 NDo=     1
 LinEq1:  Iter= 23 NonCon=     1 RMS=5.74D-07 Max=1.17D-05 NDo=     1
 LinEq1:  Iter= 24 NonCon=     1 RMS=3.36D-07 Max=6.38D-06 NDo=     1
 LinEq1:  Iter= 25 NonCon=     1 RMS=2.47D-07 Max=5.36D-06 NDo=     1
 LinEq1:  Iter= 26 NonCon=     1 RMS=1.78D-07 Max=5.67D-06 NDo=     1
 LinEq1:  Iter= 27 NonCon=     1 RMS=1.20D-07 Max=2.69D-06 NDo=     1
 LinEq1:  Iter= 28 NonCon=     1 RMS=7.98D-08 Max=2.11D-06 NDo=     1
 LinEq1:  Iter= 29 NonCon=     1 RMS=5.52D-08 Max=1.05D-06 NDo=     1
 LinEq1:  Iter= 30 NonCon=     1 RMS=3.46D-08 Max=9.72D-07 NDo=     1
 LinEq1:  Iter= 31 NonCon=     1 RMS=2.08D-08 Max=4.99D-07 NDo=     1
 LinEq1:  Iter= 32 NonCon=     0 RMS=1.05D-08 Max=2.41D-07 NDo=     1
 Linear equations converged to 2.947D-08 2.947D-07 after    32 iterations.
 Incorrect curvature in search direction -- initial direction reversed.
 LinEq1:  Iter=  0 NonCon=     1 RMS=1.06D-04 Max=6.34D-03 NDo=     1
 LinEq1:  Iter=  1 NonCon=     1 RMS=1.09D-04 Max=2.91D-03 NDo=     1
 LinEq1:  Iter=  2 NonCon=     1 RMS=5.06D-05 Max=7.56D-04 NDo=     1
 LinEq1:  Iter=  3 NonCon=     1 RMS=3.28D-05 Max=1.21D-03 NDo=     1
 LinEq1:  Iter=  4 NonCon=     1 RMS=2.74D-05 Max=8.31D-04 NDo=     1
 LinEq1:  Iter=  5 NonCon=     1 RMS=2.75D-05 Max=7.08D-04 NDo=     1
 LinEq1:  Iter=  6 NonCon=     1 RMS=2.18D-05 Max=8.19D-04 NDo=     1
 LinEq1:  Iter=  7 NonCon=     1 RMS=1.77D-05 Max=4.54D-04 NDo=     1
 LinEq1:  Iter=  8 NonCon=     1 RMS=9.44D-06 Max=2.54D-04 NDo=     1
 LinEq1:  Iter=  9 NonCon=     1 RMS=9.27D-06 Max=2.36D-04 NDo=     1
 LinEq1:  Iter= 10 NonCon=     1 RMS=9.82D-06 Max=3.10D-04 NDo=     1
 LinEq1:  Iter= 11 NonCon=     1 RMS=7.04D-06 Max=1.45D-04 NDo=     1
 LinEq1:  Iter= 12 NonCon=     1 RMS=6.84D-06 Max=1.44D-04 NDo=     1
 LinEq1:  Iter= 13 NonCon=     1 RMS=6.29D-06 Max=1.36D-04 NDo=     1
 LinEq1:  Iter= 14 NonCon=     1 RMS=4.56D-06 Max=1.25D-04 NDo=     1
 LinEq1:  Iter= 15 NonCon=     1 RMS=3.44D-06 Max=1.07D-04 NDo=     1
 LinEq1:  Iter= 16 NonCon=     1 RMS=2.94D-06 Max=6.13D-05 NDo=     1
 LinEq1:  Iter= 17 NonCon=     1 RMS=2.57D-06 Max=6.31D-05 NDo=     1
 LinEq1:  Iter= 18 NonCon=     1 RMS=2.28D-06 Max=5.15D-05 NDo=     1
 LinEq1:  Iter= 19 NonCon=     1 RMS=1.76D-06 Max=3.35D-05 NDo=     1
 LinEq1:  Iter= 20 NonCon=     1 RMS=1.40D-06 Max=2.61D-05 NDo=     1
 LinEq1:  Iter= 21 NonCon=     1 RMS=1.23D-06 Max=2.19D-05 NDo=     1
 LinEq1:  Iter= 22 NonCon=     1 RMS=7.29D-07 Max=1.63D-05 NDo=     1
 LinEq1:  Iter= 23 NonCon=     1 RMS=5.71D-07 Max=1.17D-05 NDo=     1
 LinEq1:  Iter= 24 NonCon=     1 RMS=3.21D-07 Max=6.05D-06 NDo=     1
 LinEq1:  Iter= 25 NonCon=     1 RMS=2.34D-07 Max=5.12D-06 NDo=     1
 LinEq1:  Iter= 26 NonCon=     1 RMS=1.74D-07 Max=5.58D-06 NDo=     1
 LinEq1:  Iter= 27 NonCon=     1 RMS=1.15D-07 Max=2.56D-06 NDo=     1
 LinEq1:  Iter= 28 NonCon=     1 RMS=7.73D-08 Max=2.00D-06 NDo=     1
 LinEq1:  Iter= 29 NonCon=     1 RMS=5.42D-08 Max=1.03D-06 NDo=     1
 LinEq1:  Iter= 30 NonCon=     1 RMS=3.30D-08 Max=9.55D-07 NDo=     1
 LinEq1:  Iter= 31 NonCon=     1 RMS=2.03D-08 Max=5.03D-07 NDo=     1
 LinEq1:  Iter= 32 NonCon=     0 RMS=9.98D-09 Max=2.27D-07 NDo=     1
 Linear equations converged to 2.947D-08 2.947D-07 after    32 iterations.
 Incorrect curvature in search direction -- initial direction reversed.
 Search did not lower the energy significantly.
 No lower point found -- switch to scaled steepest descent.
     Accept linear search using points  2 and  3.
     Minimum is close to point  3 DX= -9.24D-02 DF= -1.06D-06 DXR=  4.84D-02 DFR=  2.36D-03 which will be used.
 Gradient too large for Newton-Raphson -- use scaled steepest descent instead.
     Minimum is close to point  3 DX=  2.15D-02 DF= -1.93D-06 DXR=  6.68D-02 DFR=  4.48D-03 which will be used.
 LinEq1:  Iter=  0 NonCon=     1 RMS=9.67D-05 Max=6.04D-03 NDo=     1
 LinEq1:  Iter=  1 NonCon=     1 RMS=8.01D-05 Max=1.96D-03 NDo=     1
 LinEq1:  Iter=  2 NonCon=     1 RMS=5.17D-05 Max=6.71D-04 NDo=     1
 LinEq1:  Iter=  3 NonCon=     1 RMS=2.69D-05 Max=9.38D-04 NDo=     1
 LinEq1:  Iter=  4 NonCon=     1 RMS=2.19D-05 Max=5.62D-04 NDo=     1
 LinEq1:  Iter=  5 NonCon=     1 RMS=1.17D-05 Max=2.27D-04 NDo=     1
 LinEq1:  Iter=  6 NonCon=     1 RMS=6.54D-06 Max=2.09D-04 NDo=     1
 LinEq1:  Iter=  7 NonCon=     1 RMS=8.07D-06 Max=2.36D-04 NDo=     1
 LinEq1:  Iter=  8 NonCon=     1 RMS=7.19D-06 Max=1.86D-04 NDo=     1
 LinEq1:  Iter=  9 NonCon=     1 RMS=4.42D-06 Max=9.01D-05 NDo=     1
 LinEq1:  Iter= 10 NonCon=     1 RMS=4.39D-06 Max=1.11D-04 NDo=     1
 LinEq1:  Iter= 11 NonCon=     1 RMS=4.14D-06 Max=9.18D-05 NDo=     1
 LinEq1:  Iter= 12 NonCon=     1 RMS=3.16D-06 Max=5.84D-05 NDo=     1
 LinEq1:  Iter= 13 NonCon=     1 RMS=2.83D-06 Max=7.43D-05 NDo=     1
 LinEq1:  Iter= 14 NonCon=     1 RMS=2.91D-06 Max=7.20D-05 NDo=     1
 LinEq1:  Iter= 15 NonCon=     1 RMS=2.10D-06 Max=6.02D-05 NDo=     1
 LinEq1:  Iter= 16 NonCon=     1 RMS=1.71D-06 Max=4.21D-05 NDo=     1
 LinEq1:  Iter= 17 NonCon=     1 RMS=1.27D-06 Max=3.54D-05 NDo=     1
 LinEq1:  Iter= 18 NonCon=     1 RMS=1.05D-06 Max=2.75D-05 NDo=     1
 LinEq1:  Iter= 19 NonCon=     1 RMS=9.38D-07 Max=1.60D-05 NDo=     1
 LinEq1:  Iter= 20 NonCon=     1 RMS=6.96D-07 Max=1.42D-05 NDo=     1
 LinEq1:  Iter= 21 NonCon=     1 RMS=6.56D-07 Max=1.45D-05 NDo=     1
 LinEq1:  Iter= 22 NonCon=     1 RMS=5.54D-07 Max=1.12D-05 NDo=     1
 LinEq1:  Iter= 23 NonCon=     1 RMS=3.75D-07 Max=9.39D-06 NDo=     1
 LinEq1:  Iter= 24 NonCon=     1 RMS=2.29D-07 Max=5.55D-06 NDo=     1
 LinEq1:  Iter= 25 NonCon=     1 RMS=1.87D-07 Max=5.09D-06 NDo=     1
 LinEq1:  Iter= 26 NonCon=     1 RMS=1.24D-07 Max=2.75D-06 NDo=     1
 LinEq1:  Iter= 27 NonCon=     1 RMS=9.00D-08 Max=2.13D-06 NDo=     1
 LinEq1:  Iter= 28 NonCon=     1 RMS=5.91D-08 Max=1.22D-06 NDo=     1
 LinEq1:  Iter= 29 NonCon=     1 RMS=3.85D-08 Max=1.08D-06 NDo=     1
 LinEq1:  Iter= 30 NonCon=     1 RMS=2.67D-08 Max=5.61D-07 NDo=     1
 LinEq1:  Iter= 31 NonCon=     1 RMS=1.33D-08 Max=3.46D-07 NDo=     1
 LinEq1:  Iter= 32 NonCon=     0 RMS=8.08D-09 Max=1.67D-07 NDo=     1
 Linear equations converged to 2.947D-08 2.947D-07 after    32 iterations.
 LinEq1:  Iter=  0 NonCon=     1 RMS=9.02D-05 Max=4.81D-03 NDo=     1
 LinEq1:  Iter=  1 NonCon=     1 RMS=9.57D-05 Max=2.42D-03 NDo=     1
 LinEq1:  Iter=  2 NonCon=     1 RMS=7.41D-05 Max=1.17D-03 NDo=     1
 LinEq1:  Iter=  3 NonCon=     1 RMS=4.77D-05 Max=1.31D-03 NDo=     1
 LinEq1:  Iter=  4 NonCon=     1 RMS=3.66D-05 Max=8.10D-04 NDo=     1
 LinEq1:  Iter=  5 NonCon=     1 RMS=4.11D-05 Max=1.13D-03 NDo=     1
 LinEq1:  Iter=  6 NonCon=     1 RMS=3.33D-05 Max=8.55D-04 NDo=     1
 LinEq1:  Iter=  7 NonCon=     1 RMS=2.68D-05 Max=6.95D-04 NDo=     1
[...]
 ,0.,0.,0.,0.,0.,0.,0.,0.,0.,0.,0.,0.,0.,0.,0.,0.,0.,0.,0.,0.,0.,0.,0.,
 0.,0.,0.,0.,0.,0.,0.,0.,0.,0.,0.,0.,0.,0.,0.,0.,0.,0.,0.,0.,0.,0.,0.,0
 .,0.,0.,0.,0.,0.,0.,0.,0.,0.,0.,0.,0.,0.,0.,0.,0.,0.,0.,0.,0.,0.,0.,0.
 ,0.,0.,0.,0.,0.,0.,0.,0.,0.,0.,0.,0.,0.,0.,0.,0.,0.,0.,0.,0.,0.,0.,0.,
 0.,0.,0.,0.,0.,0.,0.,0.,0.,0.,0.,0.,0.,0.,0.,0.,0.,0.,0.,0.,0.,0.,0.,0
 .,0.,0.,0.,0.,0.,0.,0.,0.,0.,0.,0.,0.,0.,0.,0.,0.,0.,0.,0.,0.,0.,0.,0.
 ,0.,0.,0.,0.,0.,0.,0.,0.,0.,0.,0.,0.,0.,0.,0.,0.,0.,0.,0.,0.,0.,0.,0.,
 0.,0.,0.,0.,0.,0.,0.,0.,0.,0.,0.,0.,0.,0.,0.,0.,0.,0.,0.,0.,0.,0.,0.,0
 .,0.,0.,0.,0.,0.,0.,0.,0.,0.,0.,0.,0.,0.,0.,0.,0.,0.,0.,0.,0.,0.,0.,0.
 ,0.,0.,0.,0.,0.,0.,0.,0.,0.,0.,0.,0.,0.,0.,0.,0.,0.,0.,0.,0.,0.,0.,0.,
 0.,0.,0.,0.,0.,0.,0.,0.,0.,0.,0.,0.,0.,0.,0.,0.,0.,0.,0.,0.,0.,0.,0.,0
 .,0.,0.,0.,0.,0.,0.,0.,0.,0.,0.,0.,0.,0.,0.,0.,0.,0.,0.,0.,0.,0.,0.,0.
 ,0.,0.,0.,0.,0.,0.,0.,0.,0.,0.,0.,0.,0.,0.,0.,0.,0.,0.,0.,0.,0.,0.,0.,
 0.,0.,0.,0.,0.,0.,0.,0.,0.,0.,0.,0.,0.,0.,0.,0.,0.,0.,0.,0.,0.,0.,0.,0
 .,0.,0.,0.,0.,0.,0.,0.,0.,0.,0.,0.,0.,0.,0.,0.,0.,0.,0.,0.,0.,0.,0.,0.
 ,0.,0.,0.,0.,0.,0.,0.,0.,0.,0.,0.,0.,0.,0.,0.,0.,0.,0.,0.,0.,0.,0.,0.,
 0.,0.,0.,0.,0.,0.,0.,0.,0.,0.,0.,0.,0.,0.,0.,0.,0.,0.,0.,0.,0.,0.,0.,0
 .,0.,0.,0.,0.,0.,0.,0.,0.,0.,0.,0.,0.,0.,0.,0.,0.,0.,0.,0.,0.,0.,0.,0.
 ,0.,0.,0.,0.,0.,0.,0.,0.,0.,0.,0.,0.,0.,0.,0.,0.,0.,0.,0.,0.,0.,0.,0.,
 0.,0.,0.,0.,0.,0.,0.,0.,0.,0.,0.,0.,0.,0.,0.,0.,0.,0.,0.,0.,0.,0.,0.,0
 .,0.,0.,0.,0.,0.,0.,0.,0.,0.,0.,0.,0.,0.,0.,0.,0.,0.,0.,0.,0.,0.,0.,0.
 ,0.,0.,0.,0.,0.,0.,0.,0.,0.,0.,0.,0.,0.,0.,0.,0.,0.,0.,0.,0.,0.,0.,0.,
 0.,0.,0.,0.,0.,0.,0.,0.,0.,0.,0.,0.,0.,0.,0.,0.,0.,0.,0.,0.,0.,0.,0.,0
 .,0.,0.,0.,0.,0.,0.,0.,0.,0.,0.,0.,0.,0.,0.,0.,0.,0.,0.,0.,0.,0.,0.,0.
 ,0.,0.,0.,0.,0.,0.,0.,0.,0.,0.,0.,0.,0.,0.,0.,0.,0.,0.,0.,0.,0.,0.,0.,
 0.,0.,0.,0.,0.,0.,0.,0.,0.,0.,0.,0.,0.,0.,0.,0.,0.,0.,0.,0.,0.,0.,0.,0
 .,0.,0.,0.,0.,0.,0.,0.,0.,0.,0.,0.,0.,0.,0.,0.,0.,0.,0.,0.,0.,0.,0.,0.
 ,0.,0.,0.,0.,0.,0.,0.,0.,0.,0.,0.,0.,0.,0.,0.,0.,0.,0.,0.,0.,0.,0.,0.,
 0.,0.,0.,0.,0.,0.,0.,0.,0.,0.,0.,0.,0.,0.,0.,0.,0.,0.,0.,0.,0.,0.,0.,0
 .,0.,0.,0.,0.,0.,0.,0.,0.,0.,0.,0.,0.,0.,0.,0.,0.,0.,0.,0.,0.,0.,0.,0.
 ,0.,0.,0.,0.,0.,0.,0.,0.,0.,0.,0.,0.,0.,0.,0.,0.,0.,0.,0.,0.,0.,0.,0.,
 0.,0.,0.,0.,0.,0.,0.,0.,0.,0.,0.,0.,0.,0.,0.,0.,0.,0.,0.,0.,0.,0.,0.,0
 .,0.,0.,0.,0.,0.,0.,0.,0.,0.,0.,0.,0.,0.,0.,0.,0.,0.,0.,0.,0.,0.,0.,0.
 ,0.,0.,0.,0.,0.,0.,0.,0.,0.,0.,0.,0.,0.,0.,0.,0.,0.,0.,0.,0.,0.,0.,0.,
 0.,0.,0.,0.,0.,0.,0.,0.,0.,0.,0.,0.,0.,0.,0.,0.,0.,0.,0.,0.,0.,0.,0.,0
 .,0.,0.,0.,0.,0.,0.,0.,0.,0.,0.,0.,0.,0.,0.,0.,0.,0.,0.,0.,0.,0.,0.,0.
 ,0.,0.,0.,0.,0.,0.,0.,0.,0.,0.,0.,0.,0.,0.,0.,0.,0.,0.,0.,0.,0.,0.,0.,
 0.,0.,0.,0.,0.,0.,0.,0.,0.,0.,0.,0.,0.,0.,0.,0.,0.,0.,0.,0.,0.,0.,0.,0
 .,0.,0.,0.,0.,0.,0.,0.,0.,0.,0.,0.,0.,0.,0.,0.,0.,0.,0.,0.,0.,0.,0.,0.
 ,0.,0.,0.,0.,0.,0.,0.,0.,0.,0.,0.,0.,0.,0.,0.,0.,0.,0.,0.,0.,0.,0.,0.,
 0.,0.,0.,0.,0.,0.,0.,0.,0.,0.,0.,0.,0.,0.,0.,0.,0.,0.,0.,0.,0.,0.,0.,0
 .,0.,0.,0.,0.,0.,0.,0.,0.,0.,0.,0.,0.,0.,0.,0.,0.,0.,0.,0.,0.,0.,0.,0.
 ,0.,0.,0.,0.,0.,0.,0.,0.,0.,0.,0.,0.,0.,0.,0.,0.,0.,0.,0.,0.,0.,0.,0.,
 0.,0.,0.,0.,0.,0.,0.,0.,0.,0.,0.,0.,0.,0.,0.,0.,0.,0.,0.,0.,0.,0.,0.,0
 .,0.,0.,0.,0.,0.,0.,0.,0.,0.,0.,0.,0.,0.,0.,0.,0.,0.,0.,0.,0.,0.,0.,0.
 ,0.,0.,0.,0.,0.,0.,0.,0.,0.,0.,0.,0.,0.,0.,0.,0.,0.,0.,0.,0.,0.,0.,0.,
 0.,0.,0.,0.,0.,0.,0.,0.,0.,0.,0.,0.,0.,0.,0.,0.,0.,0.,0.,0.,0.,0.,0.,0
 .,0.,0.,0.,0.,0.,0.,0.,0.,0.,0.,0.,0.,0.,0.,0.,0.,0.,0.,0.,0.,0.,0.,0.
 ,0.,0.,0.,0.,0.,0.,0.,0.,0.,0.,0.,0.,0.,0.,0.,0.,0.,0.,0.,0.,0.,0.,0.,
 0.,0.,0.,0.,0.,0.,0.,0.,0.,0.,0.,0.,0.,0.,0.,0.,0.,0.,0.,0.,0.,0.,0.,0
 .,0.,0.,0.,0.,0.,0.,0.,0.,0.,0.,0.,0.,0.,0.,0.,0.,0.,0.,0.,0.,0.,0.,0.
 ,0.,0.,0.,0.,0.,0.,0.,0.,0.,0.,0.,0.,0.,0.,0.,0.,0.,0.,0.,0.,0.,0.,0.,
 0.,0.,0.,0.,0.,0.,0.,0.,0.,0.,0.,0.,0.,0.,0.,0.,0.,0.,0.,0.,0.,0.,0.,0
 .,0.,0.,0.,0.,0.,0.,0.,0.,0.,0.,0.,0.,0.,0.,0.,0.,0.,0.,0.,0.,0.,0.,0.
 ,0.,0.,0.,0.,0.,0.,0.,0.,0.,0.,0.,0.,0.,0.,0.,0.,0.,0.,0.,0.,0.,0.,0.,
 0.,0.,0.,0.,0.,0.,0.,0.,0.,0.,0.,0.,0.,0.,0.,0.,0.,0.,0.,0.,0.,0.,0.,0
 .,0.,0.,0.,0.,0.,0.,0.,0.,0.,0.,0.,0.,0.,0.,0.,0.,0.,0.,0.,0.,0.,0.,0.
 ,0.,0.,0.,0.,0.,0.,0.,0.,0.,0.,0.,0.,0.,0.,0.,0.,0.,0.,0.,0.,0.,0.,0.,
 0.,0.,0.,0.,0.,0.,0.,0.,0.,0.,0.,0.,0.,0.,0.,0.,0.,0.,0.,0.,0.,0.,0.,0
 .,0.,0.,0.,0.,0.,0.,0.,0.,0.,0.,0.,0.,0.,0.,0.,0.,0.,0.,0.,0.,0.,0.,0.
 ,0.,0.,0.,0.,0.,0.,0.,0.,0.,0.,0.,0.,0.,0.,0.,0.,0.,0.,0.,0.,0.,0.,0.,
 0.,0.,0.,0.,0.,0.,0.,0.,0.,0.,0.,0.,0.,0.,0.,0.,0.,0.,0.,0.,0.,0.,0.,0
 .,0.,0.,0.,0.,0.,0.,0.,0.,0.,0.,0.,0.,0.,0.,0.,0.,0.,0.,0.,0.,0.,0.,0.
 ,0.,0.,0.,0.,0.,0.,0.,0.,0.,0.,0.,0.,0.,0.,0.,0.,0.,0.,0.,0.,0.,0.,0.,
 0.,0.,0.,0.,0.,0.,0.,0.,0.,0.,0.,0.,0.,0.,0.,0.,0.,0.,0.,0.,0.,0.,0.,0
 .,0.,0.,0.,0.,0.,0.,0.,0.,0.,0.,0.,0.,0.,0.,0.,0.,0.,0.,0.,0.,0.,0.,0.
 ,0.,0.,0.,0.,0.,0.,0.,0.,0.,0.,0.,0.,0.,0.,0.,0.,0.,0.,0.,0.,0.,0.,0.,
 0.,0.,0.,0.,0.,0.,0.,0.,0.,0.,0.,0.,0.,0.,0.,0.,0.,0.,0.,0.,0.,0.,0.,0
 .,0.,0.,0.,0.,0.,0.,0.,0.,0.,0.,0.,0.,0.,0.,0.,0.,0.,0.,0.,0.,0.,0.,0.
 ,0.,0.,0.,0.,0.,0.,0.,0.,0.,0.,0.,0.,0.,0.,0.,0.,0.,0.,0.,0.,0.,0.,0.,
 0.,0.,0.,0.,0.,0.,0.,0.,0.,0.,0.,0.,0.,0.,0.,0.,0.,0.,0.,0.,0.,0.,0.,0
 .,0.,0.,0.,0.,0.,0.,0.,0.,0.,0.,0.,0.,0.,0.,0.,0.,0.,0.,0.,0.,0.,0.,0.
 ,0.,0.,0.,0.,0.,0.,0.,0.,0.,0.,0.,0.,0.,0.,0.,0.,0.,0.,0.,0.,0.,0.,0.,
 0.,0.,0.,0.,0.,0.,0.,0.,0.,0.,0.,0.,0.,0.,0.,0.,0.,0.,0.,0.,0.,0.,0.,0
 .,0.,0.,0.,0.,0.,0.,0.,0.,0.,0.,0.,0.,0.,0.,0.,0.,0.,0.,0.,0.,0.,0.,0.
 ,0.,0.,0.,0.,0.,0.,0.,0.,0.,0.,0.,0.,0.,0.,0.,0.,0.,0.,0.,0.,0.,0.,0.,
 0.,0.,0.,0.,0.,0.,0.,0.,0.,0.,0.,0.,0.,0.,0.,0.,0.,0.,0.,0.,0.,0.,0.,0
 .,0.,0.,0.,0.,0.,0.,0.,0.,0.,0.,0.,0.,0.,0.,0.,0.,0.,0.,0.,0.,0.,0.,0.
 ,0.,0.,0.,0.,0.,0.,0.,0.,0.,0.,0.,0.,0.,0.,0.,0.,0.,0.,0.,0.,0.,0.,0.,
 0.,0.,0.,0.,0.,0.,0.,0.,0.,0.,0.,0.,0.,0.,0.,0.,0.,0.,0.,0.,0.,0.,0.,0
 .,0.,0.,0.,0.,0.,0.,0.,0.,0.,0.,0.,0.,0.,0.,0.,0.,0.,0.,0.,0.,0.,0.,0.
 ,0.,0.,0.,0.,0.,0.,0.,0.,0.,0.,0.,0.,0.,0.,0.,0.,0.,0.,0.,0.,0.,0.,0.,
 0.,0.,0.,0.,0.,0.,0.,0.,0.,0.,0.,0.,0.,0.,0.,0.,0.,0.,0.,0.,0.,0.,0.,0
 .,0.,0.,0.,0.,0.,0.,0.,0.,0.,0.,0.,0.,0.,0.,0.,0.,0.,0.,0.,0.,0.,0.,0.
 ,0.,0.,0.,0.,0.,0.,0.,0.,0.,0.,0.,0.,0.,0.,0.,0.,0.,0.,0.,0.,0.,0.,0.,
 0.,0.,0.,0.,0.,0.,0.,0.,0.,0.,0.,0.,0.,0.,0.,0.,0.,0.,0.,0.,0.,0.,0.,0
 .,0.,0.,0.,0.,0.,0.,0.,0.,0.,0.,0.,0.,0.,0.,0.,0.,0.,0.,0.,0.,0.,0.,0.
 ,0.,0.,0.,0.,0.,0.,0.,0.,0.,0.,0.,0.,0.,0.,0.,0.,0.,0.,0.,0.,0.,0.,0.,
 0.,0.,0.,0.,0.,0.,0.,0.,0.,0.,0.,0.,0.,0.,0.,0.,0.,0.,0.,0.,0.,0.,0.,0
 .,0.,0.,0.,0.,0.,0.,0.,0.,0.,0.,0.,0.,0.,0.,0.,0.,0.,0.,0.,0.,0.,0.,0.
 ,0.,0.,0.,0.,0.,0.,0.,0.,0.,0.,0.,0.,0.,0.,0.,0.,0.,0.,0.,0.,0.,0.,0.,
 0.,0.,0.,0.,0.,0.,0.,0.,0.,0.,0.,0.,0.,0.,0.,0.,0.,0.,0.,0.,0.,0.,0.,0
 .,0.,0.,0.,0.,0.,0.,0.,0.,0.,0.,0.,0.,0.,0.,0.,0.,0.,0.,0.,0.,0.,0.,0.
 ,0.,0.,0.,0.,0.,0.,0.,0.,0.,0.,0.,0.,0.,0.,0.,0.,0.,0.,0.,0.,0.,0.,0.,
 0.,0.,0.,0.,0.,0.,0.,0.,0.,0.,0.,0.,0.,0.,0.,0.,0.,0.,0.,0.,0.,0.,0.,0
 .,0.,0.,0.,0.,0.,0.,0.,0.,0.,0.,0.,0.,0.,0.,0.,0.,0.,0.,0.,0.,0.,0.,0.
 ,0.,0.,0.,0.,0.,0.,0.,0.,0.,0.,0.,0.,0.,0.,0.,0.,0.,0.,0.,0.,0.,0.,0.,
 0.,0.,0.,0.,0.,0.,0.,0.,0.,0.,0.,0.,0.,0.,0.,0.,0.,0.,0.,0.,0.,0.,0.,0
 .,0.,0.,0.,0.,0.,0.,0.,0.,0.,0.,0.,0.,0.,0.,0.,0.,0.,0.,0.,0.,0.,0.,0.
 ,0.,0.,0.,0.,0.,0.,0.,0.,0.,0.,0.,0.,0.,0.,0.,0.,0.,0.,0.,0.,0.,0.,0.,
 0.,0.,0.,0.,0.,0.,0.,0.,0.,0.,0.,0.,0.,0.,0.,0.,0.,0.,0.,0.,0.,0.,0.,0
 .,0.,0.,0.,0.,0.,0.,0.,0.,0.,0.,0.,0.,0.,0.,0.,0.,0.,0.,0.,0.,0.,0.,0.
 ,0.,0.,0.,0.,0.,0.,0.,0.,0.,0.,0.,0.,0.,0.,0.,0.,0.,0.,0.,0.,0.,0.,0.,
 0.,0.,0.,0.,0.,0.,0.,0.,0.,0.,0.,0.,0.,0.,0.,0.,0.,0.,0.,0.,0.,0.,0.,0
 .,0.,0.,0.,0.,0.,0.,0.,0.,0.,0.,0.,0.,0.,0.,0.,0.,0.,0.,0.,0.,0.,0.,0.
 ,0.,0.,0.,0.,0.,0.,0.,0.,0.,0.,0.,0.,0.,0.,0.,0.,0.,0.,0.,0.,0.,0.,0.,
 0.,0.,0.,0.,0.,0.,0.,0.,0.,0.,0.,0.,0.,0.,0.,0.,0.,0.,0.,0.,0.,0.,0.,0
 .,0.,0.,0.,0.,0.,0.,0.,0.,0.,0.,0.,0.,0.,0.,0.,0.,0.,0.,0.,0.,0.,0.,0.
 ,0.,0.,0.,0.,0.,0.,0.,0.,0.,0.,0.,0.,0.,0.,0.,0.,0.,0.,0.,0.,0.,0.,0.,
 0.,0.,0.,0.,0.,0.,0.,0.,0.,0.,0.,0.,0.,0.,0.,0.,0.,0.,0.,0.,0.,0.,0.,0
 .,0.,0.,0.,0.,0.,0.,0.,0.,0.,0.,0.,0.,0.,0.,0.,0.,0.,0.,0.,0.,0.,0.,0.
 ,0.,0.,0.,0.,0.,0.,0.,0.,0.,0.,0.,0.,0.,0.,0.,0.,0.,0.,0.,0.,0.,0.,0.,
 0.,0.,0.,0.,0.,0.,0.,0.,0.,0.,0.,0.,0.,0.,0.,0.,0.,0.,0.,0.,0.,0.,0.,0
 .,0.,0.,0.,0.,0.,0.,0.,0.,0.,0.,0.,0.,0.,0.,0.,0.,0.,0.,0.,0.,0.,0.,0.
 ,0.,0.,0.,0.,0.,0.,0.,0.,0.,0.,0.,0.,0.,0.,0.,0.,0.,0.,0.,0.,0.,0.,0.,
 0.,0.,0.,0.,0.,0.,0.,0.,0.,0.,0.,0.,0.,0.,0.,0.,0.,0.,0.,0.,0.,0.,0.,0
 .,0.,0.,0.,0.,0.,0.,0.,0.,0.,0.,0.,0.,0.,0.,0.,0.,0.,0.,0.,0.,0.,0.,0.
 ,0.,0.,0.,0.,0.,0.,0.,0.,0.,0.,0.,0.,0.,0.,0.,0.,0.,0.,0.,0.,0.,0.,0.,
 0.,0.,0.,0.,0.,0.,0.,0.,0.,0.,0.,0.,0.,0.,0.,0.,0.,0.,0.,0.,0.,0.,0.,0
 .,0.,0.,0.,0.,0.,0.,0.,0.,0.,0.,0.,0.,0.,0.,0.,0.,0.,0.,0.,0.,0.,0.,0.
 ,0.,0.,0.,0.,0.,0.,0.,0.,0.,0.,0.,0.,0.,0.,0.,0.,0.,0.,0.,0.,0.,0.,0.,
 0.,0.,0.,0.,0.,0.,0.,0.,0.,0.,0.,0.,0.,0.,0.,0.,0.,0.,0.,0.,0.,0.,0.,0
 .,0.,0.,0.,0.,0.,0.,0.,0.,0.,0.,0.,0.,0.,0.,0.,0.,0.,0.,0.,0.,0.,0.,0.
 ,0.,0.,0.,0.,0.,0.,0.,0.,0.,0.,0.,0.,0.,0.,0.,0.,0.,0.,0.,0.,0.,0.,0.,
 0.,0.,0.,0.,0.,0.,0.,0.,0.,0.,0.,0.,0.,0.,0.,0.,0.,0.,0.,0.,0.,0.,0.,0
 .,0.,0.,0.,0.,0.,0.,0.,0.,0.,0.,0.,0.,0.,0.,0.,0.,0.,0.,0.,0.,0.,0.,0.
 ,0.,0.,0.,0.,0.,0.,0.,0.,0.,0.,0.,0.,0.,0.,0.,0.,0.,0.,0.,0.,0.,0.,0.,
 0.,0.,0.,0.,0.,0.,0.,0.,0.,0.,0.,0.,0.,0.,0.,0.,0.,0.,0.,0.,0.,0.,0.,0
 .,0.,0.,0.,0.,0.,0.,0.,0.,0.,0.,0.,0.,0.,0.,0.,0.,0.,0.,0.,0.,0.,0.,0.
 ,0.,0.,0.,0.,0.,0.,0.,0.,0.,0.,0.,0.,0.,0.,0.,0.,0.,0.,0.,0.,0.,0.,0.,
 0.,0.,0.,0.,0.,0.,0.,0.,0.,0.,0.,0.,0.,0.,0.,0.,0.,0.,0.,0.,0.,0.,0.,0
 .,0.,0.,0.,0.,0.,0.,0.,0.,0.,0.,0.,0.,0.,0.,0.,0.,0.,0.,0.,0.,0.,0.,0.
 ,0.,0.,0.,0.,0.,0.,0.,0.,0.,0.,0.,0.,0.,0.,0.,0.,0.,0.,0.,0.,0.,0.,0.,
 0.,0.,0.,0.,0.,0.,0.,0.,0.,0.,0.,0.,0.,0.,0.,0.,0.,0.,0.,0.,0.,0.,0.,0
 .,0.,0.,0.,0.,0.,0.,0.,0.,0.,0.,0.,0.,0.,0.,0.,0.,0.,0.,0.,0.,0.,0.,0.
 ,0.,0.,0.,0.,0.,0.,0.,0.,0.,0.,0.,0.,0.,0.,0.,0.,0.,0.,0.,0.,0.,0.,0.,
 0.,0.,0.,0.,0.,0.,0.,0.,0.,0.,0.,0.,0.,0.,0.,0.,0.,0.,0.,0.,0.,0.,0.,0
 .,0.,0.,0.,0.,0.,0.,0.,0.,0.,0.,0.,0.,0.,0.,0.,0.,0.,0.,0.,0.,0.,0.,0.
 ,0.,0.,0.,0.,0.,0.,0.,0.,0.,0.,0.,0.,0.,0.,0.,0.,0.,0.,0.,0.,0.,0.,0.,
 0.,0.,0.,0.,0.,0.,0.,0.,0.,0.,0.,0.,0.,0.,0.,0.,0.,0.,0.,0.,0.,0.,0.,0
 .,0.,0.,0.,0.,0.,0.,0.,0.,0.,0.,0.,0.,0.,0.,0.,0.,0.,0.,0.,0.,0.,0.,0.
 ,0.,0.,0.,0.,0.,0.,0.,0.,0.,0.,0.,0.,0.,0.,0.,0.,0.,0.,0.,0.,0.,0.,0.,
 0.,0.,0.,0.,0.,0.,0.,0.,0.,0.,0.,0.,0.,0.,0.,0.,0.,0.,0.,0.,0.,0.,0.,0
 .,0.,0.,0.,0.,0.,0.,0.,0.,0.,0.,0.,0.,0.,0.,0.,0.,0.,0.,0.,0.,0.,0.,0.
 ,0.,0.,0.,0.,0.,0.,0.,0.,0.,0.,0.,0.,0.,0.,0.,0.,0.,0.,0.,0.,0.,0.,0.,
 0.,0.,0.,0.,0.,0.,0.,0.,0.,0.,0.,0.,0.,0.,0.,0.,0.,0.,0.,0.,0.,0.,0.,0
 .,0.,0.,0.,0.,0.,0.,0.,0.,0.,0.,0.,0.,0.,0.,0.,0.,0.,0.,0.,0.,0.,0.,0.
 ,0.,0.,0.,0.,0.,0.,0.,0.,0.,0.,0.,0.,0.,0.,0.,0.,0.,0.,0.,0.,0.,0.,0.,
 0.,0.,0.,0.,0.,0.,0.,0.,0.,0.,0.,0.,0.,0.,0.,0.,0.,0.,0.,0.,0.,0.,0.,0
 .,0.,0.,0.,0.,0.,0.,0.,0.,0.,0.,0.,0.,0.,0.,0.,0.,0.,0.,0.,0.,0.,0.,0.
 ,0.,0.,0.,0.,0.,0.,0.,0.,0.,0.,0.,0.,0.,0.,0.,0.,0.,0.,0.,0.,0.,0.,0.,
 0.,0.,0.,0.,0.,0.,0.,0.,0.,0.,0.,0.,0.,0.,0.,0.,0.,0.,0.,0.,0.,0.,0.,0
 .,0.,0.,0.,0.,0.,0.,0.,0.,0.,0.,0.,0.,0.,0.,0.,0.,0.,0.,0.,0.,0.,0.,0.
 ,0.,0.,0.,0.,0.,0.,0.,0.,0.,0.,0.,0.,0.,0.,0.,0.,0.,0.,0.,0.,0.,0.,0.,
 0.,0.,0.,0.,0.,0.,0.,0.,0.,0.,0.,0.,0.,0.,0.,0.,0.,0.,0.,0.,0.,0.,0.,0
 .,0.,0.,0.,0.,0.,0.,0.,0.,0.,0.,0.,0.,0.,0.,0.,0.,0.,0.,0.,0.,0.,0.,0.
 ,0.,0.,0.,0.,0.,0.,0.,0.,0.,0.,0.,0.,0.,0.,0.,0.,0.,0.,0.,0.,0.,0.,0.,
 0.,0.,0.,0.,0.,0.,0.,0.,0.,0.,0.,0.,0.,0.,0.,0.,0.,0.,0.,0.,0.,0.,0.,0
 .,0.,0.,0.,0.,0.,0.,0.,0.,0.,0.,0.,0.,0.,0.,0.,0.,0.,0.,0.,0.,0.,0.,0.
 ,0.,0.,0.,0.,0.,0.,0.,0.,0.,0.,0.,0.,0.,0.,0.,0.,0.,0.,0.,0.,0.,0.,0.,
 0.,0.,0.,0.,0.,0.,0.,0.,0.,0.,0.,0.,0.,0.,0.,0.,0.,0.,0.,0.,0.,0.,0.,0
 .,0.,0.,0.,0.,0.,0.,0.,0.,0.,0.,0.,0.,0.,0.,0.,0.,0.,0.,0.,0.,0.,0.,0.
 ,0.,0.,0.,0.,0.,0.,0.,0.,0.,0.,0.,0.,0.,0.,0.,0.,0.,0.,0.,0.,0.,0.,0.,
 0.,0.,0.,0.,0.,0.,0.,0.,0.,0.,0.,0.,0.,0.,0.,0.,0.,0.,0.,0.,0.,0.,0.,0
 .,0.,0.,0.,0.,0.,0.,0.,0.,0.,0.,0.,0.,0.,0.,0.,0.,0.,0.,0.,0.,0.,0.,0.
 ,0.,0.,0.,0.,0.,0.,0.,0.,0.,0.,0.,0.,0.,0.,0.,0.,0.,0.,0.,0.,0.,0.,0.,
 0.,0.,0.,0.,0.,0.,0.,0.,0.,0.,0.,0.,0.,0.,0.,0.,0.,0.,0.,0.,0.,0.,0.,0
 .,0.,0.,0.,0.,0.,0.,0.,0.,0.,0.,0.,0.,0.,0.,0.,0.,0.,0.,0.,0.,0.,0.,0.
 ,0.,0.,0.,0.,0.,0.,0.,0.,0.,0.,0.,0.,0.,0.,0.,0.,0.,0.,0.,0.,0.,0.,0.,
 0.,0.,0.,0.,0.,0.,0.,0.,0.,0.,0.,0.,0.,0.,0.,0.,0.,0.,0.,0.,0.,0.,0.,0
 .,0.,0.,0.,0.,0.,0.,0.,0.,0.,0.,0.,0.,0.,0.,0.,0.,0.,0.,0.,0.,0.,0.,0.
 ,0.,0.,0.,0.,0.,0.,0.,0.,0.,0.,0.,0.,0.,0.,0.,0.,0.,0.,0.,0.,0.,0.,0.,
 0.,0.,0.,0.,0.,0.,0.,0.,0.,0.,0.,0.,0.,0.,0.,0.,0.,0.,0.,0.,0.,0.,0.,0
 .,0.,0.,0.,0.,0.,0.,0.,0.,0.,0.,0.,0.,0.,0.,0.,0.,0.,0.,0.,0.,0.,0.,0.
 ,0.,0.,0.,0.,0.,0.,0.,0.,0.,0.,0.,0.,0.,0.,0.,0.,0.,0.,0.,0.,0.,0.,0.,
 0.,0.,0.,0.,0.,0.,0.,0.,0.,0.,0.,0.,0.,0.,0.,0.,0.,0.,0.,0.,0.,0.,0.,0
 .,0.,0.,0.,0.,0.,0.,0.,0.,0.,0.,0.,0.,0.,0.,0.,0.,0.,0.,0.,0.,0.,0.,0.
 ,0.,0.,0.,0.,0.,0.,0.,0.,0.,0.,0.,0.,0.,0.,0.,0.,0.,0.,0.,0.,0.,0.,0.,
 0.,0.,0.,0.,0.,0.,0.,0.,0.,0.,0.,0.,0.,0.,0.,0.,0.,0.,0.,0.,0.,0.,0.,0
 .,0.,0.,0.,0.,0.,0.,0.,0.,0.,0.,0.,0.,0.,0.,0.,0.,0.,0.,0.,0.,0.,0.,0.
 ,0.,0.,0.,0.,0.,0.,0.,0.,0.,0.,0.,0.,0.,0.,0.,0.,0.,0.,0.,0.,0.,0.,0.,
 0.,0.,0.,0.,0.,0.,0.,0.,0.,0.,0.,0.,0.,0.,0.,0.,0.,0.,0.,0.,0.,0.,0.,0
 .,0.,0.,0.,0.,0.,0.,0.,0.,0.,0.,0.,0.,0.,0.,0.,0.,0.,0.,0.,0.,0.,0.,0.
 ,0.,0.,0.,0.,0.,0.,0.,0.,0.,0.,0.,0.,0.,0.,0.,0.,0.,0.,0.,0.,0.,0.,0.,
 0.,0.,0.,0.,0.,0.,0.,0.,0.,0.,0.,0.,0.,0.,0.,0.,0.,0.,0.,0.,0.,0.,0.,0
 .,0.,0.,0.,0.,0.,0.,0.,0.,0.,0.,0.,0.,0.,0.,0.,0.,0.,0.,0.,0.,0.,0.,0.
 ,0.,0.,0.,0.,0.,0.,0.,0.,0.,0.,0.,0.,0.,0.,0.,0.,0.,0.,0.,0.,0.,0.,0.,
 0.,0.,0.,0.,0.,0.,0.,0.,0.,0.,0.,0.,0.,0.,0.,0.,0.,0.,0.,0.,0.,0.,0.,0
 .,0.,0.,0.,0.,0.,0.,0.,0.,0.,0.,0.,0.,0.,0.,0.,0.,0.,0.,0.,0.,0.,0.,0.
 ,0.,0.,0.,0.,0.,0.,0.,0.,0.,0.,0.,0.,0.,0.,0.,0.,0.,0.,0.,0.,0.,0.,0.,
 0.,0.,0.,0.,0.,0.,0.,0.,0.,0.,0.,0.,0.,0.,0.,0.,0.,0.,0.,0.,0.,0.,0.,0
 .,0.,0.,0.,0.,0.,0.,0.,0.,0.,0.,0.,0.,0.,0.,0.,0.,0.,0.,0.,0.,0.,0.,0.
 ,0.,0.,0.,0.,0.,0.,0.,0.,0.,0.,0.,0.,0.,0.,0.,0.,0.,0.,0.,0.,0.,0.,0.,
 0.,0.,0.,0.,0.,0.,0.,0.,0.,0.,0.,0.,0.,0.,0.,0.,0.,0.,0.,0.,0.,0.,0.,0
 .,0.,0.,0.,0.,0.,0.,0.,0.,0.,0.,0.,0.,0.,0.,0.,0.,0.,0.,0.,0.,0.,0.,0.
 ,0.,0.,0.,0.,0.,0.,0.,0.,0.,0.,0.,0.,0.,0.,0.,0.,0.,0.,0.,0.,0.,0.,0.,
 0.,0.,0.,0.,0.,0.,0.,0.,0.,0.,0.,0.,0.,0.,0.,0.,0.,0.,0.,0.,0.,0.,0.,0
 .,0.,0.,0.,0.,0.,0.,0.,0.,0.,0.,0.,0.,0.,0.,0.,0.,0.,0.,0.,0.,0.,0.,0.
 ,0.,0.,0.,0.,0.,0.,0.,0.,0.,0.,0.,0.,0.,0.,0.,0.,0.,0.,0.,0.,0.,0.,0.,
 0.,0.,0.,0.,0.,0.,0.,0.,0.,0.,0.,0.,0.,0.,0.,0.,0.,0.,0.,0.,0.,0.,0.,0
 .,0.,0.,0.,0.,0.,0.,0.,0.,0.,0.,0.,0.,0.,0.,0.,0.,0.,0.,0.,0.,0.,0.,0.
 ,0.,0.,0.,0.,0.,0.,0.,0.,0.,0.,0.,0.,0.,0.,0.,0.,0.,0.,0.,0.,0.,0.,0.,
 0.,0.,0.,0.,0.,0.,0.,0.,0.,0.,0.,0.,0.,0.,0.,0.,0.,0.,0.,0.,0.,0.,0.,0
 .,0.,0.,0.,0.,0.,0.,0.,0.,0.,0.,0.,0.,0.,0.,0.,0.,0.,0.,0.,0.,0.,0.,0.
 ,0.,0.,0.,0.,0.,0.,0.,0.,0.,0.,0.,0.,0.,0.,0.,0.,0.,0.,0.,0.,0.,0.,0.,
 0.,0.,0.,0.,0.,0.,0.,0.,0.,0.,0.,0.,0.,0.,0.,0.,0.,0.,0.,0.,0.,0.,0.,0
 .,0.,0.,0.,0.,0.,0.,0.,0.,0.,0.,0.,0.,0.,0.,0.,0.,0.,0.,0.,0.,0.,0.,0.
 ,0.,0.,0.,0.,0.,0.,0.,0.,0.,0.,0.,0.,0.,0.,0.,0.,0.,0.,0.,0.,0.,0.,0.,
 0.,0.,0.,0.,0.,0.,0.,0.,0.,0.,0.,0.,0.,0.,0.,0.,0.,0.,0.,0.,0.,0.,0.,0
 .,0.,0.,0.,0.,0.,0.,0.,0.,0.,0.,0.,0.,0.,0.,0.,0.,0.,0.,0.,0.,0.,0.,0.
 ,0.,0.,0.,0.,0.,0.,0.,0.,0.,0.,0.,0.,0.,0.,0.,0.,0.,0.,0.,0.,0.,0.,0.,
 0.,0.,0.,0.,0.,0.,0.,0.,0.,0.,0.,0.,0.,0.,0.,0.,0.,0.,0.,0.,0.,0.,0.,0
 .,0.,0.,0.,0.,0.,0.,0.,0.,0.,0.,0.,0.,0.,0.,0.,0.,0.,0.,0.,0.,0.,0.,0.
 ,0.,0.,0.,0.,0.,0.,0.,0.,0.,0.,0.,0.,0.,0.,0.,0.,0.,0.,0.,0.,0.,0.,0.,
 0.,0.,0.,0.,0.,0.,0.,0.,0.,0.,0.,0.,0.,0.,0.,0.,0.,0.,0.,0.,0.,0.,0.,0
 .,0.,0.,0.,0.,0.,0.,0.,0.,0.,0.,0.,0.,0.,0.,0.,0.,0.,0.,0.,0.,0.,0.,0.
 ,0.,0.,0.,0.,0.,0.,0.,0.,0.,0.,0.,0.,0.,0.,0.,0.,0.,0.,0.,0.,0.,0.,0.,
 0.,0.,0.,0.,0.,0.,0.,0.,0.,0.,0.,0.,0.,0.,0.,0.,0.,0.,0.,0.,0.,0.,0.,0
 .,0.,0.,0.,0.,0.,0.,0.,0.,0.,0.,0.,0.,0.,0.,0.,0.,0.,0.,0.,0.,0.,0.,0.
 ,0.,0.,0.,0.,0.,0.,0.,0.,0.,0.,0.,0.,0.,0.,0.,0.,0.,0.,0.,0.,0.,0.,0.,
 0.,0.,0.,0.,0.,0.,0.,0.,0.,0.,0.,0.,0.,0.,0.,0.,0.,0.,0.,0.,0.,0.,0.,0
 .,0.,0.,0.,0.,0.,0.,0.,0.,0.,0.,0.,0.,0.,0.,0.,0.,0.,0.,0.,0.,0.,0.,0.
 ,0.,0.,0.,0.,0.,0.,0.,0.,0.,0.,0.,0.,0.,0.,0.,0.,0.,0.,0.,0.,0.,0.,0.,
 0.,0.,0.,0.,0.,0.,0.,0.,0.,0.,0.,0.,0.,0.,0.,0.,0.,0.,0.,0.,0.,0.,0.,0
 .,0.,0.,0.,0.,0.,0.,0.,0.,0.,0.,0.,0.,0.,0.,0.,0.,0.,0.,0.,0.,0.,0.,0.
 ,0.,0.,0.,0.,0.,0.,0.,0.,0.,0.,0.,0.,0.,0.,0.,0.,0.,0.,0.,0.,0.,0.,0.,
 0.,0.,0.,0.,0.,0.,0.,0.,0.,0.,0.,0.,0.,0.,0.,0.,0.,0.,0.,0.,0.,0.,0.,0
 .,0.,0.,0.,0.,0.,0.,0.,0.,0.,0.,0.,0.,0.,0.,0.,0.,0.,0.,0.,0.,0.,0.,0.
 ,0.,0.,0.,0.,0.,0.,0.,0.,0.,0.,0.,0.,0.,0.,0.,0.,0.,0.,0.,0.,0.,0.,0.,
 0.,0.,0.,0.,0.,0.,0.,0.,0.,0.,0.,0.,0.,0.,0.,0.,0.,0.,0.,0.,0.,0.,0.,0
 .,0.,0.,0.,0.,0.,0.,0.,0.,0.,0.21457043,0.,0.,0.,0.,0.,0.,0.,0.,0.,0.,
 0.,0.,0.,0.,0.,0.,0.,0.,0.,0.,0.,0.,0.,0.,0.,0.,0.,0.,0.,0.,0.,0.,0.,0
 .,0.,0.,0.,0.,0.,0.,0.,0.,0.,0.,0.,0.,0.,0.,0.,0.,0.,0.,0.,0.,0.,0.,0.
 ,0.,0.,0.,0.,0.,0.,0.,0.,0.,0.,0.,0.,0.,0.,0.,0.,0.,0.,0.,0.,0.,0.,0.,
 0.,0.,0.,0.,0.,0.,0.,0.,0.,0.,0.,0.,0.,0.,0.,0.,0.,0.,0.,0.,0.,0.,0.,0
 .,0.,0.,0.,0.,0.,0.,0.,0.,0.,0.,0.,0.,0.,0.,0.,0.,0.,0.,0.,0.,0.,0.,0.
 ,0.,0.,0.,0.,0.,0.,0.,0.,0.,0.,0.,0.,0.,0.,0.,0.,0.,-0.17748981,0.1765
 7119,0.,0.,0.,0.,0.,0.,0.,0.,0.,0.,0.,0.,0.,0.,0.,0.,0.,0.,0.,0.,0.,0.
 ,0.,0.,0.,0.,0.,0.,0.,0.,0.,0.,0.,0.,0.,0.,0.,0.,0.,0.,0.,0.,0.,0.,0.,
 0.,0.,0.,0.,0.,0.,0.,0.,0.,0.,0.,0.,0.,0.,0.,0.,0.,0.,0.,0.,0.,0.,0.,0
 .,0.,0.,0.,0.,0.,0.,0.,0.,0.,0.,0.,0.,0.,0.,0.,0.,0.,0.,0.,0.,0.,0.,0.
 ,0.,0.,0.,0.,0.,0.,0.,0.,0.,0.,0.,0.,0.,0.,0.,0.,0.,0.,0.,0.,0.,0.,0.,
 0.,0.,0.,0.,0.,0.,0.,0.,0.,0.,0.,0.,0.,0.,0.,0.,0.,0.,0.,0.,0.,0.,0.,0
 .,0.,0.,0.,0.,0.,-0.08941189,0.13859025,0.22095111,0.,0.,0.,0.,0.,0.,0
 .,0.,0.,0.,0.,0.,0.,0.,0.,0.,0.,0.,0.,0.,0.,0.,0.,0.,0.,0.,0.,0.,0.,0.
 ,0.,0.,0.,0.,0.,0.,0.,0.,0.,0.,0.,0.,0.,0.,0.,0.,0.,0.,0.,0.,0.,0.,0.,
 0.,0.,0.,0.,0.,0.,0.,0.,0.,0.,0.,0.,0.,0.,0.,0.,0.,0.,0.,0.,0.,0.,0.,0
 .,0.,0.,0.,0.,0.,0.,0.,0.,0.,0.,0.,0.,0.,0.,0.,0.,0.,0.,0.,0.,0.,0.,0.
 ,0.,0.,0.,0.,0.,0.,0.,0.,0.,0.,0.,0.,0.,0.,0.,0.,0.,0.,0.,0.,0.,0.,0.,
 0.,0.,0.,0.,0.,0.,0.,0.,0.,0.,0.,0.,0.,0.,0.,0.,0.,0.,0.,0.,0.,-0.1813
 8422,0.17119276,0.12587622,0.17085535,0.,0.,0.,0.,0.,0.,0.,0.,0.,0.,0.
 ,0.,0.,0.,0.,0.,0.,0.,0.,0.,0.,0.,0.,0.,0.,0.,0.,0.,0.,0.,0.,0.,0.,0.,
 0.,0.,0.,0.,0.,0.,0.,0.,0.,0.,0.,0.,0.,0.,0.,0.,0.,0.,0.,0.,0.,0.,0.,0
 .,0.,0.,0.,0.,0.,0.,0.,0.,0.,0.,0.,0.,0.,0.,0.,0.,0.,0.,0.,0.,0.,0.,0.
 ,0.,0.,0.,0.,0.,0.,0.,0.,0.,0.,0.,0.,0.,0.,0.,0.,0.,0.,0.,0.,0.,0.,0.,
 0.,0.,0.,0.,0.,0.,0.,0.,0.,0.,0.,0.,0.,0.,0.,0.,0.,0.,0.,0.,0.,0.,0.,0
 .,0.,0.,0.,0.,0.,0.,0.,0.,0.,0.,0.,0.,0.,0.,0.,0.,0.18878913,-0.180385
 54,-0.14192986,-0.18162532,0.19708391,0.,0.,0.,0.,0.,0.,0.,0.,0.,0.,0.
 ,0.,0.,0.,0.,0.,0.,0.,0.,0.,0.,0.,0.,0.,0.,0.,0.,0.,0.,0.,0.,0.,0.,0.,
 0.,0.,0.,0.,0.,0.,0.,0.,0.,0.,0.,0.,0.,0.,0.,0.,0.,0.,0.,0.,0.,0.,0.,0
 .,0.,0.,0.,0.,0.,0.,0.,0.,0.,0.,0.,0.,0.,0.,0.,0.,0.,0.,0.,0.,0.,0.,0.
 ,0.,0.,0.,0.,0.,0.,0.,0.,0.,0.,0.,0.,0.,0.,0.,0.,0.,0.,0.,0.,0.,0.,0.,
 0.,0.,0.,0.,0.,0.,0.,0.,0.,0.,0.,0.,0.,0.,0.,0.,0.,0.,0.,0.,0.,0.,0.,0
 .,0.,0.,0.,0.,0.,0.,0.,0.,0.,0.,0.,0.,0.,0.,0.,0.,0.17310717,-0.174882
 06,-0.15372104,-0.17546778,0.20034186,0.22063097||0.,0.,0.,0.,0.,0.,0.
 ,0.,0.,0.,0.,0.,0.,0.,0.,0.,0.,0.,0.,0.,0.,0.,0.,0.,0.,0.,0.,0.,0.,0.,
 0.,0.,0.,0.,0.,0.,0.,0.,0.,0.,0.,0.,0.,0.,0.,0.,0.,0.,0.,0.,0.,0.,0.,0
 .,0.,0.,0.,0.,0.,0.,0.,0.,0.,0.,0.,0.,0.,0.,0.,0.,0.,0.,0.,0.,0.,0.,0.
 ,0.,0.,0.,0.,0.,0.,0.,0.,0.,0.,0.,0.,0.,0.,0.,0.,0.,0.,0.,0.,0.,0.,0.,
 0.,0.,0.,0.,0.,0.,0.,0.,0.,0.,0.,0.,0.,0.,0.,0.,0.,0.,0.,0.,0.,0.,0.,0
 .,0.,0.,0.,0.,0.,0.,0.,0.,0.,0.,0.,0.,0.,0.,0.,0.,0.,0.,0.,0.,0.000049
 41,0.00012850,0.00002217,-0.00000482,-0.00009604,-0.00005700|||@


 ... FOR AFTERWARDS A MAN FINDS PLEASURE IN HIS PAINS,
 WHEN HE HAS SUFFERED LONG AND WANDERED FAR.

                                    -- HOMER
 Job cpu time:       0 days  0 hours  1 minutes 12.0 seconds.
 File lengths (MBytes):  RWF=   1781 Int=      0 D2E=      0 Chk=     19 Scr=      1
 Normal termination of Gaussian 09 at Mon Jan 13 23:33:05 2025.
