 Entering Link 1 = C:\G09W\l1.exe PID=      8040.
  
 Copyright (c) 1988,1990,1992,1993,1995,1998,2003,2009,2013,
            Gaussian, Inc.  All Rights Reserved.
  
 This is part of the Gaussian(R) 09 program.  It is based on
 the Gaussian(R) 03 system (copyright 2003, Gaussian, Inc.),
 the Gaussian(R) 98 system (copyright 1998, Gaussian, Inc.),
 the Gaussian(R) 94 system (copyright 1995, Gaussian, Inc.),
 the Gaussian 92(TM) system (copyright 1992, Gaussian, Inc.),
 the Gaussian 90(TM) system (copyright 1990, Gaussian, Inc.),
 the Gaussian 88(TM) system (copyright 1988, Gaussian, Inc.),
 the Gaussian 86(TM) system (copyright 1986, Carnegie Mellon
 University), and the Gaussian 82(TM) system (copyright 1983,
 Carnegie Mellon University). Gaussian is a federally registered
 trademark of Gaussian, Inc.
  
 This software contains proprietary and confidential information,
 including trade secrets, belonging to Gaussian, Inc.
  
 This software is provided under written license and may be
 used, copied, transmitted, or stored only in accord with that
 written license.
  
 The following legend is applicable only to US Government
 contracts under FAR:
  
                    RESTRICTED RIGHTS LEGEND
  
 Use, reproduction and disclosure by the US Government is
 subject to restrictions as set forth in subparagraphs (a)
 and (c) of the Commercial Computer Software - Restricted
 Rights clause in FAR 52.227-19.
  
 Gaussian, Inc.
 340 Quinnipiac St., Bldg. 40, Wallingford CT 06492
  
  
 ---------------------------------------------------------------
 Warning -- This program may not be used in any manner that
 competes with the business of Gaussian, Inc. or will provide
 assistance to any competitor of Gaussian, Inc.  The licensee
 of this program is prohibited from giving any competitor of
 Gaussian, Inc. access to this program.  By using this program,
 the user acknowledges that Gaussian, Inc. is engaged in the
 business of creating and licensing software in the field of
 computational chemistry and represents and warrants to the
 licensee that it is not a competitor of Gaussian, Inc. and that
 it will not use this program in any manner prohibited above.
 ---------------------------------------------------------------
  

 Cite this work as:
 Gaussian 09, Revision D.01,
 M. J. Frisch, G. W. Trucks, H. B. Schlegel, G. E. Scuseria, 
 M. A. Robb, J. R. Cheeseman, G. Scalmani, V. Barone, B. Mennucci, 
 G. A. Petersson, H. Nakatsuji, M. Caricato, X. Li, H. P. Hratchian, 
 A. F. Izmaylov, J. Bloino, G. Zheng, J. L. Sonnenberg, M. Hada, 
 M. Ehara, K. Toyota, R. Fukuda, J. Hasegawa, M. Ishida, T. Nakajima, 
 Y. Honda, O. Kitao, H. Nakai, T. Vreven, J. A. Montgomery, Jr., 
 J. E. Peralta, F. Ogliaro, M. Bearpark, J. J. Heyd, E. Brothers, 
 K. N. Kudin, V. N. Staroverov, T. Keith, R. Kobayashi, J. Normand, 
 K. Raghavachari, A. Rendell, J. C. Burant, S. S. Iyengar, J. Tomasi, 
 M. Cossi, N. Rega, J. M. Millam, M. Klene, J. E. Knox, J. B. Cross, 
 V. Bakken, C. Adamo, J. Jaramillo, R. Gomperts, R. E. Stratmann, 
 O. Yazyev, A. J. Austin, R. Cammi, C. Pomelli, J. W. Ochterski, 
 R. L. Martin, K. Morokuma, V. G. Zakrzewski, G. A. Voth, 
 P. Salvador, J. J. Dannenberg, S. Dapprich, A. D. Daniels, 
 O. Farkas, J. B. Foresman, J. V. Ortiz, J. Cioslowski, 
 and D. J. Fox, Gaussian, Inc., Wallingford CT, 2013.
 
 ******************************************
 Gaussian 09:  IA32W-G09RevD.01 24-Apr-2013
                05-Jan-2025 
 ******************************************
 %nprocshared=2
 Will use up to    2 processors via shared memory.
 %mem=1GB
 %chk=G:\My Drive\Boro Kaaz\Pristine MoSe2\H2S\Pristine MoSe2+H2S gas_freq.chk
 -----------------------------------
 # freq pm6 scf=qc geom=connectivity
 -----------------------------------
 1/10=4,30=1,38=1,57=2/1,3;
 2/12=2,17=6,18=5,40=1/2;
 3/5=2,16=1,25=1,41=3900000,71=2,140=1/1,2,3;
 4/35=1/1;
 5/5=2,8=3,35=1,38=5,98=1/8;
 8/6=4,10=90,11=11/1;
 11/6=1,8=1,9=11,15=111,16=1/1,2,10;
 10/6=1/2;
 6/7=2,8=2,9=2,10=2,18=1,28=1/1;
 7/8=1,10=1,25=1/1,2,3,16;
 1/10=4,30=1/3;
 99//99;
 ----------------------
 Pristine MoSe2+H2S gas
 ----------------------
 Symbolic Z-matrix:
 Charge =  0 Multiplicity = 1
 Mo                   -1   -0.08386  -0.13627   0. 
 Mo                   -1    3.01241   0.12659  -0.7226 
 Mo                   -1    6.10868   0.38946  -1.4452 
 Mo                   -1    9.20494   0.65232  -2.16779 
 Mo                   -1   -1.962     2.44175  -0.06712 
 Mo                   -1   -3.84014   5.01978  -0.13424 
 Mo                   -1   -5.71828   7.5978   -0.20136 
 Mo                   -1   -0.74387   5.28264  -0.85684 
 Mo                   -1   -2.62201   7.86066  -0.92396 
 Mo                   -1    4.23054   2.96748  -1.51232 
 Mo                   -1    2.3524    5.5455   -1.57944 
 Mo                   -1    0.47426   8.12352  -1.64656 
 Mo                   -1    7.3268    3.23034  -2.23491 
 Mo                   -1    5.44866   5.80836  -2.30204 
 Mo                   -1    3.57052   8.38639  -2.36916 
 Se                   -1   -7.07253   8.66606   1.55261 
 Se                   -1   -3.95255   8.91022   0.79931 
 Se                   -1   -0.85628   9.17308   0.07671 
 Se                   -1    2.23998   9.43594  -0.64589 
 Se                   -1   -5.17068   6.06933   1.58903 
 Se                   -1   -3.29254   3.49131   1.65615 
 Se                   -1   -1.4144    0.91329   1.72327 
 Se                   -1   -2.07441   6.33219   0.86643 
 Se                   -1   -0.19627   3.75417   0.93355 
 Se                   -1    1.68187   1.17615   1.00067 
 Se                   -1    1.02186   6.59506   0.14383 
 Se                   -1    2.89999   4.01703   0.21095 
 Se                   -1    4.77813   1.43901   0.27807 
 Se                   -1    4.11812   6.85792  -0.57877 
 Se                   -1    5.99626   4.2799   -0.51165 
 Se                   -1    7.8744    1.70187  -0.44453 
 Se                   -1   -3.94773   2.93564  -1.3534 
 Se                   -1   -5.82587   5.51366  -1.42053 
 Se                   -1   -7.73939   8.10048  -1.51057 
 Se                   -1   -2.06959   0.35762  -1.28628 
 Se                   -1   -0.85146   3.1985   -2.076 
 Se                   -1   -2.7296    5.77652  -2.14312 
 Se                   -1   -4.60774   8.35455  -2.21024 
 Se                   -1   -1.51147   8.61741  -2.93284 
 Se                   -1    0.36667   6.03938  -2.86572 
 Se                   -1    2.24481   3.46136  -2.7986 
 Se                   -1    1.02668   0.62048  -2.00888 
 Se                   -1    4.12295   0.88334  -2.73148 
 Se                   -1    7.21921   1.1462   -3.45408 
 Se                   -1    5.34108   3.72422  -3.5212 
 Se                   -1    3.46294   6.30225  -3.58832 
 Se                   -1    1.5848    8.88027  -3.65544 
 S                    0     0.49579   2.72164  -4.31729 
 H                    0     1.75985   3.11499  -4.49708 
 H                    0     0.05342   3.98222  -4.30571 
 Mo                   -1    1.13427   2.70462  -0.78972 
 

 GradGradGradGradGradGradGradGradGradGradGradGradGradGradGradGradGradGrad
 Berny optimization.
 Initialization pass.
 Trust Radius=3.00D-01 FncErr=1.00D-07 GrdErr=1.00D-07
 Number of steps in this run=      2 maximum allowed number of steps=      2.
 GradGradGradGradGradGradGradGradGradGradGradGradGradGradGradGradGradGrad

 Stoichiometry    H2Mo16SSe32
 Framework group  C1[X(H2Mo16SSe32)]
 Deg. of freedom   147
 Full point group                 C1      NOp   1
 Largest Abelian subgroup         C1      NOp   1
 Largest concise Abelian subgroup C1      NOp   1
                         Standard orientation:                         
 ---------------------------------------------------------------------
 Center     Atomic      Atomic             Coordinates (Angstroms)
 Number     Number       Type             X           Y           Z
 ---------------------------------------------------------------------
      1         42           0       -1.132917   -4.775831   -0.068207
      2         42           0       -3.894806   -3.178940   -0.063247
      3         42           0       -6.656695   -1.582050   -0.058287
      4         42           0       -9.418584    0.014840   -0.053327
      5         42           0        1.630972   -3.182471   -0.052751
      6         42           0        4.394861   -1.589111   -0.037294
      7         42           0        7.158749    0.004248   -0.021838
      8         42           0        1.632972    0.007779   -0.032335
      9         42           0        4.396860    1.601139   -0.016878
     10         42           0       -3.892806    0.011309   -0.042831
     11         42           0       -1.128918    1.604669   -0.027375
     12         42           0        1.634971    3.198029   -0.011918
     13         42           0       -6.654695    1.608199   -0.037871
     14         42           0       -3.890807    3.201559   -0.022415
     15         42           0       -1.126918    4.794919   -0.006958
     16         34           0        9.036528    0.013242   -1.611010
     17         34           0        6.241765    1.609974   -1.578229
     18         34           0        3.479876    3.206864   -1.573269
     19         34           0        0.717987    4.803754   -1.568309
     20         34           0        6.239765   -1.580276   -1.598645
     21         34           0        3.475877   -3.173635   -1.614101
     22         34           0        0.711988   -4.766995   -1.629558
     23         34           0        3.477876    0.016615   -1.593685
     24         34           0        0.713988   -1.576745   -1.609142
     25         34           0       -2.049901   -3.170105   -1.624598
     26         34           0        0.715987    1.613505   -1.588725
     27         34           0       -2.047901    0.020145   -1.604182
     28         34           0       -4.811790   -1.573215   -1.619638
     29         34           0       -2.045902    3.210395   -1.583765
     30         34           0       -4.809791    1.617035   -1.599222
     31         34           0       -7.573679    0.023675   -1.614678
     32         34           0        3.469919   -3.193660    1.515597
     33         34           0        6.233808   -1.600301    1.531054
     34         34           0        9.030464   -0.007140    1.574456
     35         34           0        0.706030   -4.787020    1.500141
     36         34           0        0.708030   -1.596770    1.520557
     37         34           0        3.471919   -0.003410    1.536014
     38         34           0        6.235807    1.589949    1.551470
     39         34           0        3.473918    3.186839    1.556430
     40         34           0        0.710029    1.593480    1.540974
     41         34           0       -2.053859    0.000120    1.525517
     42         34           0       -2.055859   -3.190130    1.505101
     43         34           0       -4.817748   -1.593240    1.510061
     44         34           0       -7.579637    0.003650    1.515021
     45         34           0       -4.815748    1.597010    1.530477
     46         34           0       -2.051860    3.190370    1.545934
     47         34           0        0.712029    4.783729    1.561390
     48         16           0       -0.973759   -0.963663    3.479284
     49          1           0       -1.967352   -0.084598    3.321440
     50          1           0       -0.045146   -0.012619    3.344794
     51         42           0       -1.130917   -1.585581   -0.047791
 ---------------------------------------------------------------------
 Rotational constants (GHZ):      0.0153358      0.0056902      0.0046628
 Standard basis: VSTO-6G (5D, 7F)
 There are   300 symmetry adapted cartesian basis functions of A   symmetry.
 There are   283 symmetry adapted basis functions of A   symmetry.
   283 basis functions,  1800 primitive gaussians,   300 cartesian basis functions
   148 alpha electrons      148 beta electrons
       nuclear repulsion energy      3948.7522498611 Hartrees.



 Warning!  Se atom   23 may be hypervalent but has no d functions.
 Warning!  Se atom   24 may be hypervalent but has no d functions.
 Warning!  Se atom   25 may be hypervalent but has no d functions.
 Warning!  Se atom   26 may be hypervalent but has no d functions.
 Warning!  Se atom   27 may be hypervalent but has no d functions.
 Warning!  Se atom   28 may be hypervalent but has no d functions.
 Warning!  Se atom   29 may be hypervalent but has no d functions.
 Warning!  Se atom   30 may be hypervalent but has no d functions.
 Warning!  Se atom   31 may be hypervalent but has no d functions.
 Warning!  Se atom   36 may be hypervalent but has no d functions.
 Warning!  Se atom   37 may be hypervalent but has no d functions.
 Warning!  Se atom   40 may be hypervalent but has no d functions.
 Warning!  Se atom   41 may be hypervalent but has no d functions.
 Warning!  Se atom   42 may be hypervalent but has no d functions.
 Warning!  Se atom   43 may be hypervalent but has no d functions.
 Warning!  Se atom   44 may be hypervalent but has no d functions.
 Warning!  Se atom   45 may be hypervalent but has no d functions.
 Warning!  Se atom   46 may be hypervalent but has no d functions.



 Integral buffers will be    262144 words long.
 Regular integral format.
 Two-electron integral symmetry is turned off.
 Do NDO integrals.
 One-electron integrals computed using PRISM.
 NBasis=   283 RedAO= F EigKep=  0.00D+00  NBF=   283
 NBsUse=   283 1.00D-04 EigRej=  0.00D+00 NBFU=   283
 Nonelectrostatic core Hamiltonian diagonalized for initial guess.
 Keep J ints in memory in canonical form, NReq=3195722.
 Gradient too large for Newton-Raphson -- use scaled steepest descent instead.
     Accept linear search using points  1 and  2.
 Gradient too large for Newton-Raphson -- use scaled steepest descent instead.
     Accept linear search using points  1 and  2.
 Gradient too large for Newton-Raphson -- use scaled steepest descent instead.
     Accept linear search using points  5 and  6.
 Gradient too large for Newton-Raphson -- use scaled steepest descent instead.
     Accept linear search using points  2 and  3.
 Gradient too large for Newton-Raphson -- use scaled steepest descent instead.
     Minimum is close to point  2 DX=  3.55D-02 DF= -2.44D-03 DXR=  8.15D-02 DFR=  6.68D-03 which will be used.
 Gradient too large for Newton-Raphson -- use scaled steepest descent instead.
     Minimum is close to point  2 DX=  2.65D-02 DF= -1.11D-03 DXR=  6.22D-02 DFR=  3.88D-03 which will be used.
 Gradient too large for Newton-Raphson -- use scaled steepest descent instead.
     Minimum is close to point  2 DX=  6.63D-03 DF= -5.70D-05 DXR=  1.63D-02 DFR=  2.66D-04 which will be used.
 Gradient too large for Newton-Raphson -- use scaled steepest descent instead.
 Gradient too large for Newton-Raphson -- use scaled steepest descent instead.
     Accept linear search using points  1 and  2.
 Gradient too large for Newton-Raphson -- use scaled steepest descent instead.
 Gradient too large for Newton-Raphson -- use scaled steepest descent instead.
     Minimum is close to point  3 DX= -1.47D-02 DF= -3.04D-04 DXR=  5.16D-02 DFR=  2.67D-03 which will be used.
 Gradient too large for Newton-Raphson -- use scaled steepest descent instead.
 Gradient too large for Newton-Raphson -- use scaled steepest descent instead.
     Accept linear search using points  1 and  2.
 Gradient too large for Newton-Raphson -- use scaled steepest descent instead.
     Minimum is close to point  5 DX= -1.41D-01 DF= -2.44D-04 DXR=  3.10D-02 DFR=  1.12D-03 which will be used.
 Gradient too large for Newton-Raphson -- use scaled steepest descent instead.
     Minimum is close to point  3 DX=  1.93D-02 DF= -1.60D-04 DXR=  6.05D-02 DFR=  3.67D-03 which will be used.
 Gradient too large for Newton-Raphson -- use scaled steepest descent instead.
     Accept linear search using points  1 and  2.
 Gradient too large for Newton-Raphson -- use scaled steepest descent instead.
     Accept linear search using points  1 and  2.
 Gradient too large for Newton-Raphson -- use scaled steepest descent instead.
     Minimum is close to point  4 DX= -8.10D-03 DF= -3.15D-07 DXR=  2.26D-03 DFR=  5.24D-06 which will be used.
 Gradient too large for Newton-Raphson -- use scaled steepest descent instead.
 Gradient too large for Newton-Raphson -- use scaled steepest descent instead.
 Gradient too large for Newton-Raphson -- use scaled steepest descent instead.
     Minimum is close to point  3 DX=  3.00D-03 DF= -1.84D-06 DXR=  9.89D-03 DFR=  9.78D-05 which will be used.
 Gradient too large for Newton-Raphson -- use scaled steepest descent instead.
     Accept linear search using points  2 and  3.
 Gradient too large for Newton-Raphson -- use scaled steepest descent instead.
     Accept linear search using points  1 and  2.
 Gradient too large for Newton-Raphson -- use scaled steepest descent instead.
 Gradient too large for Newton-Raphson -- use scaled steepest descent instead.
     Minimum is close to point  3 DX=  5.46D-03 DF= -4.71D-06 DXR=  1.79D-02 DFR=  3.19D-04 which will be used.
 Gradient too large for Newton-Raphson -- use scaled steepest descent instead.
 Gradient too large for Newton-Raphson -- use scaled steepest descent instead.
     Minimum is close to point  3 DX=  1.49D-04 DF= -3.54D-09 DXR=  4.97D-04 DFR=  2.47D-07 which will be used.
 Gradient too large for Newton-Raphson -- use scaled steepest descent instead.
     Minimum is close to point  3 DX=  1.11D-01 DF= -8.22D-05 DXR=  7.84D-02 DFR=  6.26D-03 which will be used.
 Gradient too large for Newton-Raphson -- use scaled steepest descent instead.
     Minimum is close to point  3 DX=  1.62D-02 DF= -2.89D-05 DXR=  5.13D-02 DFR=  2.63D-03 which will be used.
 Gradient too large for Newton-Raphson -- use scaled steepest descent instead.
 Gradient too large for Newton-Raphson -- use scaled steepest descent instead.
     Minimum is close to point  3 DX= -9.48D-03 DF= -1.45D-05 DXR=  3.26D-02 DFR=  1.07D-03 which will be used.
 Gradient too large for Newton-Raphson -- use scaled steepest descent instead.
     Accept linear search using points  1 and  2.
 Gradient too large for Newton-Raphson -- use scaled steepest descent instead.
     Minimum is close to point  3 DX= -9.13D-03 DF= -1.25D-05 DXR=  3.14D-02 DFR=  9.86D-04 which will be used.
 Gradient too large for Newton-Raphson -- use scaled steepest descent instead.
     Accept linear search using points  1 and  2.
     Minimum is close to point  2 DX= -1.21D-01 DF= -1.17D-04 DXR=  8.77D-02 DFR=  1.32D-02 which will be used.
 Gradient too large for Newton-Raphson -- use scaled steepest descent instead.
     Minimum is close to point  3 DX= -8.48D-03 DF= -1.01D-05 DXR=  2.91D-02 DFR=  8.47D-04 which will be used.
 Gradient too large for Newton-Raphson -- use scaled steepest descent instead.
     Accept linear search using points  1 and  2.
     Minimum is close to point  2 DX= -4.97D-02 DF= -1.99D-05 DXR=  3.68D-02 DFR=  2.28D-03 which will be used.
 Gradient too large for Newton-Raphson -- use scaled steepest descent instead.
     Accept linear search using points  1 and  2.
 Gradient too large for Newton-Raphson -- use scaled steepest descent instead.
 Gradient too large for Newton-Raphson -- use scaled steepest descent instead.
     Minimum is close to point  3 DX=  3.56D-03 DF= -1.23D-06 DXR=  1.17D-02 DFR=  1.37D-04 which will be used.
 Gradient too large for Newton-Raphson -- use scaled steepest descent instead.
 Gradient too large for Newton-Raphson -- use scaled steepest descent instead.
     Minimum is close to point  3 DX=  2.24D-03 DF= -4.69D-07 DXR=  7.41D-03 DFR=  5.50D-05 which will be used.
 Gradient too large for Newton-Raphson -- use scaled steepest descent instead.
 Gradient too large for Newton-Raphson -- use scaled steepest descent instead.
     Minimum is close to point  3 DX=  3.93D-03 DF= -1.27D-06 DXR=  1.29D-02 DFR=  1.67D-04 which will be used.
 Gradient too large for Newton-Raphson -- use scaled steepest descent instead.
 Gradient too large for Newton-Raphson -- use scaled steepest descent instead.
     Minimum is close to point  3 DX=  2.78D-03 DF= -5.96D-07 DXR=  9.20D-03 DFR=  8.46D-05 which will be used.
 Gradient too large for Newton-Raphson -- use scaled steepest descent instead.
 Gradient too large for Newton-Raphson -- use scaled steepest descent instead.
     Minimum is close to point  3 DX=  3.33D-03 DF= -7.60D-07 DXR=  1.10D-02 DFR=  1.20D-04 which will be used.
 Gradient too large for Newton-Raphson -- use scaled steepest descent instead.
 Gradient too large for Newton-Raphson -- use scaled steepest descent instead.
     Minimum is close to point  3 DX=  2.16D-03 DF= -2.99D-07 DXR=  7.14D-03 DFR=  5.10D-05 which will be used.
 Gradient too large for Newton-Raphson -- use scaled steepest descent instead.
 Gradient too large for Newton-Raphson -- use scaled steepest descent instead.
     Minimum is close to point  3 DX=  2.27D-03 DF= -2.96D-07 DXR=  7.52D-03 DFR=  5.65D-05 which will be used.
 Gradient too large for Newton-Raphson -- use scaled steepest descent instead.
 Gradient too large for Newton-Raphson -- use scaled steepest descent instead.
     Minimum is close to point  3 DX=  2.15D-03 DF= -2.34D-07 DXR=  7.11D-03 DFR=  5.05D-05 which will be used.
 Gradient too large for Newton-Raphson -- use scaled steepest descent instead.
 Gradient too large for Newton-Raphson -- use scaled steepest descent instead.
     Minimum is close to point  3 DX=  3.45D-03 DF= -5.05D-07 DXR=  1.14D-02 DFR=  1.29D-04 which will be used.
 Gradient too large for Newton-Raphson -- use scaled steepest descent instead.
 Gradient too large for Newton-Raphson -- use scaled steepest descent instead.
     Minimum is close to point  3 DX=  7.27D-03 DF= -1.80D-06 DXR=  2.37D-02 DFR=  5.61D-04 which will be used.
 Gradient too large for Newton-Raphson -- use scaled steepest descent instead.
 Gradient too large for Newton-Raphson -- use scaled steepest descent instead.
     Minimum is close to point  3 DX=  1.73D-02 DF= -7.62D-06 DXR=  5.46D-02 DFR=  2.99D-03 which will be used.
 Gradient too large for Newton-Raphson -- use scaled steepest descent instead.
 Gradient too large for Newton-Raphson -- use scaled steepest descent instead.
 Gradient too large for Newton-Raphson -- use scaled steepest descent instead.
     Accept linear search using points  1 and  2.
     Minimum is close to point  2 DX= -1.48D-02 DF= -2.31D-07 DXR=  1.67D-02 DFR=  2.24D-04 which will be used.
 Gradient too large for Newton-Raphson -- use scaled steepest descent instead.
     Accept linear search using points  1 and  2.
 Gradient too large for Newton-Raphson -- use scaled steepest descent instead.
     Accept linear search using points  3 and  4.
 Gradient too large for Newton-Raphson -- use scaled steepest descent instead.
     Minimum is close to point  3 DX=  1.24D-02 DF= -2.37D-06 DXR=  3.96D-02 DFR=  1.57D-03 which will be used.
 Gradient too large for Newton-Raphson -- use scaled steepest descent instead.
     Accept linear search using points  3 and  4.
     Minimum is close to point  4 DX= -4.22D-02 DF= -7.13D-07 DXR=  1.34D-02 DFR=  3.50D-04 which will be used.
 Gradient too large for Newton-Raphson -- use scaled steepest descent instead.
     Minimum is close to point  3 DX= -6.96D-05 DF= -1.02D-10 DXR=  2.32D-04 DFR=  5.38D-08 which will be used.
 Gradient too large for Newton-Raphson -- use scaled steepest descent instead.
     Accept linear search using points  1 and  2.
 Gradient too large for Newton-Raphson -- use scaled steepest descent instead.
     Minimum is close to point  3 DX=  1.57D-02 DF= -3.93D-06 DXR=  4.97D-02 DFR=  2.48D-03 which will be used.
 Gradient too large for Newton-Raphson -- use scaled steepest descent instead.
     Accept linear search using points  2 and  3.
 Gradient too large for Newton-Raphson -- use scaled steepest descent instead.
     Accept linear search using points  1 and  2.
 Gradient too large for Newton-Raphson -- use scaled steepest descent instead.
 Gradient too large for Newton-Raphson -- use scaled steepest descent instead.
     Accept linear search using points  1 and  2.
 Gradient too large for Newton-Raphson -- use scaled steepest descent instead.
     Minimum is close to point  4 DX=  2.14D-02 DF= -9.04D-08 DXR=  9.62D-03 DFR=  9.30D-05 which will be used.
 Gradient too large for Newton-Raphson -- use scaled steepest descent instead.
     Minimum is close to point  3 DX=  1.32D-02 DF= -1.64D-06 DXR=  4.21D-02 DFR=  1.78D-03 which will be used.
 Gradient too large for Newton-Raphson -- use scaled steepest descent instead.
 Gradient too large for Newton-Raphson -- use scaled steepest descent instead.
     Minimum is close to point  3 DX= -1.04D-04 DF= -1.80D-10 DXR=  3.48D-04 DFR=  1.21D-07 which will be used.
 Gradient too large for Newton-Raphson -- use scaled steepest descent instead.
     Accept linear search using points  1 and  2.
 Gradient too large for Newton-Raphson -- use scaled steepest descent instead.
     Minimum is close to point  3 DX=  1.38D-02 DF= -2.98D-06 DXR=  4.39D-02 DFR=  1.93D-03 which will be used.
 Gradient too large for Newton-Raphson -- use scaled steepest descent instead.
     Accept linear search using points  2 and  3.
 Gradient too large for Newton-Raphson -- use scaled steepest descent instead.
     Accept linear search using points  1 and  2.
 Gradient too large for Newton-Raphson -- use scaled steepest descent instead.
 Gradient too large for Newton-Raphson -- use scaled steepest descent instead.
     Accept linear search using points  1 and  2.
 Gradient too large for Newton-Raphson -- use scaled steepest descent instead.
     Minimum is close to point  4 DX=  1.12D-01 DF= -2.42D-06 DXR=  4.65D-02 DFR=  2.18D-03 which will be used.
 Gradient too large for Newton-Raphson -- use scaled steepest descent instead.
     Minimum is close to point  3 DX=  1.66D-02 DF= -2.88D-06 DXR=  5.26D-02 DFR=  2.77D-03 which will be used.
 Gradient too large for Newton-Raphson -- use scaled steepest descent instead.
 Gradient too large for Newton-Raphson -- use scaled steepest descent instead.
 Gradient too large for Newton-Raphson -- use scaled steepest descent instead.
 Gradient too large for Newton-Raphson -- use scaled steepest descent instead.
 Gradient too large for Newton-Raphson -- use scaled steepest descent instead.
     Minimum is close to point  2 DX=  8.47D-02 DF= -4.87D-06 DXR=  8.60D-02 DFR=  7.46D-03 which will be used.
 Gradient too large for Newton-Raphson -- use scaled steepest descent instead.
     Accept linear search using points  1 and  2.
 Gradient too large for Newton-Raphson -- use scaled steepest descent instead.
     Accept linear search using points  3 and  4.
 Gradient too large for Newton-Raphson -- use scaled steepest descent instead.
     Minimum is close to point  3 DX=  1.66D-02 DF= -3.19D-06 DXR=  5.24D-02 DFR=  2.76D-03 which will be used.
 Gradient too large for Newton-Raphson -- use scaled steepest descent instead.
 Gradient too large for Newton-Raphson -- use scaled steepest descent instead.
 Gradient too large for Newton-Raphson -- use scaled steepest descent instead.
 Gradient too large for Newton-Raphson -- use scaled steepest descent instead.
 Gradient too large for Newton-Raphson -- use scaled steepest descent instead.
     Minimum is close to point  2 DX=  8.54D-02 DF= -4.55D-06 DXR=  8.67D-02 DFR=  7.57D-03 which will be used.
 Gradient too large for Newton-Raphson -- use scaled steepest descent instead.
     Accept linear search using points  1 and  2.
 Gradient too large for Newton-Raphson -- use scaled steepest descent instead.
     Accept linear search using points  3 and  4.
 Gradient too large for Newton-Raphson -- use scaled steepest descent instead.
     Minimum is close to point  3 DX=  1.83D-02 DF= -3.30D-06 DXR=  5.75D-02 DFR=  3.31D-03 which will be used.
 Gradient too large for Newton-Raphson -- use scaled steepest descent instead.
     Accept linear search using points  4 and  5.
 Gradient too large for Newton-Raphson -- use scaled steepest descent instead.
 Gradient too large for Newton-Raphson -- use scaled steepest descent instead.
 Gradient too large for Newton-Raphson -- use scaled steepest descent instead.
     Minimum is close to point  3 DX= -2.37D-02 DF= -3.04D-06 DXR=  6.30D-02 DFR=  3.98D-03 which will be used.
 Gradient too large for Newton-Raphson -- use scaled steepest descent instead.
     Accept linear search using points  1 and  2.
 Gradient too large for Newton-Raphson -- use scaled steepest descent instead.
     Minimum is close to point  2 DX=  9.64D-03 DF= -1.42D-07 DXR=  1.89D-02 DFR=  3.58D-04 which will be used.
 Gradient too large for Newton-Raphson -- use scaled steepest descent instead.
     Minimum is close to point  2 DX=  3.73D-02 DF= -1.36D-06 DXR=  5.85D-02 DFR=  3.44D-03 which will be used.
 Gradient too large for Newton-Raphson -- use scaled steepest descent instead.
     Accept linear search using points  1 and  2.
 Gradient too large for Newton-Raphson -- use scaled steepest descent instead.
     Accept linear search using points  2 and  3.
 Gradient too large for Newton-Raphson -- use scaled steepest descent instead.
     Accept linear search using points  1 and  2.
 Gradient too large for Newton-Raphson -- use scaled steepest descent instead.
     Minimum is close to point  3 DX=  1.41D-02 DF= -7.44D-08 DXR=  1.16D-02 DFR=  1.35D-04 which will be used.
 Gradient too large for Newton-Raphson -- use scaled steepest descent instead.
     Accept linear search using points  1 and  2.
 Gradient too large for Newton-Raphson -- use scaled steepest descent instead.
     Minimum is close to point  3 DX=  3.11D-02 DF= -3.22D-07 DXR=  2.34D-02 DFR=  5.47D-04 which will be used.
 Gradient too large for Newton-Raphson -- use scaled steepest descent instead.
     Accept linear search using points  1 and  2.
 Gradient too large for Newton-Raphson -- use scaled steepest descent instead.
     Accept linear search using points  2 and  3.
     Minimum is close to point  3 DX= -1.11D-01 DF= -2.44D-06 DXR=  8.57D-02 DFR=  4.07D-03 which will be used.
 Gradient too large for Newton-Raphson -- use scaled steepest descent instead.
 Gradient too large for Newton-Raphson -- use scaled steepest descent instead.
 Gradient too large for Newton-Raphson -- use scaled steepest descent instead.
 Gradient too large for Newton-Raphson -- use scaled steepest descent instead.
     Minimum is close to point  3 DX=  4.44D-02 DF= -6.07D-07 DXR=  3.08D-02 DFR=  9.47D-04 which will be used.
 Gradient too large for Newton-Raphson -- use scaled steepest descent instead.
     Accept linear search using points  1 and  2.
 Gradient too large for Newton-Raphson -- use scaled steepest descent instead.
     Accept linear search using points  2 and  3.
     Minimum is close to point  3 DX= -3.73D-03 DF= -1.61D-09 DXR=  2.67D-03 DFR=  2.54D-06 which will be used.
 Gradient too large for Newton-Raphson -- use scaled steepest descent instead.
     Accept linear search using points  1 and  2.
 Gradient too large for Newton-Raphson -- use scaled steepest descent instead.
     Minimum is close to point  3 DX=  1.44D-02 DF= -6.70D-08 DXR=  1.02D-02 DFR=  1.04D-04 which will be used.
 Gradient too large for Newton-Raphson -- use scaled steepest descent instead.
     Accept linear search using points  1 and  2.
 Gradient too large for Newton-Raphson -- use scaled steepest descent instead.
     Minimum is close to point  3 DX=  2.25D-02 DF= -1.63D-07 DXR=  1.58D-02 DFR=  2.50D-04 which will be used.
 Gradient too large for Newton-Raphson -- use scaled steepest descent instead.
     Accept linear search using points  1 and  2.
 Gradient too large for Newton-Raphson -- use scaled steepest descent instead.
     Minimum is close to point  3 DX=  3.06D-02 DF= -2.99D-07 DXR=  2.14D-02 DFR=  4.56D-04 which will be used.
 Gradient too large for Newton-Raphson -- use scaled steepest descent instead.
     Accept linear search using points  1 and  2.
 Gradient too large for Newton-Raphson -- use scaled steepest descent instead.
     Minimum is close to point  3 DX=  3.77D-02 DF= -4.49D-07 DXR=  2.63D-02 DFR=  6.88D-04 which will be used.
 Gradient too large for Newton-Raphson -- use scaled steepest descent instead.
     Accept linear search using points  1 and  2.
 Gradient too large for Newton-Raphson -- use scaled steepest descent instead.
     Minimum is close to point  3 DX=  4.40D-02 DF= -5.96D-07 DXR=  3.05D-02 DFR=  9.28D-04 which will be used.
 Gradient too large for Newton-Raphson -- use scaled steepest descent instead.
     Accept linear search using points  1 and  2.
 Gradient too large for Newton-Raphson -- use scaled steepest descent instead.
     Minimum is close to point  3 DX=  4.95D-02 DF= -7.24D-07 DXR=  3.41D-02 DFR=  1.16D-03 which will be used.
 Gradient too large for Newton-Raphson -- use scaled steepest descent instead.
     Accept linear search using points  1 and  2.
 Gradient too large for Newton-Raphson -- use scaled steepest descent instead.
     Minimum is close to point  3 DX=  5.40D-02 DF= -8.20D-07 DXR=  3.72D-02 DFR=  1.38D-03 which will be used.
 Gradient too large for Newton-Raphson -- use scaled steepest descent instead.
     Accept linear search using points  1 and  2.
 Gradient too large for Newton-Raphson -- use scaled steepest descent instead.
     Minimum is close to point  3 DX=  5.78D-02 DF= -8.79D-07 DXR=  3.97D-02 DFR=  1.57D-03 which will be used.
 Gradient too large for Newton-Raphson -- use scaled steepest descent instead.
     Accept linear search using points  1 and  2.
 Gradient too large for Newton-Raphson -- use scaled steepest descent instead.
     Minimum is close to point  3 DX=  6.10D-02 DF= -9.00D-07 DXR=  4.17D-02 DFR=  1.74D-03 which will be used.
 Gradient too large for Newton-Raphson -- use scaled steepest descent instead.
     Accept linear search using points  1 and  2.
 Gradient too large for Newton-Raphson -- use scaled steepest descent instead.
     Minimum is close to point  3 DX=  6.36D-02 DF= -8.89D-07 DXR=  4.35D-02 DFR=  1.89D-03 which will be used.
 Gradient too large for Newton-Raphson -- use scaled steepest descent instead.
     Accept linear search using points  1 and  2.
 LinEq1:  Iter=  0 NonCon=     1 RMS=3.44D-04 Max=2.72D-02 NDo=     1
 AX will form     1 AO Fock derivatives at one time.
 LinEq1:  Iter=  1 NonCon=     1 RMS=3.01D-04 Max=6.78D-03 NDo=     1
 LinEq1:  Iter=  2 NonCon=     1 RMS=1.29D-04 Max=3.86D-03 NDo=     1
 LinEq1:  Iter=  3 NonCon=     1 RMS=1.00D-04 Max=3.56D-03 NDo=     1
 LinEq1:  Iter=  4 NonCon=     1 RMS=7.74D-05 Max=3.28D-03 NDo=     1
 LinEq1:  Iter=  5 NonCon=     1 RMS=9.83D-05 Max=3.97D-03 NDo=     1
 LinEq1:  Iter=  6 NonCon=     1 RMS=9.37D-05 Max=2.94D-03 NDo=     1
 LinEq1:  Iter=  7 NonCon=     1 RMS=7.26D-05 Max=2.57D-03 NDo=     1
 LinEq1:  Iter=  8 NonCon=     1 RMS=6.84D-05 Max=2.11D-03 NDo=     1
 LinEq1:  Iter=  9 NonCon=     1 RMS=6.51D-05 Max=1.70D-03 NDo=     1
 LinEq1:  Iter= 10 NonCon=     1 RMS=6.34D-05 Max=1.73D-03 NDo=     1
 LinEq1:  Iter= 11 NonCon=     1 RMS=6.19D-05 Max=1.24D-03 NDo=     1
 LinEq1:  Iter= 12 NonCon=     1 RMS=5.23D-05 Max=1.21D-03 NDo=     1
 LinEq1:  Iter= 13 NonCon=     1 RMS=4.54D-05 Max=9.12D-04 NDo=     1
 LinEq1:  Iter= 14 NonCon=     1 RMS=3.34D-05 Max=8.52D-04 NDo=     1
 LinEq1:  Iter= 15 NonCon=     1 RMS=2.52D-05 Max=5.31D-04 NDo=     1
 LinEq1:  Iter= 16 NonCon=     1 RMS=1.78D-05 Max=4.34D-04 NDo=     1
 LinEq1:  Iter= 17 NonCon=     1 RMS=1.01D-05 Max=2.16D-04 NDo=     1
 LinEq1:  Iter= 18 NonCon=     1 RMS=1.04D-05 Max=1.75D-04 NDo=     1
 LinEq1:  Iter= 19 NonCon=     1 RMS=7.38D-06 Max=1.52D-04 NDo=     1
 LinEq1:  Iter= 20 NonCon=     1 RMS=5.76D-06 Max=1.30D-04 NDo=     1
 LinEq1:  Iter= 21 NonCon=     1 RMS=3.73D-06 Max=7.76D-05 NDo=     1
 LinEq1:  Iter= 22 NonCon=     1 RMS=2.66D-06 Max=5.72D-05 NDo=     1
 LinEq1:  Iter= 23 NonCon=     1 RMS=2.06D-06 Max=5.17D-05 NDo=     1
 LinEq1:  Iter= 24 NonCon=     1 RMS=1.70D-06 Max=3.48D-05 NDo=     1
 LinEq1:  Iter= 25 NonCon=     1 RMS=1.59D-06 Max=2.89D-05 NDo=     1
 LinEq1:  Iter= 26 NonCon=     1 RMS=1.82D-06 Max=3.41D-05 NDo=     1
 LinEq1:  Iter= 27 NonCon=     1 RMS=1.24D-06 Max=2.22D-05 NDo=     1
 LinEq1:  Iter= 28 NonCon=     1 RMS=8.70D-07 Max=1.72D-05 NDo=     1
 LinEq1:  Iter= 29 NonCon=     1 RMS=5.16D-07 Max=1.03D-05 NDo=     1
 LinEq1:  Iter= 30 NonCon=     1 RMS=2.37D-07 Max=4.39D-06 NDo=     1
 LinEq1:  Iter= 31 NonCon=     1 RMS=1.60D-07 Max=2.61D-06 NDo=     1
 LinEq1:  Iter= 32 NonCon=     1 RMS=8.13D-08 Max=1.26D-06 NDo=     1
 LinEq1:  Iter= 33 NonCon=     1 RMS=5.28D-08 Max=9.69D-07 NDo=     1
 LinEq1:  Iter= 34 NonCon=     1 RMS=3.83D-08 Max=8.49D-07 NDo=     1
 LinEq1:  Iter= 35 NonCon=     1 RMS=1.90D-08 Max=3.83D-07 NDo=     1
 LinEq1:  Iter= 36 NonCon=     0 RMS=9.64D-09 Max=1.61D-07 NDo=     1
 Linear equations converged to 1.999D-08 1.999D-07 after    36 iterations.
 Gradient too large for Newton-Raphson -- use scaled steepest descent instead.
     Accept linear search using points  1 and  2.
 LinEq1:  Iter=  0 NonCon=     1 RMS=2.07D-04 Max=9.14D-03 NDo=     1
 LinEq1:  Iter=  1 NonCon=     1 RMS=3.25D-04 Max=1.04D-02 NDo=     1
 LinEq1:  Iter=  2 NonCon=     1 RMS=1.11D-04 Max=2.85D-03 NDo=     1
 LinEq1:  Iter=  3 NonCon=     1 RMS=1.41D-04 Max=2.79D-03 NDo=     1
 LinEq1:  Iter=  4 NonCon=     1 RMS=9.27D-05 Max=2.97D-03 NDo=     1
 LinEq1:  Iter=  5 NonCon=     1 RMS=1.17D-04 Max=4.07D-03 NDo=     1
 LinEq1:  Iter=  6 NonCon=     1 RMS=9.76D-05 Max=2.16D-03 NDo=     1
 LinEq1:  Iter=  7 NonCon=     1 RMS=8.67D-05 Max=2.71D-03 NDo=     1
 LinEq1:  Iter=  8 NonCon=     1 RMS=6.01D-05 Max=1.28D-03 NDo=     1
 LinEq1:  Iter=  9 NonCon=     1 RMS=7.39D-05 Max=1.42D-03 NDo=     1
 LinEq1:  Iter= 10 NonCon=     1 RMS=5.95D-05 Max=1.42D-03 NDo=     1
 LinEq1:  Iter= 11 NonCon=     1 RMS=5.36D-05 Max=1.10D-03 NDo=     1
 LinEq1:  Iter= 12 NonCon=     1 RMS=3.74D-05 Max=7.55D-04 NDo=     1
 LinEq1:  Iter= 13 NonCon=     1 RMS=3.26D-05 Max=4.84D-04 NDo=     1
 LinEq1:  Iter= 14 NonCon=     1 RMS=3.59D-05 Max=6.88D-04 NDo=     1
 LinEq1:  Iter= 15 NonCon=     1 RMS=3.37D-05 Max=6.38D-04 NDo=     1
 LinEq1:  Iter= 16 NonCon=     1 RMS=2.59D-05 Max=6.33D-04 NDo=     1
 LinEq1:  Iter= 17 NonCon=     1 RMS=2.26D-05 Max=6.05D-04 NDo=     1
 LinEq1:  Iter= 18 NonCon=     1 RMS=1.94D-05 Max=6.50D-04 NDo=     1
 LinEq1:  Iter= 19 NonCon=     1 RMS=1.48D-05 Max=5.14D-04 NDo=     1
 LinEq1:  Iter= 20 NonCon=     1 RMS=9.54D-06 Max=2.75D-04 NDo=     1
 LinEq1:  Iter= 21 NonCon=     1 RMS=6.76D-06 Max=2.34D-04 NDo=     1
 LinEq1:  Iter= 22 NonCon=     1 RMS=4.44D-06 Max=1.46D-04 NDo=     1
 LinEq1:  Iter= 23 NonCon=     1 RMS=2.56D-06 Max=5.86D-05 NDo=     1
 LinEq1:  Iter= 24 NonCon=     1 RMS=1.57D-06 Max=3.21D-05 NDo=     1
 LinEq1:  Iter= 25 NonCon=     1 RMS=9.44D-07 Max=1.94D-05 NDo=     1
 LinEq1:  Iter= 26 NonCon=     1 RMS=6.32D-07 Max=1.07D-05 NDo=     1
 LinEq1:  Iter= 27 NonCon=     1 RMS=5.58D-07 Max=1.16D-05 NDo=     1
 LinEq1:  Iter= 28 NonCon=     1 RMS=3.74D-07 Max=1.05D-05 NDo=     1
 LinEq1:  Iter= 29 NonCon=     1 RMS=2.68D-07 Max=7.38D-06 NDo=     1
 LinEq1:  Iter= 30 NonCon=     1 RMS=1.64D-07 Max=5.40D-06 NDo=     1
 LinEq1:  Iter= 31 NonCon=     1 RMS=8.36D-08 Max=2.77D-06 NDo=     1
 LinEq1:  Iter= 32 NonCon=     1 RMS=5.90D-08 Max=1.84D-06 NDo=     1
 LinEq1:  Iter= 33 NonCon=     1 RMS=3.71D-08 Max=1.28D-06 NDo=     1
 LinEq1:  Iter= 34 NonCon=     1 RMS=2.26D-08 Max=7.14D-07 NDo=     1
 LinEq1:  Iter= 35 NonCon=     1 RMS=1.41D-08 Max=4.27D-07 NDo=     1
 LinEq1:  Iter= 36 NonCon=     1 RMS=7.03D-09 Max=2.11D-07 NDo=     1
 LinEq1:  Iter= 37 NonCon=     0 RMS=3.61D-09 Max=8.87D-08 NDo=     1
 Linear equations converged to 1.999D-08 1.999D-07 after    37 iterations.
     Accept linear search using points  1 and  2.
     Minimum is close to point  2 DX= -8.03D-02 DF= -1.52D-05 DXR=  8.73D-02 DFR=  8.32D-03 which will be used.
 LinEq1:  Iter=  0 NonCon=     1 RMS=7.17D-05 Max=1.99D-03 NDo=     1
 LinEq1:  Iter=  1 NonCon=     1 RMS=7.43D-05 Max=2.98D-03 NDo=     1
 LinEq1:  Iter=  2 NonCon=     1 RMS=7.28D-05 Max=2.28D-03 NDo=     1
 LinEq1:  Iter=  3 NonCon=     1 RMS=5.65D-05 Max=1.35D-03 NDo=     1
 LinEq1:  Iter=  4 NonCon=     1 RMS=4.61D-05 Max=1.09D-03 NDo=     1
 LinEq1:  Iter=  5 NonCon=     1 RMS=4.43D-05 Max=1.41D-03 NDo=     1
 LinEq1:  Iter=  6 NonCon=     1 RMS=3.60D-05 Max=1.34D-03 NDo=     1
 LinEq1:  Iter=  7 NonCon=     1 RMS=4.48D-05 Max=1.35D-03 NDo=     1
 LinEq1:  Iter=  8 NonCon=     1 RMS=3.88D-05 Max=9.19D-04 NDo=     1
 LinEq1:  Iter=  9 NonCon=     1 RMS=3.66D-05 Max=8.36D-04 NDo=     1
 LinEq1:  Iter= 10 NonCon=     1 RMS=3.01D-05 Max=5.65D-04 NDo=     1
 LinEq1:  Iter= 11 NonCon=     1 RMS=2.70D-05 Max=5.12D-04 NDo=     1
 LinEq1:  Iter= 12 NonCon=     1 RMS=2.75D-05 Max=5.45D-04 NDo=     1
 LinEq1:  Iter= 13 NonCon=     1 RMS=2.63D-05 Max=4.61D-04 NDo=     1
 LinEq1:  Iter= 14 NonCon=     1 RMS=1.43D-05 Max=3.52D-04 NDo=     1
 LinEq1:  Iter= 15 NonCon=     1 RMS=1.18D-05 Max=1.98D-04 NDo=     1
 LinEq1:  Iter= 16 NonCon=     1 RMS=1.25D-05 Max=3.10D-04 NDo=     1
 LinEq1:  Iter= 17 NonCon=     1 RMS=1.34D-05 Max=2.38D-04 NDo=     1
 LinEq1:  Iter= 18 NonCon=     1 RMS=9.33D-06 Max=1.54D-04 NDo=     1
 LinEq1:  Iter= 19 NonCon=     1 RMS=8.78D-06 Max=1.60D-04 NDo=     1
 LinEq1:  Iter= 20 NonCon=     1 RMS=6.75D-06 Max=1.20D-04 NDo=     1
 LinEq1:  Iter= 21 NonCon=     1 RMS=5.60D-06 Max=1.27D-04 NDo=     1
 LinEq1:  Iter= 22 NonCon=     1 RMS=3.57D-06 Max=8.51D-05 NDo=     1
 LinEq1:  Iter= 23 NonCon=     1 RMS=2.66D-06 Max=7.59D-05 NDo=     1
 LinEq1:  Iter= 24 NonCon=     1 RMS=2.01D-06 Max=7.70D-05 NDo=     1
 LinEq1:  Iter= 25 NonCon=     1 RMS=1.37D-06 Max=4.82D-05 NDo=     1
 LinEq1:  Iter= 26 NonCon=     1 RMS=1.01D-06 Max=3.86D-05 NDo=     1
 LinEq1:  Iter= 27 NonCon=     1 RMS=7.29D-07 Max=2.23D-05 NDo=     1
 LinEq1:  Iter= 28 NonCon=     1 RMS=4.48D-07 Max=1.71D-05 NDo=     1
 LinEq1:  Iter= 29 NonCon=     1 RMS=2.36D-07 Max=7.56D-06 NDo=     1
 LinEq1:  Iter= 30 NonCon=     1 RMS=1.85D-07 Max=5.12D-06 NDo=     1
 LinEq1:  Iter= 31 NonCon=     1 RMS=1.01D-07 Max=2.28D-06 NDo=     1
 LinEq1:  Iter= 32 NonCon=     1 RMS=5.23D-08 Max=1.02D-06 NDo=     1
 LinEq1:  Iter= 33 NonCon=     1 RMS=2.24D-08 Max=5.05D-07 NDo=     1
 LinEq1:  Iter= 34 NonCon=     0 RMS=1.34D-08 Max=1.68D-07 NDo=     1
 Linear equations converged to 1.999D-08 1.999D-07 after    34 iterations.
     Minimum is close to point  2 DX=  4.06D-02 DF= -1.46D-07 DXR=  3.90D-02 DFR=  1.52D-03 which will be used.
 LinEq1:  Iter=  0 NonCon=     1 RMS=2.25D-06 Max=9.76D-05 NDo=     1
 LinEq1:  Iter=  1 NonCon=     1 RMS=2.91D-06 Max=1.19D-04 NDo=     1
 LinEq1:  Iter=  2 NonCon=     1 RMS=2.44D-06 Max=5.91D-05 NDo=     1
 LinEq1:  Iter=  3 NonCon=     1 RMS=2.10D-06 Max=5.96D-05 NDo=     1
 LinEq1:  Iter=  4 NonCon=     1 RMS=1.78D-06 Max=4.42D-05 NDo=     1
 LinEq1:  Iter=  5 NonCon=     1 RMS=1.48D-06 Max=3.58D-05 NDo=     1
 LinEq1:  Iter=  6 NonCon=     1 RMS=1.04D-06 Max=2.07D-05 NDo=     1
 LinEq1:  Iter=  7 NonCon=     1 RMS=1.16D-06 Max=2.16D-05 NDo=     1
 LinEq1:  Iter=  8 NonCon=     1 RMS=8.87D-07 Max=1.40D-05 NDo=     1
 LinEq1:  Iter=  9 NonCon=     1 RMS=9.65D-07 Max=1.64D-05 NDo=     1
 LinEq1:  Iter= 10 NonCon=     1 RMS=8.74D-07 Max=1.38D-05 NDo=     1
 LinEq1:  Iter= 11 NonCon=     1 RMS=7.21D-07 Max=1.45D-05 NDo=     1
 LinEq1:  Iter= 12 NonCon=     1 RMS=7.63D-07 Max=1.71D-05 NDo=     1
 LinEq1:  Iter= 13 NonCon=     1 RMS=6.64D-07 Max=1.74D-05 NDo=     1
 LinEq1:  Iter= 14 NonCon=     1 RMS=3.53D-07 Max=6.16D-06 NDo=     1
 LinEq1:  Iter= 15 NonCon=     1 RMS=3.04D-07 Max=5.83D-06 NDo=     1
 LinEq1:  Iter= 16 NonCon=     1 RMS=2.54D-07 Max=5.03D-06 NDo=     1
 LinEq1:  Iter= 17 NonCon=     1 RMS=2.66D-07 Max=5.61D-06 NDo=     1
 LinEq1:  Iter= 18 NonCon=     1 RMS=2.36D-07 Max=7.58D-06 NDo=     1
 LinEq1:  Iter= 19 NonCon=     1 RMS=2.38D-07 Max=5.74D-06 NDo=     1
 LinEq1:  Iter= 20 NonCon=     1 RMS=1.94D-07 Max=6.68D-06 NDo=     1
 LinEq1:  Iter= 21 NonCon=     1 RMS=1.41D-07 Max=4.45D-06 NDo=     1
 LinEq1:  Iter= 22 NonCon=     1 RMS=9.52D-08 Max=2.74D-06 NDo=     1
 LinEq1:  Iter= 23 NonCon=     1 RMS=5.89D-08 Max=1.39D-06 NDo=     1
 LinEq1:  Iter= 24 NonCon=     1 RMS=4.73D-08 Max=1.39D-06 NDo=     1
 LinEq1:  Iter= 25 NonCon=     1 RMS=2.60D-08 Max=8.28D-07 NDo=     1
 LinEq1:  Iter= 26 NonCon=     1 RMS=2.20D-08 Max=6.67D-07 NDo=     1
 LinEq1:  Iter= 27 NonCon=     1 RMS=1.55D-08 Max=5.87D-07 NDo=     1
 LinEq1:  Iter= 28 NonCon=     1 RMS=9.71D-09 Max=3.40D-07 NDo=     1
 LinEq1:  Iter= 29 NonCon=     1 RMS=7.05D-09 Max=2.51D-07 NDo=     1
 LinEq1:  Iter= 30 NonCon=     1 RMS=4.45D-09 Max=1.50D-07 NDo=     1
 LinEq1:  Iter= 31 NonCon=     1 RMS=2.37D-09 Max=7.12D-08 NDo=     1
 LinEq1:  Iter= 32 NonCon=     1 RMS=1.37D-09 Max=3.69D-08 NDo=     1
 LinEq1:  Iter= 33 NonCon=     1 RMS=6.94D-10 Max=1.91D-08 NDo=     1
 LinEq1:  Iter= 34 NonCon=     0 RMS=3.30D-10 Max=6.11D-09 NDo=     1
 Linear equations converged to 1.114D-09 1.114D-08 after    34 iterations.
 SCF Done:  E(RPM6) =  -5.29668403827     a.u. after  149 cycles
            Convg  =    0.1163D-05                   539 Fock formations.
              S**2 =  0.0000                  -V/T =  0.9693
 Range of M.O.s used for correlation:     1   283
 NBasis=   283 NAE=   148 NBE=   148 NFC=     0 NFV=     0
 NROrb=    283 NOA=   148 NOB=   148 NVA=   135 NVB=   135
 Symmetrizing basis deriv contribution to polar:
 IMax=3 JMax=2 DiffMx= 0.00D+00
 G2DrvN: will do    52 centers at a time, making    1 passes.
 Calling FoFCou, ICntrl=  3107 FMM=F I1Cent=   0 AccDes= 0.00D+00.
 End of G2Drv F.D. properties file   721 does not exist.
 End of G2Drv F.D. properties file   722 does not exist.
 End of G2Drv F.D. properties file   788 does not exist.
          IDoAtm=00000000000000000000000000000000000000000000000111
          IDoAtm=0
          Differentiating once with respect to electric field.
                with respect to dipole field.
          Differentiating once with respect to nuclear coordinates.
          Electric field/nuclear overlap derivatives assumed to be zero.
 Keep J ints in memory in canonical form, NReq=2495247.
          There are    12 degrees of freedom in the 1st order CPHF.  IDoFFX=5 NUNeed=    12.
 LinEq1:  Iter=  0 NonCon=    12 RMS=5.67D-01 Max=1.60D+01 NDo=    12
 AX will form    12 AO Fock derivatives at one time.
 LinEq1:  Iter=  1 NonCon=    12 RMS=4.72D-01 Max=6.76D+00 NDo=    12
 LinEq1:  Iter=  2 NonCon=    12 RMS=4.75D-01 Max=8.57D+00 NDo=    12
 LinEq1:  Iter=  3 NonCon=    12 RMS=4.03D-01 Max=5.65D+00 NDo=    12
 LinEq1:  Iter=  4 NonCon=    12 RMS=3.22D-01 Max=8.45D+00 NDo=    12
 LinEq1:  Iter=  5 NonCon=    12 RMS=2.92D-01 Max=8.78D+00 NDo=    12
 LinEq1:  Iter=  6 NonCon=    12 RMS=3.45D-01 Max=9.31D+00 NDo=    12
 LinEq1:  Iter=  7 NonCon=    12 RMS=2.91D-01 Max=1.11D+01 NDo=    12
 LinEq1:  Iter=  8 NonCon=    12 RMS=1.90D-01 Max=8.71D+00 NDo=    12
 LinEq1:  Iter=  9 NonCon=    12 RMS=1.28D-01 Max=6.07D+00 NDo=    12
 LinEq1:  Iter= 10 NonCon=    12 RMS=1.23D-01 Max=4.70D+00 NDo=    12
 LinEq1:  Iter= 11 NonCon=    12 RMS=1.46D-01 Max=5.33D+00 NDo=    12
 LinEq1:  Iter= 12 NonCon=    12 RMS=8.02D-02 Max=2.62D+00 NDo=    12
 LinEq1:  Iter= 13 NonCon=    12 RMS=8.14D-02 Max=2.54D+00 NDo=    12
 LinEq1:  Iter= 14 NonCon=    12 RMS=6.74D-02 Max=1.79D+00 NDo=    12
 LinEq1:  Iter= 15 NonCon=    12 RMS=6.15D-02 Max=1.42D+00 NDo=    12
 LinEq1:  Iter= 16 NonCon=    12 RMS=6.36D-02 Max=1.17D+00 NDo=    12
 LinEq1:  Iter= 17 NonCon=    12 RMS=6.14D-02 Max=1.67D+00 NDo=    12
 LinEq1:  Iter= 18 NonCon=    12 RMS=3.61D-02 Max=9.35D-01 NDo=    12
 LinEq1:  Iter= 19 NonCon=    12 RMS=3.02D-02 Max=5.62D-01 NDo=    12
 LinEq1:  Iter= 20 NonCon=    12 RMS=1.92D-02 Max=5.41D-01 NDo=    12
 LinEq1:  Iter= 21 NonCon=    12 RMS=1.13D-02 Max=3.53D-01 NDo=    12
 LinEq1:  Iter= 22 NonCon=    12 RMS=9.59D-03 Max=3.60D-01 NDo=    12
 LinEq1:  Iter= 23 NonCon=    12 RMS=8.33D-03 Max=3.05D-01 NDo=    12
 LinEq1:  Iter= 24 NonCon=    12 RMS=5.98D-03 Max=2.43D-01 NDo=    12
 LinEq1:  Iter= 25 NonCon=    12 RMS=5.12D-03 Max=1.70D-01 NDo=    12
 LinEq1:  Iter= 26 NonCon=    12 RMS=4.19D-03 Max=1.33D-01 NDo=    12
 LinEq1:  Iter= 27 NonCon=    12 RMS=2.41D-03 Max=5.66D-02 NDo=    12
 LinEq1:  Iter= 28 NonCon=    12 RMS=1.85D-03 Max=3.67D-02 NDo=    12
 LinEq1:  Iter= 29 NonCon=    12 RMS=1.01D-03 Max=1.74D-02 NDo=    12
 LinEq1:  Iter= 30 NonCon=    12 RMS=6.77D-04 Max=9.63D-03 NDo=    12
 LinEq1:  Iter= 31 NonCon=    12 RMS=3.76D-04 Max=5.73D-03 NDo=    12
 LinEq1:  Iter= 32 NonCon=    12 RMS=2.34D-04 Max=4.53D-03 NDo=    12
 LinEq1:  Iter= 33 NonCon=    12 RMS=1.53D-04 Max=3.71D-03 NDo=    12
 LinEq1:  Iter= 34 NonCon=    12 RMS=8.84D-05 Max=2.25D-03 NDo=    12
 LinEq1:  Iter= 35 NonCon=    12 RMS=4.12D-05 Max=1.22D-03 NDo=    12
 LinEq1:  Iter= 36 NonCon=    12 RMS=2.75D-05 Max=7.52D-04 NDo=    12
 LinEq1:  Iter= 37 NonCon=    12 RMS=1.52D-05 Max=4.31D-04 NDo=    12
 LinEq1:  Iter= 38 NonCon=    11 RMS=9.30D-06 Max=2.06D-04 NDo=    12
 LinEq1:  Iter= 39 NonCon=    10 RMS=7.23D-06 Max=1.80D-04 NDo=    12
 LinEq1:  Iter= 40 NonCon=     7 RMS=3.27D-06 Max=6.23D-05 NDo=    12
 LinEq1:  Iter= 41 NonCon=     4 RMS=1.59D-06 Max=3.04D-05 NDo=    12
 LinEq1:  Iter= 42 NonCon=     3 RMS=8.30D-07 Max=1.11D-05 NDo=    12
 LinEq1:  Iter= 43 NonCon=     3 RMS=5.21D-07 Max=8.65D-06 NDo=    12
 LinEq1:  Iter= 44 NonCon=     3 RMS=2.84D-07 Max=4.17D-06 NDo=    12
 LinEq1:  Iter= 45 NonCon=     3 RMS=1.75D-07 Max=3.21D-06 NDo=    12
 LinEq1:  Iter= 46 NonCon=     3 RMS=1.18D-07 Max=1.91D-06 NDo=    12
 LinEq1:  Iter= 47 NonCon=     2 RMS=5.72D-08 Max=9.12D-07 NDo=    12
 LinEq1:  Iter= 48 NonCon=     2 RMS=2.12D-08 Max=3.18D-07 NDo=    12
 LinEq1:  Iter= 49 NonCon=     1 RMS=8.57D-09 Max=1.34D-07 NDo=    12
 LinEq1:  Iter= 50 NonCon=     0 RMS=3.12D-09 Max=4.31D-08 NDo=    12
 Linear equations converged to 1.000D-08 1.000D-07 after    50 iterations.
 Isotropic polarizability for W=    0.000000     2450.39 Bohr**3.
 End of Minotr F.D. properties file   721 does not exist.
 End of Minotr F.D. properties file   722 does not exist.
 End of Minotr F.D. properties file   788 does not exist.

 **********************************************************************

            Population analysis using the SCF density.

 **********************************************************************

 Orbital symmetries:
       Occupied  (A) (A) (A) (A) (A) (A) (A) (A) (A) (A) (A) (A)
                 (A) (A) (A) (A) (A) (A) (A) (A) (A) (A) (A) (A)
                 (A) (A) (A) (A) (A) (A) (A) (A) (A) (A) (A) (A)
                 (A) (A) (A) (A) (A) (A) (A) (A) (A) (A) (A) (A)
                 (A) (A) (A) (A) (A) (A) (A) (A) (A) (A) (A) (A)
                 (A) (A) (A) (A) (A) (A) (A) (A) (A) (A) (A) (A)
                 (A) (A) (A) (A) (A) (A) (A) (A) (A) (A) (A) (A)
                 (A) (A) (A) (A) (A) (A) (A) (A) (A) (A) (A) (A)
                 (A) (A) (A) (A) (A) (A) (A) (A) (A) (A) (A) (A)
                 (A) (A) (A) (A) (A) (A) (A) (A) (A) (A) (A) (A)
                 (A) (A) (A) (A) (A) (A) (A) (A) (A) (A) (A) (A)
                 (A) (A) (A) (A) (A) (A) (A) (A) (A) (A) (A) (A)
                 (A) (A) (A) (A)
       Virtual   (A) (A) (A) (A) (A) (A) (A) (A) (A) (A) (A) (A)
                 (A) (A) (A) (A) (A) (A) (A) (A) (A) (A) (A) (A)
                 (A) (A) (A) (A) (A) (A) (A) (A) (A) (A) (A) (A)
                 (A) (A) (A) (A) (A) (A) (A) (A) (A) (A) (A) (A)
                 (A) (A) (A) (A) (A) (A) (A) (A) (A) (A) (A) (A)
                 (A) (A) (A) (A) (A) (A) (A) (A) (A) (A) (A) (A)
                 (A) (A) (A) (A) (A) (A) (A) (A) (A) (A) (A) (A)
                 (A) (A) (A) (A) (A) (A) (A) (A) (A) (A) (A) (A)
                 (A) (A) (A) (A) (A) (A) (A) (A) (A) (A) (A) (A)
                 (A) (A) (A) (A) (A) (A) (A) (A) (A) (A) (A) (A)
                 (A) (A) (A) (A) (A) (A) (A) (A) (A) (A) (A) (A)
                 (A) (A) (A)
 The electronic state is 1-A.
 Alpha  occ. eigenvalues --   -1.10303  -0.82207  -0.81702  -0.78742  -0.78738
 Alpha  occ. eigenvalues --   -0.78699  -0.78497  -0.78429  -0.78094  -0.78036
 Alpha  occ. eigenvalues --   -0.77970  -0.77790  -0.77718  -0.77697  -0.77680
 Alpha  occ. eigenvalues --   -0.77623  -0.77615  -0.77551  -0.77473  -0.77430
 Alpha  occ. eigenvalues --   -0.77100  -0.77053  -0.76774  -0.76699  -0.76521
 Alpha  occ. eigenvalues --   -0.75899  -0.75781  -0.75267  -0.75024  -0.74470
 Alpha  occ. eigenvalues --   -0.74378  -0.74294  -0.73789  -0.55674  -0.53661
 Alpha  occ. eigenvalues --   -0.52929  -0.52737  -0.52666  -0.51389  -0.51331
 Alpha  occ. eigenvalues --   -0.51092  -0.50844  -0.50596  -0.50256  -0.50026
 Alpha  occ. eigenvalues --   -0.49905  -0.49142  -0.48202  -0.47671  -0.47221
 Alpha  occ. eigenvalues --   -0.46766  -0.46248  -0.46121  -0.46030  -0.45518
 Alpha  occ. eigenvalues --   -0.45424  -0.44741  -0.44591  -0.44342  -0.43412
 Alpha  occ. eigenvalues --   -0.43216  -0.42684  -0.42642  -0.42372  -0.42296
 Alpha  occ. eigenvalues --   -0.42233  -0.41786  -0.41384  -0.40919  -0.40412
 Alpha  occ. eigenvalues --   -0.40177  -0.39762  -0.39702  -0.39525  -0.39117
 Alpha  occ. eigenvalues --   -0.38233  -0.37244  -0.36963  -0.36832  -0.36606
 Alpha  occ. eigenvalues --   -0.36000  -0.35491  -0.34340  -0.33443  -0.33302
 Alpha  occ. eigenvalues --   -0.32855  -0.32666  -0.32460  -0.32245  -0.32073
 Alpha  occ. eigenvalues --   -0.31982  -0.31897  -0.31599  -0.31463  -0.31176
 Alpha  occ. eigenvalues --   -0.31088  -0.30823  -0.30652  -0.30562  -0.30239
 Alpha  occ. eigenvalues --   -0.30020  -0.29854  -0.29811  -0.29721  -0.29462
 Alpha  occ. eigenvalues --   -0.29180  -0.28986  -0.28749  -0.28513  -0.28137
 Alpha  occ. eigenvalues --   -0.27986  -0.27955  -0.27562  -0.27539  -0.27225
 Alpha  occ. eigenvalues --   -0.27162  -0.27047  -0.26829  -0.26636  -0.26511
 Alpha  occ. eigenvalues --   -0.26136  -0.25931  -0.25690  -0.25533  -0.25145
 Alpha  occ. eigenvalues --   -0.25000  -0.24876  -0.24823  -0.24747  -0.24453
 Alpha  occ. eigenvalues --   -0.24378  -0.24243  -0.23755  -0.23635  -0.23458
 Alpha  occ. eigenvalues --   -0.23321  -0.22872  -0.22681  -0.22600  -0.21988
 Alpha  occ. eigenvalues --   -0.21535  -0.21398  -0.20692  -0.20635  -0.20332
 Alpha  occ. eigenvalues --   -0.19835  -0.19791  -0.19412
 Alpha virt. eigenvalues --   -0.08366  -0.08157  -0.07873  -0.07561  -0.07286
 Alpha virt. eigenvalues --   -0.07240  -0.06925  -0.06624  -0.06428  -0.06037
 Alpha virt. eigenvalues --   -0.05273  -0.04814  -0.04219  -0.04084  -0.03873
 Alpha virt. eigenvalues --   -0.03805  -0.03329  -0.02065  -0.01605  -0.00801
 Alpha virt. eigenvalues --   -0.00239  -0.00125   0.00082   0.00406   0.00723
 Alpha virt. eigenvalues --    0.01509   0.01836   0.01963   0.02953   0.03307
 Alpha virt. eigenvalues --    0.03602   0.03928   0.04618   0.04782   0.04881
 Alpha virt. eigenvalues --    0.05119   0.05520   0.05549   0.06340   0.06471
 Alpha virt. eigenvalues --    0.06752   0.07243   0.07461   0.07854   0.08053
 Alpha virt. eigenvalues --    0.08410   0.08823   0.09086   0.09260   0.09614
 Alpha virt. eigenvalues --    0.09732   0.09912   0.10305   0.10341   0.11052
 Alpha virt. eigenvalues --    0.11162   0.11171   0.11209   0.11737   0.11770
 Alpha virt. eigenvalues --    0.12251   0.12426   0.12528   0.12797   0.12936
 Alpha virt. eigenvalues --    0.13036   0.13350   0.13476   0.13521   0.13593
 Alpha virt. eigenvalues --    0.13707   0.14027   0.14519   0.14848   0.14894
 Alpha virt. eigenvalues --    0.14997   0.15173   0.15270   0.15600   0.15816
 Alpha virt. eigenvalues --    0.16040   0.16274   0.16375   0.16395   0.16558
 Alpha virt. eigenvalues --    0.16702   0.16917   0.17210   0.17656   0.17740
 Alpha virt. eigenvalues --    0.18195   0.18566   0.18928   0.19440   0.19539
 Alpha virt. eigenvalues --    0.19579   0.19684   0.20084   0.20428   0.21150
 Alpha virt. eigenvalues --    0.21185   0.21471   0.21602   0.21852   0.22010
 Alpha virt. eigenvalues --    0.22050   0.22320   0.22881   0.23006   0.23253
 Alpha virt. eigenvalues --    0.23728   0.23851   0.23925   0.24063   0.24121
 Alpha virt. eigenvalues --    0.24644   0.24989   0.25089   0.25480   0.26021
 Alpha virt. eigenvalues --    0.28406   0.30773   0.32285   0.36380   0.37867
 Alpha virt. eigenvalues --    0.38643   0.39356   0.41159   0.45214   0.46233
 Alpha virt. eigenvalues --    0.47958   0.49041   0.49586   0.50356   0.52285
          Condensed to atoms (all electrons):
 Mulliken charges:
               1
     1  Mo   0.108216
     2  Mo   0.119872
     3  Mo   0.042268
     4  Mo   0.145010
     5  Mo   0.028154
     6  Mo  -0.034204
     7  Mo   0.263649
     8  Mo  -0.346472
     9  Mo  -0.042244
    10  Mo  -0.417389
    11  Mo  -0.527946
    12  Mo   0.035160
    13  Mo   0.042621
    14  Mo   0.125761
    15  Mo   0.115044
    16  Se  -0.287628
    17  Se   0.035821
    18  Se  -0.031293
    19  Se   0.002092
    20  Se   0.020942
    21  Se  -0.021323
    22  Se   0.013429
    23  Se   0.152932
    24  Se   0.108960
    25  Se   0.052861
    26  Se   0.130245
    27  Se   0.082249
    28  Se  -0.016688
    29  Se   0.044107
    30  Se  -0.025321
    31  Se   0.103857
    32  Se  -0.020040
    33  Se   0.034377
    34  Se  -0.287591
    35  Se   0.027992
    36  Se   0.138929
    37  Se   0.140979
    38  Se   0.029624
    39  Se  -0.022845
    40  Se   0.051388
    41  Se   0.055055
    42  Se   0.055144
    43  Se  -0.020404
    44  Se   0.106691
    45  Se  -0.026580
    46  Se   0.053975
    47  Se   0.002736
    48  S   -0.318247
    49  H    0.238044
    50  H    0.230783
    51  Mo  -0.492751
 Sum of Mulliken charges =   0.00000
 Mulliken charges with hydrogens summed into heavy atoms:
               1
     1  Mo   0.108216
     2  Mo   0.119872
     3  Mo   0.042268
     4  Mo   0.145010
     5  Mo   0.028154
     6  Mo  -0.034204
     7  Mo   0.263649
     8  Mo  -0.346472
     9  Mo  -0.042244
    10  Mo  -0.417389
    11  Mo  -0.527946
    12  Mo   0.035160
    13  Mo   0.042621
    14  Mo   0.125761
    15  Mo   0.115044
    16  Se  -0.287628
    17  Se   0.035821
    18  Se  -0.031293
    19  Se   0.002092
    20  Se   0.020942
    21  Se  -0.021323
    22  Se   0.013429
    23  Se   0.152932
    24  Se   0.108960
    25  Se   0.052861
    26  Se   0.130245
    27  Se   0.082249
    28  Se  -0.016688
    29  Se   0.044107
    30  Se  -0.025321
    31  Se   0.103857
    32  Se  -0.020040
    33  Se   0.034377
    34  Se  -0.287591
    35  Se   0.027992
    36  Se   0.138929
    37  Se   0.140979
    38  Se   0.029624
    39  Se  -0.022845
    40  Se   0.051388
    41  Se   0.055055
    42  Se   0.055144
    43  Se  -0.020404
    44  Se   0.106691
    45  Se  -0.026580
    46  Se   0.053975
    47  Se   0.002736
    48  S    0.150581
    51  Mo  -0.492751
 Charge=              0.0000 electrons
 Dipole moment (field-independent basis, Debye):
    X=            -29.3946    Y=              0.5116    Z=             -0.6958  Tot=             29.4073
 N-N= 3.948752249861D+03 E-N=-7.604308782345D+03  KE=-1.724726525021D+02
  Exact polarizability:3571.252  20.0282719.443  -7.034  -1.4541060.476
 Approx polarizability:5508.154  -2.0773732.912   6.502   2.7063118.306
 Calling FoFJK, ICntrl=    100127 FMM=F ISym2X=0 I1Cent= 0 IOpClX= 0 NMat=1 NMatS=1 NMatT=0.
   48 atoms frozen in the vibrational analysis.
 ******    3 imaginary frequencies (negative Signs) ****** 
 Diagonal vibrational polarizability:
       48.2766731      40.5680129     220.8857316
 Harmonic frequencies (cm**-1), IR intensities (KM/Mole), Raman scattering
 activities (A**4/AMU), depolarization ratios for plane and unpolarized
 incident light, reduced masses (AMU), force constants (mDyne/A),
 and normal coordinates:
                      1                      2                      3
                      A                      A                      A
 Frequencies --   -647.4881              -220.8442              -102.0241
 Red. masses --      1.0380                 2.8067                10.5680
 Frc consts  --      0.2564                 0.0807                 0.0648
 IR Inten    --      2.3540                70.0012                11.4545
  Atom  AN      X      Y      Z        X      Y      Z        X      Y      Z
    48  16    -0.03   0.01   0.00     0.17  -0.10  -0.14     0.42   0.27   0.25
    49   1     0.54   0.67   0.07     0.29   0.05  -0.09     0.38   0.14  -0.14
    50   1     0.35  -0.37  -0.02     0.11   0.05   0.91     0.37   0.23  -0.56
                      4                      5                      6
                      A                      A                      A
 Frequencies --     45.1010               219.4298               801.8689
 Red. masses --      9.2566                 1.5059                 1.0480
 Frc consts  --      0.0111                 0.0427                 0.3970
 IR Inten    --     15.2582                58.1312               136.3782
  Atom  AN      X      Y      Z        X      Y      Z        X      Y      Z
    48  16    -0.07   0.41  -0.31    -0.05   0.04   0.11     0.01  -0.03   0.02
    49   1    -0.19   0.37   0.26     0.00   0.07  -0.13     0.25   0.28   0.62
    50   1    -0.20   0.60   0.30    -0.10   0.15   0.96    -0.50   0.47  -0.07
                      7                      8                      9
                      A                      A                      A
 Frequencies --    909.3615              2602.2845              2719.1184
 Red. masses --      1.0170                 1.0422                 1.0375
 Frc consts  --      0.4955                 4.1582                 4.5193
 IR Inten    --     33.4216                19.7762                29.9646
  Atom  AN      X      Y      Z        X      Y      Z        X      Y      Z
    48  16     0.01   0.01   0.01    -0.03   0.02   0.00    -0.02  -0.02   0.00
    49   1    -0.23  -0.26   0.78     0.76  -0.65   0.02    -0.05   0.03   0.00
    50   1     0.36  -0.33   0.18     0.03   0.05  -0.01     0.71   0.70  -0.05

 -------------------
 - Thermochemistry -
 -------------------
 Temperature   298.150 Kelvin.  Pressure   1.00000 Atm.
 Atom     1 has atomic number 42 and mass  97.90550
 Atom     2 has atomic number 42 and mass  97.90550
 Atom     3 has atomic number 42 and mass  97.90550
 Atom     4 has atomic number 42 and mass  97.90550
 Atom     5 has atomic number 42 and mass  97.90550
 Atom     6 has atomic number 42 and mass  97.90550
 Atom     7 has atomic number 42 and mass  97.90550
 Atom     8 has atomic number 42 and mass  97.90550
 Atom     9 has atomic number 42 and mass  97.90550
 Atom    10 has atomic number 42 and mass  97.90550
 Atom    11 has atomic number 42 and mass  97.90550
 Atom    12 has atomic number 42 and mass  97.90550
 Atom    13 has atomic number 42 and mass  97.90550
 Atom    14 has atomic number 42 and mass  97.90550
 Atom    15 has atomic number 42 and mass  97.90550
 Atom    16 has atomic number 34 and mass  79.91652
 Atom    17 has atomic number 34 and mass  79.91652
 Atom    18 has atomic number 34 and mass  79.91652
 Atom    19 has atomic number 34 and mass  79.91652
 Atom    20 has atomic number 34 and mass  79.91652
 Atom    21 has atomic number 34 and mass  79.91652
 Atom    22 has atomic number 34 and mass  79.91652
 Atom    23 has atomic number 34 and mass  79.91652
 Atom    24 has atomic number 34 and mass  79.91652
 Atom    25 has atomic number 34 and mass  79.91652
 Atom    26 has atomic number 34 and mass  79.91652
 Atom    27 has atomic number 34 and mass  79.91652
 Atom    28 has atomic number 34 and mass  79.91652
 Atom    29 has atomic number 34 and mass  79.91652
 Atom    30 has atomic number 34 and mass  79.91652
 Atom    31 has atomic number 34 and mass  79.91652
 Atom    32 has atomic number 34 and mass  79.91652
 Atom    33 has atomic number 34 and mass  79.91652
 Atom    34 has atomic number 34 and mass  79.91652
 Atom    35 has atomic number 34 and mass  79.91652
 Atom    36 has atomic number 34 and mass  79.91652
 Atom    37 has atomic number 34 and mass  79.91652
 Atom    38 has atomic number 34 and mass  79.91652
 Atom    39 has atomic number 34 and mass  79.91652
 Atom    40 has atomic number 34 and mass  79.91652
 Atom    41 has atomic number 34 and mass  79.91652
 Atom    42 has atomic number 34 and mass  79.91652
 Atom    43 has atomic number 34 and mass  79.91652
 Atom    44 has atomic number 34 and mass  79.91652
 Atom    45 has atomic number 34 and mass  79.91652
 Atom    46 has atomic number 34 and mass  79.91652
 Atom    47 has atomic number 34 and mass  79.91652
 Atom    48 has atomic number 16 and mass  31.97207
 Atom    49 has atomic number  1 and mass   1.00783
 Atom    50 has atomic number  1 and mass   1.00783
 Atom    51 has atomic number 42 and mass  97.90550
 Molecular mass:  4157.80438 amu.
 Principal axes and moments of inertia in atomic units:
                           1         2         3
     Eigenvalues --  ******************************
           X            1.00000   0.00009  -0.00036
           Y           -0.00009   1.00000  -0.00096
           Z            0.00036   0.00096   1.00000
 This molecule is an asymmetric top.
 Rotational symmetry number  1.
 Warning -- assumption of classical behavior for rotation
           may cause significant error
 Rotational temperatures (Kelvin)      0.00074     0.00027     0.00022
 Rotational constants (GHZ):           0.01534     0.00569     0.00466
    3 imaginary frequencies ignored.
 Zero-point vibrational energy      43646.7 (Joules/Mol)
                                   10.43182 (Kcal/Mol)
 Warning -- explicit consideration of   2 degrees of freedom as
           vibrations may cause significant error
 Vibrational temperatures:     64.89   315.71  1153.71  1308.37  3744.10
          (Kelvin)           3912.20
 
 Zero-point correction=                           0.016624 (Hartree/Particle)
 Thermal correction to Energy=                    0.020963
 Thermal correction to Enthalpy=                  0.021907
 Thermal correction to Gibbs Free Energy=        -0.026998
 Sum of electronic and zero-point Energies=             -5.280060
 Sum of electronic and thermal Energies=                -5.275721
 Sum of electronic and thermal Enthalpies=              -5.274777
 Sum of electronic and thermal Free Energies=           -5.323682
 
                     E (Thermal)             CV                S
                      KCal/Mol        Cal/Mol-Kelvin    Cal/Mol-Kelvin
 Total                   13.154             10.889            102.929
 Electronic               0.000              0.000              0.000
 Translational            0.889              2.981             50.829
 Rotational               0.889              2.981             44.774
 Vibrational             11.377              4.928              7.326
 Vibration     1          0.595              1.979              5.021
 Vibration     2          0.647              1.811              1.964
                       Q            Log10(Q)             Ln(Q)
 Total Bot       0.261903D+13         12.418141         28.593827
 Total V=0       0.116067D+21         20.064709         46.200700
 Vib (Bot)       0.182667D-06         -6.738340        -15.515601
 Vib (Bot)    1  0.458563D+01          0.661399          1.522927
 Vib (Bot)    2  0.901660D+00         -0.044957         -0.103518
 Vib (V=0)       0.809521D+01          0.908228          2.091272
 Vib (V=0)    1  0.511281D+01          0.708659          1.631748
 Vib (V=0)    2  0.153101D+01          0.184979          0.425930
 Electronic      0.100000D+01          0.000000          0.000000
 Translational   0.105378D+11         10.022751         23.078238
 Rotational      0.136060D+10          9.133730         21.031190
 ***** Axes restored to original set *****
 -------------------------------------------------------------------
 Center     Atomic                   Forces (Hartrees/Bohr)
 Number     Number              X              Y              Z
 -------------------------------------------------------------------
      1       42           0.000000000    0.000000000    0.000000000
      2       42           0.000000000    0.000000000    0.000000000
      3       42           0.000000000    0.000000000    0.000000000
      4       42           0.000000000    0.000000000    0.000000000
      5       42           0.000000000    0.000000000    0.000000000
      6       42           0.000000000    0.000000000    0.000000000
      7       42           0.000000000    0.000000000    0.000000000
      8       42           0.000000000    0.000000000    0.000000000
      9       42           0.000000000    0.000000000    0.000000000
     10       42           0.000000000    0.000000000    0.000000000
     11       42           0.000000000    0.000000000    0.000000000
     12       42           0.000000000    0.000000000    0.000000000
     13       42           0.000000000    0.000000000    0.000000000
     14       42           0.000000000    0.000000000    0.000000000
     15       42           0.000000000    0.000000000    0.000000000
     16       34           0.000000000    0.000000000    0.000000000
     17       34           0.000000000    0.000000000    0.000000000
     18       34           0.000000000    0.000000000    0.000000000
     19       34           0.000000000    0.000000000    0.000000000
     20       34           0.000000000    0.000000000    0.000000000
     21       34           0.000000000    0.000000000    0.000000000
     22       34           0.000000000    0.000000000    0.000000000
     23       34           0.000000000    0.000000000    0.000000000
     24       34           0.000000000    0.000000000    0.000000000
     25       34           0.000000000    0.000000000    0.000000000
     26       34           0.000000000    0.000000000    0.000000000
     27       34           0.000000000    0.000000000    0.000000000
     28       34           0.000000000    0.000000000    0.000000000
     29       34           0.000000000    0.000000000    0.000000000
     30       34           0.000000000    0.000000000    0.000000000
     31       34           0.000000000    0.000000000    0.000000000
     32       34           0.000000000    0.000000000    0.000000000
     33       34           0.000000000    0.000000000    0.000000000
     34       34           0.000000000    0.000000000    0.000000000
     35       34           0.000000000    0.000000000    0.000000000
     36       34           0.000000000    0.000000000    0.000000000
     37       34           0.000000000    0.000000000    0.000000000
     38       34           0.000000000    0.000000000    0.000000000
     39       34           0.000000000    0.000000000    0.000000000
     40       34           0.000000000    0.000000000    0.000000000
     41       34           0.000000000    0.000000000    0.000000000
     42       34           0.000000000    0.000000000    0.000000000
     43       34           0.000000000    0.000000000    0.000000000
     44       34           0.000000000    0.000000000    0.000000000
     45       34           0.000000000    0.000000000    0.000000000
     46       34           0.000000000    0.000000000    0.000000000
     47       34           0.000000000    0.000000000    0.000000000
     48       16          -0.049765233   -0.034571098   -0.068431813
     49        1           0.026042083   -0.002616362   -0.033057362
     50        1          -0.012908078    0.014113642   -0.012293608
     51       42           0.000000000    0.000000000    0.000000000
 -------------------------------------------------------------------
 Cartesian Forces:  Max     0.068431813 RMS     0.008342905

 GradGradGradGradGradGradGradGradGradGradGradGradGradGradGradGradGradGrad
 Berny optimization.
 Search for a local minimum.
 Step number   1 out of a maximum of    2
 All quantities printed in internal units (Hartrees-Bohrs-Radians)
 Second derivative matrix not updated -- analytic derivatives used.
 ITU=  0
     Eigenvalues ---   -0.03045  -0.01154  -0.00481   0.00069   0.00603
     Eigenvalues ---    0.03700   0.04132   0.52330   0.54047
 Eigenvalue     1 is  -3.04D-02 should be greater than     0.000000 Eigenvector:
                          Y49       X48       Z48       Y50       Z50
   1                    0.56891   0.48636  -0.34499  -0.32657   0.24578
                          X49       Z49       Y48       X50       Z6
   1                    0.24574  -0.24129  -0.14964  -0.11283   0.00000
 Eigenvalue     2 is  -1.15D-02 should be greater than     0.000000 Eigenvector:
                          Z48       Y49       X50       X49       Z50
   1                    0.55646   0.43738  -0.41688  -0.36105  -0.33141
                          Y50       Z49       Y48       X48       Z12
   1                   -0.22194  -0.11794  -0.10553  -0.10372   0.00000
 Eigenvalue     3 is  -4.81D-03 should be greater than     0.000000 Eigenvector:
                          Y49       Y50       Y48       Z48       X48
   1                    0.46542   0.45582   0.42181  -0.32033  -0.31527
                          X49       Z50       X50       Z49       Z6
   1                   -0.26701   0.25096  -0.21393   0.12508   0.00000
 Quadratic step=1.990D+01 exceeds max=3.000D-01 adjusted using Lamda=-2.542D-01.
 Angle between NR and scaled steps=  63.48 degrees.
 Angle between quadratic step and forces=  23.11 degrees.
 Linear search not attempted -- first point.
 Variable       Old X    -DE/DX   Delta X   Delta X   Delta X     New X
                                 (Linear)    (Quad)   (Total)
    X1       -0.15847   0.00000   0.00000   0.00000   0.00000  -0.15847
    Y1       -0.25751   0.00000   0.00000   0.00000   0.00000  -0.25751
    Z1        0.00000   0.00000   0.00000   0.00000   0.00000   0.00000
    X2        5.69263   0.00000   0.00000   0.00000   0.00000   5.69263
    Y2        0.23923   0.00000   0.00000   0.00000   0.00000   0.23923
    Z2       -1.36551   0.00000   0.00000   0.00000   0.00000  -1.36551
    X3       11.54373   0.00000   0.00000   0.00000   0.00000  11.54373
    Y3        0.73596   0.00000   0.00000   0.00000   0.00000   0.73596
    Z3       -2.73103   0.00000   0.00000   0.00000   0.00000  -2.73103
    X4       17.39482   0.00000   0.00000   0.00000   0.00000  17.39482
    Y4        1.23270   0.00000   0.00000   0.00000   0.00000   1.23270
    Z4       -4.09654   0.00000   0.00000   0.00000   0.00000  -4.09654
    X5       -3.70764   0.00000   0.00000   0.00000   0.00000  -3.70764
    Y5        4.61425   0.00000   0.00000   0.00000   0.00000   4.61425
    Z5       -0.12684   0.00000   0.00000   0.00000   0.00000  -0.12684
    X6       -7.25681   0.00000   0.00000   0.00000   0.00000  -7.25681
    Y6        9.48600   0.00000   0.00000   0.00000   0.00000   9.48600
    Z6       -0.25368   0.00000   0.00000   0.00000   0.00000  -0.25368
    X7      -10.80598   0.00000   0.00000   0.00000   0.00000 -10.80598
    Y7       14.35776   0.00000   0.00000   0.00000   0.00000  14.35776
    Z7       -0.38052   0.00000   0.00000   0.00000   0.00000  -0.38052
    X8       -1.40571   0.00000   0.00000   0.00000   0.00000  -1.40571
    Y8        9.98274   0.00000   0.00000   0.00000   0.00000   9.98274
    Z8       -1.61919   0.00000   0.00000   0.00000   0.00000  -1.61919
    X9       -4.95488   0.00000   0.00000   0.00000   0.00000  -4.95488
    Y9       14.85450   0.00000   0.00000   0.00000   0.00000  14.85450
    Z9       -1.74603   0.00000   0.00000   0.00000   0.00000  -1.74603
   X10        7.99456   0.00000   0.00000   0.00000   0.00000   7.99456
   Y10        5.60772   0.00000   0.00000   0.00000   0.00000   5.60772
   Z10       -2.85786   0.00000   0.00000   0.00000   0.00000  -2.85786
   X11        4.44539   0.00000   0.00000   0.00000   0.00000   4.44539
   Y11       10.47948   0.00000   0.00000   0.00000   0.00000  10.47948
   Z11       -2.98470   0.00000   0.00000   0.00000   0.00000  -2.98470
   X12        0.89622   0.00000   0.00000   0.00000   0.00000   0.89622
   Y12       15.35123   0.00000   0.00000   0.00000   0.00000  15.35123
   Z12       -3.11154   0.00000   0.00000   0.00000   0.00000  -3.11154
   X13       13.84565   0.00000   0.00000   0.00000   0.00000  13.84565
   Y13        6.10446   0.00000   0.00000   0.00000   0.00000   6.10446
   Z13       -4.22338   0.00000   0.00000   0.00000   0.00000  -4.22338
   X14       10.29648   0.00000   0.00000   0.00000   0.00000  10.29648
   Y14       10.97621   0.00000   0.00000   0.00000   0.00000  10.97621
   Z14       -4.35022   0.00000   0.00000   0.00000   0.00000  -4.35022
   X15        6.74731   0.00000   0.00000   0.00000   0.00000   6.74731
   Y15       15.84797   0.00000   0.00000   0.00000   0.00000  15.84797
   Z15       -4.47706   0.00000   0.00000   0.00000   0.00000  -4.47706
   X16      -13.36514   0.00000   0.00000   0.00000   0.00000 -13.36514
   Y16       16.37647   0.00000   0.00000   0.00000   0.00000  16.37647
   Z16        2.93402   0.00000   0.00000   0.00000   0.00000   2.93402
   X17       -7.46924   0.00000   0.00000   0.00000   0.00000  -7.46924
   Y17       16.83787   0.00000   0.00000   0.00000   0.00000  16.83787
   Z17        1.51048   0.00000   0.00000   0.00000   0.00000   1.51048
   X18       -1.61814   0.00000   0.00000   0.00000   0.00000  -1.61814
   Y18       17.33461   0.00000   0.00000   0.00000   0.00000  17.33461
   Z18        0.14496   0.00000   0.00000   0.00000   0.00000   0.14496
   X19        4.23295   0.00000   0.00000   0.00000   0.00000   4.23295
   Y19       17.83134   0.00000   0.00000   0.00000   0.00000  17.83134
   Z19       -1.22055   0.00000   0.00000   0.00000   0.00000  -1.22055
   X20       -9.77117   0.00000   0.00000   0.00000   0.00000  -9.77117
   Y20       11.46938   0.00000   0.00000   0.00000   0.00000  11.46938
   Z20        3.00283   0.00000   0.00000   0.00000   0.00000   3.00283
   X21       -6.22200   0.00000   0.00000   0.00000   0.00000  -6.22200
   Y21        6.59762   0.00000   0.00000   0.00000   0.00000   6.59762
   Z21        3.12967   0.00000   0.00000   0.00000   0.00000   3.12967
   X22       -2.67283   0.00000   0.00000   0.00000   0.00000  -2.67283
   Y22        1.72586   0.00000   0.00000   0.00000   0.00000   1.72586
   Z22        3.25651   0.00000   0.00000   0.00000   0.00000   3.25651
   X23       -3.92007   0.00000   0.00000   0.00000   0.00000  -3.92007
   Y23       11.96611   0.00000   0.00000   0.00000   0.00000  11.96611
   Z23        1.63732   0.00000   0.00000   0.00000   0.00000   1.63732
   X24       -0.37090   0.00000   0.00000   0.00000   0.00000  -0.37090
   Y24        7.09436   0.00000   0.00000   0.00000   0.00000   7.09436
   Z24        1.76416   0.00000   0.00000   0.00000   0.00000   1.76416
   X25        3.17827   0.00000   0.00000   0.00000   0.00000   3.17827
   Y25        2.22260   0.00000   0.00000   0.00000   0.00000   2.22260
   Z25        1.89099   0.00000   0.00000   0.00000   0.00000   1.89099
   X26        1.93103   0.00000   0.00000   0.00000   0.00000   1.93103
   Y26       12.46285   0.00000   0.00000   0.00000   0.00000  12.46285
   Z26        0.27180   0.00000   0.00000   0.00000   0.00000   0.27180
   X27        5.48020   0.00000   0.00000   0.00000   0.00000   5.48020
   Y27        7.59109   0.00000   0.00000   0.00000   0.00000   7.59109
   Z27        0.39864   0.00000   0.00000   0.00000   0.00000   0.39864
   X28        9.02937   0.00000   0.00000   0.00000   0.00000   9.02937
   Y28        2.71934   0.00000   0.00000   0.00000   0.00000   2.71934
[...]
 ,0.,0.,0.,0.,0.,0.,0.,0.,0.,0.,0.,0.,0.,0.,0.,0.,0.,0.,0.,0.,0.,0.,0.,
 0.,0.,0.,0.,0.,0.,0.,0.,0.,0.,0.,0.,0.,0.,0.,0.,0.,0.,0.,0.,0.,0.,0.,0
 .,0.,0.,0.,0.,0.,0.,0.,0.,0.,0.,0.,0.,0.,0.,0.,0.,0.,0.,0.,0.,0.,0.,0.
 ,0.,0.,0.,0.,0.,0.,0.,0.,0.,0.,0.,0.,0.,0.,0.,0.,0.,0.,0.,0.,0.,0.,0.,
 0.,0.,0.,0.,0.,0.,0.,0.,0.,0.,0.,0.,0.,0.,0.,0.,0.,0.,0.,0.,0.,0.,0.,0
 .,0.,0.,0.,0.,0.,0.,0.,0.,0.,0.,0.,0.,0.,0.,0.,0.,0.,0.,0.,0.,0.,0.,0.
 ,0.,0.,0.,0.,0.,0.,0.,0.,0.,0.,0.,0.,0.,0.,0.,0.,0.,0.,0.,0.,0.,0.,0.,
 0.,0.,0.,0.,0.,0.,0.,0.,0.,0.,0.,0.,0.,0.,0.,0.,0.,0.,0.,0.,0.,0.,0.,0
 .,0.,0.,0.,0.,0.,0.,0.,0.,0.,0.,0.,0.,0.,0.,0.,0.,0.,0.,0.,0.,0.,0.,0.
 ,0.,0.,0.,0.,0.,0.,0.,0.,0.,0.,0.,0.,0.,0.,0.,0.,0.,0.,0.,0.,0.,0.,0.,
 0.,0.,0.,0.,0.,0.,0.,0.,0.,0.,0.,0.,0.,0.,0.,0.,0.,0.,0.,0.,0.,0.,0.,0
 .,0.,0.,0.,0.,0.,0.,0.,0.,0.,0.,0.,0.,0.,0.,0.,0.,0.,0.,0.,0.,0.,0.,0.
 ,0.,0.,0.,0.,0.,0.,0.,0.,0.,0.,0.,0.,0.,0.,0.,0.,0.,0.,0.,0.,0.,0.,0.,
 0.,0.,0.,0.,0.,0.,0.,0.,0.,0.,0.,0.,0.,0.,0.,0.,0.,0.,0.,0.,0.,0.,0.,0
 .,0.,0.,0.,0.,0.,0.,0.,0.,0.,0.,0.,0.,0.,0.,0.,0.,0.,0.,0.,0.,0.,0.,0.
 ,0.,0.,0.,0.,0.,0.,0.,0.,0.,0.,0.,0.,0.,0.,0.,0.,0.,0.,0.,0.,0.,0.,0.,
 0.,0.,0.,0.,0.,0.,0.,0.,0.,0.,0.,0.,0.,0.,0.,0.,0.,0.,0.,0.,0.,0.,0.,0
 .,0.,0.,0.,0.,0.,0.,0.,0.,0.,0.,0.,0.,0.,0.,0.,0.,0.,0.,0.,0.,0.,0.,0.
 ,0.,0.,0.,0.,0.,0.,0.,0.,0.,0.,0.,0.,0.,0.,0.,0.,0.,0.,0.,0.,0.,0.,0.,
 0.,0.,0.,0.,0.,0.,0.,0.,0.,0.,0.,0.,0.,0.,0.,0.,0.,0.,0.,0.,0.,0.,0.,0
 .,0.,0.,0.,0.,0.,0.,0.,0.,0.,0.,0.,0.,0.,0.,0.,0.,0.,0.,0.,0.,0.,0.,0.
 ,0.,0.,0.,0.,0.,0.,0.,0.,0.,0.,0.,0.,0.,0.,0.,0.,0.,0.,0.,0.,0.,0.,0.,
 0.,0.,0.,0.,0.,0.,0.,0.,0.,0.,0.,0.,0.,0.,0.,0.,0.,0.,0.,0.,0.,0.,0.,0
 .,0.,0.,0.,0.,0.,0.,0.,0.,0.,0.,0.,0.,0.,0.,0.,0.,0.,0.,0.,0.,0.,0.,0.
 ,0.,0.,0.,0.,0.,0.,0.,0.,0.,0.,0.,0.,0.,0.,0.,0.,0.,0.,0.,0.,0.,0.,0.,
 0.,0.,0.,0.,0.,0.,0.,0.,0.,0.,0.,0.,0.,0.,0.,0.,0.,0.,0.,0.,0.,0.,0.,0
 .,0.,0.,0.,0.,0.,0.,0.,0.,0.,0.,0.,0.,0.,0.,0.,0.,0.,0.,0.,0.,0.,0.,0.
 ,0.,0.,0.,0.,0.,0.,0.,0.,0.,0.,0.,0.,0.,0.,0.,0.,0.,0.,0.,0.,0.,0.,0.,
 0.,0.,0.,0.,0.,0.,0.,0.,0.,0.,0.,0.,0.,0.,0.,0.,0.,0.,0.,0.,0.,0.,0.,0
 .,0.,0.,0.,0.,0.,0.,0.,0.,0.,0.,0.,0.,0.,0.,0.,0.,0.,0.,0.,0.,0.,0.,0.
 ,0.,0.,0.,0.,0.,0.,0.,0.,0.,0.,0.,0.,0.,0.,0.,0.,0.,0.,0.,0.,0.,0.,0.,
 0.,0.,0.,0.,0.,0.,0.,0.,0.,0.,0.,0.,0.,0.,0.,0.,0.,0.,0.,0.,0.,0.,0.,0
 .,0.,0.,0.,0.,0.,0.,0.,0.,0.,0.,0.,0.,0.,0.,0.,0.,0.,0.,0.,0.,0.,0.,0.
 ,0.,0.,0.,0.,0.,0.,0.,0.,0.,0.,0.,0.,0.,0.,0.,0.,0.,0.,0.,0.,0.,0.,0.,
 0.,0.,0.,0.,0.,0.,0.,0.,0.,0.,0.,0.,0.,0.,0.,0.,0.,0.,0.,0.,0.,0.,0.,0
 .,0.,0.,0.,0.,0.,0.,0.,0.,0.,0.,0.,0.,0.,0.,0.,0.,0.,0.,0.,0.,0.,0.,0.
 ,0.,0.,0.,0.,0.,0.,0.,0.,0.,0.,0.,0.,0.,0.,0.,0.,0.,0.,0.,0.,0.,0.,0.,
 0.,0.,0.,0.,0.,0.,0.,0.,0.,0.,0.,0.,0.,0.,0.,0.,0.,0.,0.,0.,0.,0.,0.,0
 .,0.,0.,0.,0.,0.,0.,0.,0.,0.,0.,0.,0.,0.,0.,0.,0.,0.,0.,0.,0.,0.,0.,0.
 ,0.,0.,0.,0.,0.,0.,0.,0.,0.,0.,0.,0.,0.,0.,0.,0.,0.,0.,0.,0.,0.,0.,0.,
 0.,0.,0.,0.,0.,0.,0.,0.,0.,0.,0.,0.,0.,0.,0.,0.,0.,0.,0.,0.,0.,0.,0.,0
 .,0.,0.,0.,0.,0.,0.,0.,0.,0.,0.,0.,0.,0.,0.,0.,0.,0.,0.,0.,0.,0.,0.,0.
 ,0.,0.,0.,0.,0.,0.,0.,0.,0.,0.,0.,0.,0.,0.,0.,0.,0.,0.,0.,0.,0.,0.,0.,
 0.,0.,0.,0.,0.,0.,0.,0.,0.,0.,0.,0.,0.,0.,0.,0.,0.,0.,0.,0.,0.,0.,0.,0
 .,0.,0.,0.,0.,0.,0.,0.,0.,0.,0.,0.,0.,0.,0.,0.,0.,0.,0.,0.,0.,0.,0.,0.
 ,0.,0.,0.,0.,0.,0.,0.,0.,0.,0.,0.,0.,0.,0.,0.,0.,0.,0.,0.,0.,0.,0.,0.,
 0.,0.,0.,0.,0.,0.,0.,0.,0.,0.,0.,0.,0.,0.,0.,0.,0.,0.,0.,0.,0.,0.,0.,0
 .,0.,0.,0.,0.,0.,0.,0.,0.,0.,0.,0.,0.,0.,0.,0.,0.,0.,0.,0.,0.,0.,0.,0.
 ,0.,0.,0.,0.,0.,0.,0.,0.,0.,0.,0.,0.,0.,0.,0.,0.,0.,0.,0.,0.,0.,0.,0.,
 0.,0.,0.,0.,0.,0.,0.,0.,0.,0.,0.,0.,0.,0.,0.,0.,0.,0.,0.,0.,0.,0.,0.,0
 .,0.,0.,0.,0.,0.,0.,0.,0.,0.,0.,0.,0.,0.,0.,0.,0.,0.,0.,0.,0.,0.,0.,0.
 ,0.,0.,0.,0.,0.,0.,0.,0.,0.,0.,0.,0.,0.,0.,0.,0.,0.,0.,0.,0.,0.,0.,0.,
 0.,0.,0.,0.,0.,0.,0.,0.,0.,0.,0.,0.,0.,0.,0.,0.,0.,0.,0.,0.,0.,0.,0.,0
 .,0.,0.,0.,0.,0.,0.,0.,0.,0.,0.,0.,0.,0.,0.,0.,0.,0.,0.,0.,0.,0.,0.,0.
 ,0.,0.,0.,0.,0.,0.,0.,0.,0.,0.,0.,0.,0.,0.,0.,0.,0.,0.,0.,0.,0.,0.,0.,
 0.,0.,0.,0.,0.,0.,0.,0.,0.,0.,0.,0.,0.,0.,0.,0.,0.,0.,0.,0.,0.,0.,0.,0
 .,0.,0.,0.,0.,0.,0.,0.,0.,0.,0.,0.,0.,0.,0.,0.,0.,0.,0.,0.,0.,0.,0.,0.
 ,0.,0.,0.,0.,0.,0.,0.,0.,0.,0.,0.,0.,0.,0.,0.,0.,0.,0.,0.,0.,0.,0.,0.,
 0.,0.,0.,0.,0.,0.,0.,0.,0.,0.,0.,0.,0.,0.,0.,0.,0.,0.,0.,0.,0.,0.,0.,0
 .,0.,0.,0.,0.,0.,0.,0.,0.,0.,0.,0.,0.,0.,0.,0.,0.,0.,0.,0.,0.,0.,0.,0.
 ,0.,0.,0.,0.,0.,0.,0.,0.,0.,0.,0.,0.,0.,0.,0.,0.,0.,0.,0.,0.,0.,0.,0.,
 0.,0.,0.,0.,0.,0.,0.,0.,0.,0.,0.,0.,0.,0.,0.,0.,0.,0.,0.,0.,0.,0.,0.,0
 .,0.,0.,0.,0.,0.,0.,0.,0.,0.,0.,0.,0.,0.,0.,0.,0.,0.,0.,0.,0.,0.,0.,0.
 ,0.,0.,0.,0.,0.,0.,0.,0.,0.,0.,0.,0.,0.,0.,0.,0.,0.,0.,0.,0.,0.,0.,0.,
 0.,0.,0.,0.,0.,0.,0.,0.,0.,0.,0.,0.,0.,0.,0.,0.,0.,0.,0.,0.,0.,0.,0.,0
 .,0.,0.,0.,0.,0.,0.,0.,0.,0.,0.,0.,0.,0.,0.,0.,0.,0.,0.,0.,0.,0.,0.,0.
 ,0.,0.,0.,0.,0.,0.,0.,0.,0.,0.,0.,0.,0.,0.,0.,0.,0.,0.,0.,0.,0.,0.,0.,
 0.,0.,0.,0.,0.,0.,0.,0.,0.,0.,0.,0.,0.,0.,0.,0.,0.,0.,0.,0.,0.,0.,0.,0
 .,0.,0.,0.,0.,0.,0.,0.,0.,0.,0.,0.,0.,0.,0.,0.,0.,0.,0.,0.,0.,0.,0.,0.
 ,0.,0.,0.,0.,0.,0.,0.,0.,0.,0.,0.,0.,0.,0.,0.,0.,0.,0.,0.,0.,0.,0.,0.,
 0.,0.,0.,0.,0.,0.,0.,0.,0.,0.,0.,0.,0.,0.,0.,0.,0.,0.,0.,0.,0.,0.,0.,0
 .,0.,0.,0.,0.,0.,0.,0.,0.,0.,0.,0.,0.,0.,0.,0.,0.,0.,0.,0.,0.,0.,0.,0.
 ,0.,0.,0.,0.,0.,0.,0.,0.,0.,0.,0.,0.,0.,0.,0.,0.,0.,0.,0.,0.,0.,0.,0.,
 0.,0.,0.,0.,0.,0.,0.,0.,0.,0.,0.,0.,0.,0.,0.,0.,0.,0.,0.,0.,0.,0.,0.,0
 .,0.,0.,0.,0.,0.,0.,0.,0.,0.,0.,0.,0.,0.,0.,0.,0.,0.,0.,0.,0.,0.,0.,0.
 ,0.,0.,0.,0.,0.,0.,0.,0.,0.,0.,0.,0.,0.,0.,0.,0.,0.,0.,0.,0.,0.,0.,0.,
 0.,0.,0.,0.,0.,0.,0.,0.,0.,0.,0.,0.,0.,0.,0.,0.,0.,0.,0.,0.,0.,0.,0.,0
 .,0.,0.,0.,0.,0.,0.,0.,0.,0.,0.,0.,0.,0.,0.,0.,0.,0.,0.,0.,0.,0.,0.,0.
 ,0.,0.,0.,0.,0.,0.,0.,0.,0.,0.,0.,0.,0.,0.,0.,0.,0.,0.,0.,0.,0.,0.,0.,
 0.,0.,0.,0.,0.,0.,0.,0.,0.,0.,0.,0.,0.,0.,0.,0.,0.,0.,0.,0.,0.,0.,0.,0
 .,0.,0.,0.,0.,0.,0.,0.,0.,0.,0.,0.,0.,0.,0.,0.,0.,0.,0.,0.,0.,0.,0.,0.
 ,0.,0.,0.,0.,0.,0.,0.,0.,0.,0.,0.,0.,0.,0.,0.,0.,0.,0.,0.,0.,0.,0.,0.,
 0.,0.,0.,0.,0.,0.,0.,0.,0.,0.,0.,0.,0.,0.,0.,0.,0.,0.,0.,0.,0.,0.,0.,0
 .,0.,0.,0.,0.,0.,0.,0.,0.,0.,0.,0.,0.,0.,0.,0.,0.,0.,0.,0.,0.,0.,0.,0.
 ,0.,0.,0.,0.,0.,0.,0.,0.,0.,0.,0.,0.,0.,0.,0.,0.,0.,0.,0.,0.,0.,0.,0.,
 0.,0.,0.,0.,0.,0.,0.,0.,0.,0.,0.,0.,0.,0.,0.,0.,0.,0.,0.,0.,0.,0.,0.,0
 .,0.,0.,0.,0.,0.,0.,0.,0.,0.,0.,0.,0.,0.,0.,0.,0.,0.,0.,0.,0.,0.,0.,0.
 ,0.,0.,0.,0.,0.,0.,0.,0.,0.,0.,0.,0.,0.,0.,0.,0.,0.,0.,0.,0.,0.,0.,0.,
 0.,0.,0.,0.,0.,0.,0.,0.,0.,0.,0.,0.,0.,0.,0.,0.,0.,0.,0.,0.,0.,0.,0.,0
 .,0.,0.,0.,0.,0.,0.,0.,0.,0.,0.,0.,0.,0.,0.,0.,0.,0.,0.,0.,0.,0.,0.,0.
 ,0.,0.,0.,0.,0.,0.,0.,0.,0.,0.,0.,0.,0.,0.,0.,0.,0.,0.,0.,0.,0.,0.,0.,
 0.,0.,0.,0.,0.,0.,0.,0.,0.,0.,0.,0.,0.,0.,0.,0.,0.,0.,0.,0.,0.,0.,0.,0
 .,0.,0.,0.,0.,0.,0.,0.,0.,0.,0.,0.,0.,0.,0.,0.,0.,0.,0.,0.,0.,0.,0.,0.
 ,0.,0.,0.,0.,0.,0.,0.,0.,0.,0.,0.,0.,0.,0.,0.,0.,0.,0.,0.,0.,0.,0.,0.,
 0.,0.,0.,0.,0.,0.,0.,0.,0.,0.,0.,0.,0.,0.,0.,0.,0.,0.,0.,0.,0.,0.,0.,0
 .,0.,0.,0.,0.,0.,0.,0.,0.,0.,0.,0.,0.,0.,0.,0.,0.,0.,0.,0.,0.,0.,0.,0.
 ,0.,0.,0.,0.,0.,0.,0.,0.,0.,0.,0.,0.,0.,0.,0.,0.,0.,0.,0.,0.,0.,0.,0.,
 0.,0.,0.,0.,0.,0.,0.,0.,0.,0.,0.,0.,0.,0.,0.,0.,0.,0.,0.,0.,0.,0.,0.,0
 .,0.,0.,0.,0.,0.,0.,0.,0.,0.,0.,0.,0.,0.,0.,0.,0.,0.,0.,0.,0.,0.,0.,0.
 ,0.,0.,0.,0.,0.,0.,0.,0.,0.,0.,0.,0.,0.,0.,0.,0.,0.,0.,0.,0.,0.,0.,0.,
 0.,0.,0.,0.,0.,0.,0.,0.,0.,0.,0.,0.,0.,0.,0.,0.,0.,0.,0.,0.,0.,0.,0.,0
 .,0.,0.,0.,0.,0.,0.,0.,0.,0.,0.,0.,0.,0.,0.,0.,0.,0.,0.,0.,0.,0.,0.,0.
 ,0.,0.,0.,0.,0.,0.,0.,0.,0.,0.,0.,0.,0.,0.,0.,0.,0.,0.,0.,0.,0.,0.,0.,
 0.,0.,0.,0.,0.,0.,0.,0.,0.,0.,0.,0.,0.,0.,0.,0.,0.,0.,0.,0.,0.,0.,0.,0
 .,0.,0.,0.,0.,0.,0.,0.,0.,0.,0.,0.,0.,0.,0.,0.,0.,0.,0.,0.,0.,0.,0.,0.
 ,0.,0.,0.,0.,0.,0.,0.,0.,0.,0.,0.,0.,0.,0.,0.,0.,0.,0.,0.,0.,0.,0.,0.,
 0.,0.,0.,0.,0.,0.,0.,0.,0.,0.,0.,0.,0.,0.,0.,0.,0.,0.,0.,0.,0.,0.,0.,0
 .,0.,0.,0.,0.,0.,0.,0.,0.,0.,0.,0.,0.,0.,0.,0.,0.,0.,0.,0.,0.,0.,0.,0.
 ,0.,0.,0.,0.,0.,0.,0.,0.,0.,0.,0.,0.,0.,0.,0.,0.,0.,0.,0.,0.,0.,0.,0.,
 0.,0.,0.,0.,0.,0.,0.,0.,0.,0.,0.,0.,0.,0.,0.,0.,0.,0.,0.,0.,0.,0.,0.,0
 .,0.,0.,0.,0.,0.,0.,0.,0.,0.,0.,0.,0.,0.,0.,0.,0.,0.,0.,0.,0.,0.,0.,0.
 ,0.,0.,0.,0.,0.,0.,0.,0.,0.,0.,0.,0.,0.,0.,0.,0.,0.,0.,0.,0.,0.,0.,0.,
 0.,0.,0.,0.,0.,0.,0.,0.,0.,0.,0.,0.,0.,0.,0.,0.,0.,0.,0.,0.,0.,0.,0.,0
 .,0.,0.,0.,0.,0.,0.,0.,0.,0.,0.,0.,0.,0.,0.,0.,0.,0.,0.,0.,0.,0.,0.,0.
 ,0.,0.,0.,0.,0.,0.,0.,0.,0.,0.,0.,0.,0.,0.,0.,0.,0.,0.,0.,0.,0.,0.,0.,
 0.,0.,0.,0.,0.,0.,0.,0.,0.,0.,0.,0.,0.,0.,0.,0.,0.,0.,0.,0.,0.,0.,0.,0
 .,0.,0.,0.,0.,0.,0.,0.,0.,0.,0.,0.,0.,0.,0.,0.,0.,0.,0.,0.,0.,0.,0.,0.
 ,0.,0.,0.,0.,0.,0.,0.,0.,0.,0.,0.,0.,0.,0.,0.,0.,0.,0.,0.,0.,0.,0.,0.,
 0.,0.,0.,0.,0.,0.,0.,0.,0.,0.,0.,0.,0.,0.,0.,0.,0.,0.,0.,0.,0.,0.,0.,0
 .,0.,0.,0.,0.,0.,0.,0.,0.,0.,0.,0.,0.,0.,0.,0.,0.,0.,0.,0.,0.,0.,0.,0.
 ,0.,0.,0.,0.,0.,0.,0.,0.,0.,0.,0.,0.,0.,0.,0.,0.,0.,0.,0.,0.,0.,0.,0.,
 0.,0.,0.,0.,0.,0.,0.,0.,0.,0.,0.,0.,0.,0.,0.,0.,0.,0.,0.,0.,0.,0.,0.,0
 .,0.,0.,0.,0.,0.,0.,0.,0.,0.,0.,0.,0.,0.,0.,0.,0.,0.,0.,0.,0.,0.,0.,0.
 ,0.,0.,0.,0.,0.,0.,0.,0.,0.,0.,0.,0.,0.,0.,0.,0.,0.,0.,0.,0.,0.,0.,0.,
 0.,0.,0.,0.,0.,0.,0.,0.,0.,0.,0.,0.,0.,0.,0.,0.,0.,0.,0.,0.,0.,0.,0.,0
 .,0.,0.,0.,0.,0.,0.,0.,0.,0.,0.,0.,0.,0.,0.,0.,0.,0.,0.,0.,0.,0.,0.,0.
 ,0.,0.,0.,0.,0.,0.,0.,0.,0.,0.,0.,0.,0.,0.,0.,0.,0.,0.,0.,0.,0.,0.,0.,
 0.,0.,0.,0.,0.,0.,0.,0.,0.,0.,0.,0.,0.,0.,0.,0.,0.,0.,0.,0.,0.,0.,0.,0
 .,0.,0.,0.,0.,0.,0.,0.,0.,0.,0.,0.,0.,0.,0.,0.,0.,0.,0.,0.,0.,0.,0.,0.
 ,0.,0.,0.,0.,0.,0.,0.,0.,0.,0.,0.,0.,0.,0.,0.,0.,0.,0.,0.,0.,0.,0.,0.,
 0.,0.,0.,0.,0.,0.,0.,0.,0.,0.,0.,0.,0.,0.,0.,0.,0.,0.,0.,0.,0.,0.,0.,0
 .,0.,0.,0.,0.,0.,0.,0.,0.,0.,0.,0.,0.,0.,0.,0.,0.,0.,0.,0.,0.,0.,0.,0.
 ,0.,0.,0.,0.,0.,0.,0.,0.,0.,0.,0.,0.,0.,0.,0.,0.,0.,0.,0.,0.,0.,0.,0.,
 0.,0.,0.,0.,0.,0.,0.,0.,0.,0.,0.,0.,0.,0.,0.,0.,0.,0.,0.,0.,0.,0.,0.,0
 .,0.,0.,0.,0.,0.,0.,0.,0.,0.,0.,0.,0.,0.,0.,0.,0.,0.,0.,0.,0.,0.,0.,0.
 ,0.,0.,0.,0.,0.,0.,0.,0.,0.,0.,0.,0.,0.,0.,0.,0.,0.,0.,0.,0.,0.,0.,0.,
 0.,0.,0.,0.,0.,0.,0.,0.,0.,0.,0.,0.,0.,0.,0.,0.,0.,0.,0.,0.,0.,0.,0.,0
 .,0.,0.,0.,0.,0.,0.,0.,0.,0.,0.,0.,0.,0.,0.,0.,0.,0.,0.,0.,0.,0.,0.,0.
 ,0.,0.,0.,0.,0.,0.,0.,0.,0.,0.,0.,0.,0.,0.,0.,0.,0.,0.,0.,0.,0.,0.,0.,
 0.,0.,0.,0.,0.,0.,0.,0.,0.,0.,0.,0.,0.,0.,0.,0.,0.,0.,0.,0.,0.,0.,0.,0
 .,0.,0.,0.,0.,0.,0.,0.,0.,0.,0.,0.,0.,0.,0.,0.,0.,0.,0.,0.,0.,0.,0.,0.
 ,0.,0.,0.,0.,0.,0.,0.,0.,0.,0.,0.,0.,0.,0.,0.,0.,0.,0.,0.,0.,0.,0.,0.,
 0.,0.,0.,0.,0.,0.,0.,0.,0.,0.,0.,0.,0.,0.,0.,0.,0.,0.,0.,0.,0.,0.,0.,0
 .,0.,0.,0.,0.,0.,0.,0.,0.,0.,0.,0.,0.,0.,0.,0.,0.,0.,0.,0.,0.,0.,0.,0.
 ,0.,0.,0.,0.,0.,0.,0.,0.,0.,0.,0.,0.,0.,0.,0.,0.,0.,0.,0.,0.,0.,0.,0.,
 0.,0.,0.,0.,0.,0.,0.,0.,0.,0.,0.,0.,0.,0.,0.,0.,0.,0.,0.,0.,0.,0.,0.,0
 .,0.,0.,0.,0.,0.,0.,0.,0.,0.,0.,0.,0.,0.,0.,0.,0.,0.,0.,0.,0.,0.,0.,0.
 ,0.,0.,0.,0.,0.,0.,0.,0.,0.,0.,0.,0.,0.,0.,0.,0.,0.,0.,0.,0.,0.,0.,0.,
 0.,0.,0.,0.,0.,0.,0.,0.,0.,0.,0.,0.,0.,0.,0.,0.,0.,0.,0.,0.,0.,0.,0.,0
 .,0.,0.,0.,0.,0.,0.,0.,0.,0.,0.,0.,0.,0.,0.,0.,0.,0.,0.,0.,0.,0.,0.,0.
 ,0.,0.,0.,0.,0.,0.,0.,0.,0.,0.,0.,0.,0.,0.,0.,0.,0.,0.,0.,0.,0.,0.,0.,
 0.,0.,0.,0.,0.,0.,0.,0.,0.,0.,0.,0.,0.,0.,0.,0.,0.,0.,0.,0.,0.,0.,0.,0
 .,0.,0.,0.,0.,0.,0.,0.,0.,0.,0.,0.,0.,0.,0.,0.,0.,0.,0.,0.,0.,0.,0.,0.
 ,0.,0.,0.,0.,0.,0.,0.,0.,0.,0.,0.,0.,0.,0.,0.,0.,0.,0.,0.,0.,0.,0.,0.,
 0.,0.,0.,0.,0.,0.,0.,0.,0.,0.,0.,0.,0.,0.,0.,0.,0.,0.,0.,0.,0.,0.,0.,0
 .,0.,0.,0.,0.,0.,0.,0.,0.,0.,0.,0.,0.,0.,0.,0.,0.,0.,0.,0.,0.,0.,0.,0.
 ,0.,0.,0.,0.,0.,0.,0.,0.,0.,0.,0.,0.,0.,0.,0.,0.,0.,0.,0.,0.,0.,0.,0.,
 0.,0.,0.,0.,0.,0.,0.,0.,0.,0.,0.,0.,0.,0.,0.,0.,0.,0.,0.,0.,0.,0.,0.,0
 .,0.,0.,0.,0.,0.,0.,0.,0.,0.,0.,0.,0.,0.,0.,0.,0.,0.,0.,0.,0.,0.,0.,0.
 ,0.,0.,0.,0.,0.,0.,0.,0.,0.,0.,0.,0.,0.,0.,0.,0.,0.,0.,0.,0.,0.,0.,0.,
 0.,0.,0.,0.,0.,0.,0.,0.,0.,0.,0.,0.,0.,0.,0.,0.,0.,0.,0.,0.,0.,0.,0.,0
 .,0.,0.,0.,0.,0.,0.,0.,0.,0.,0.,0.,0.,0.,0.,0.,0.,0.,0.,0.,0.,0.,0.,0.
 ,0.,0.,0.,0.,0.,0.,0.,0.,0.,0.,0.,0.,0.,0.,0.,0.,0.,0.,0.,0.,0.,0.,0.,
 0.,0.,0.,0.,0.,0.,0.,0.,0.,0.,0.,0.,0.,0.,0.,0.,0.,0.,0.,0.,0.,0.,0.,0
 .,0.,0.,0.,0.,0.,0.,0.,0.,0.,0.,0.,0.,0.,0.,0.,0.,0.,0.,0.,0.,0.,0.,0.
 ,0.,0.,0.,0.,0.,0.,0.,0.,0.,0.,0.,0.,0.,0.,0.,0.,0.,0.,0.,0.,0.,0.,0.,
 0.,0.,0.,0.,0.,0.,0.,0.,0.,0.,0.,0.,0.,0.,0.,0.,0.,0.,0.,0.,0.,0.,0.,0
 .,0.,0.,0.,0.,0.,0.,0.,0.,0.,0.,0.,0.,0.,0.,0.,0.,0.,0.,0.,0.,0.,0.,0.
 ,0.,0.,0.,0.,0.,0.,0.,0.,0.,0.,0.,0.,0.,0.,0.,0.,0.,0.,0.,0.,0.,0.,0.,
 0.,0.,0.,0.,0.,0.,0.,0.,0.,0.,0.,0.,0.,0.,0.,0.,0.,0.,0.,0.,0.,0.,0.,0
 .,0.,0.,0.,0.,0.,0.,0.,0.,0.,0.,0.,0.,0.,0.,0.,0.,0.,0.,0.,0.,0.,0.,0.
 ,0.,0.,0.,0.,0.,0.,0.,0.,0.,0.,0.,0.,0.,0.,0.,0.,0.,0.,0.,0.,0.,0.,0.,
 0.,0.,0.,0.,0.,0.,0.,0.,0.,0.,0.,0.,0.,0.,0.,0.,0.,0.,0.,0.,0.,0.,0.,0
 .,0.,0.,0.,0.,0.,0.,0.,0.,0.,0.,0.,0.,0.,0.,0.,0.,0.,0.,0.,0.,0.,0.,0.
 ,0.,0.,0.,0.,0.,0.,0.,0.,0.,0.,0.,0.,0.,0.,0.,0.,0.,0.,0.,0.,0.,0.,0.,
 0.,0.,0.,0.,0.,0.,0.,0.,0.,0.,0.,0.,0.,0.,0.,0.,0.,0.,0.,0.,0.,0.,0.,0
 .,0.,0.,0.,0.,0.,0.,0.,0.,0.,0.,0.,0.,0.,0.,0.,0.,0.,0.,0.,0.,0.,0.,0.
 ,0.,0.,0.,0.,0.,0.,0.,0.,0.,0.,0.,0.,0.,0.,0.,0.,0.,0.,0.,0.,0.,0.,0.,
 0.,0.,0.,0.,0.,0.,0.,0.,0.,0.,0.,0.,0.,0.,0.,0.,0.,0.,0.,0.,0.,0.,0.,0
 .,0.,0.,0.,0.,0.,0.,0.,0.,0.,0.,0.,0.,0.,0.,0.,0.,0.,0.,0.,0.,0.,0.,0.
 ,0.,0.,0.,0.,0.,0.,0.,0.,0.,0.,0.,0.,0.,0.,0.,0.,0.,0.,0.,0.,0.,0.,0.,
 0.,0.,0.,0.,0.,0.,0.,0.,0.,0.,0.,0.,0.,0.,0.,0.,0.,0.,0.,0.,0.,0.,0.,0
 .,0.,0.,0.,0.,0.,0.,0.,0.,0.,0.,0.,0.,0.,0.,0.,0.,0.,0.,0.,0.,0.,0.,0.
 ,0.,0.,0.,0.,0.,0.,0.,0.,0.,0.,0.,0.,0.,0.,0.,0.,0.,0.,0.,0.,0.,0.,0.,
 0.,0.,0.,0.,0.,0.,0.,0.,0.,0.,0.,0.,0.,0.,0.,0.,0.,0.,0.,0.,0.,0.,0.,0
 .,0.,0.,0.,0.,0.,0.,0.,0.,0.,0.,0.,0.,0.,0.,0.,0.,0.,0.,0.,0.,0.,0.,0.
 ,0.,0.,0.,0.,0.,0.,0.,0.,0.,0.,0.,0.,0.,0.,0.,0.,0.,0.,0.,0.,0.,0.,0.,
 0.,0.,0.,0.,0.,0.,0.,0.,0.,0.,0.,0.,0.,0.,0.,0.,0.,0.,0.,0.,0.,0.,0.,0
 .,0.,0.,0.,0.,0.,0.,0.,0.,0.,0.,0.,0.,0.26409007,0.,0.,0.,0.,0.,0.,0.,
 0.,0.,0.,0.,0.,0.,0.,0.,0.,0.,0.,0.,0.,0.,0.,0.,0.,0.,0.,0.,0.,0.,0.,0
 .,0.,0.,0.,0.,0.,0.,0.,0.,0.,0.,0.,0.,0.,0.,0.,0.,0.,0.,0.,0.,0.,0.,0.
 ,0.,0.,0.,0.,0.,0.,0.,0.,0.,0.,0.,0.,0.,0.,0.,0.,0.,0.,0.,0.,0.,0.,0.,
 0.,0.,0.,0.,0.,0.,0.,0.,0.,0.,0.,0.,0.,0.,0.,0.,0.,0.,0.,0.,0.,0.,0.,0
 .,0.,0.,0.,0.,0.,0.,0.,0.,0.,0.,0.,0.,0.,0.,0.,0.,0.,0.,0.,0.,0.,0.,0.
 ,0.,0.,0.,0.,0.,0.,0.,0.,0.,0.,0.,0.,0.,0.,0.,0.,0.,0.00973192,0.27288
 929,0.,0.,0.,0.,0.,0.,0.,0.,0.,0.,0.,0.,0.,0.,0.,0.,0.,0.,0.,0.,0.,0.,
 0.,0.,0.,0.,0.,0.,0.,0.,0.,0.,0.,0.,0.,0.,0.,0.,0.,0.,0.,0.,0.,0.,0.,0
 .,0.,0.,0.,0.,0.,0.,0.,0.,0.,0.,0.,0.,0.,0.,0.,0.,0.,0.,0.,0.,0.,0.,0.
 ,0.,0.,0.,0.,0.,0.,0.,0.,0.,0.,0.,0.,0.,0.,0.,0.,0.,0.,0.,0.,0.,0.,0.,
 0.,0.,0.,0.,0.,0.,0.,0.,0.,0.,0.,0.,0.,0.,0.,0.,0.,0.,0.,0.,0.,0.,0.,0
 .,0.,0.,0.,0.,0.,0.,0.,0.,0.,0.,0.,0.,0.,0.,0.,0.,0.,0.,0.,0.,0.,0.,0.
 ,0.,0.,-0.01083562,-0.00216162,0.00201915,0.,0.,0.,0.,0.,0.,0.,0.,0.,0
 .,0.,0.,0.,0.,0.,0.,0.,0.,0.,0.,0.,0.,0.,0.,0.,0.,0.,0.,0.,0.,0.,0.,0.
 ,0.,0.,0.,0.,0.,0.,0.,0.,0.,0.,0.,0.,0.,0.,0.,0.,0.,0.,0.,0.,0.,0.,0.,
 0.,0.,0.,0.,0.,0.,0.,0.,0.,0.,0.,0.,0.,0.,0.,0.,0.,0.,0.,0.,0.,0.,0.,0
 .,0.,0.,0.,0.,0.,0.,0.,0.,0.,0.,0.,0.,0.,0.,0.,0.,0.,0.,0.,0.,0.,0.,0.
 ,0.,0.,0.,0.,0.,0.,0.,0.,0.,0.,0.,0.,0.,0.,0.,0.,0.,0.,0.,0.,0.,0.,0.,
 0.,0.,0.,0.,0.,0.,0.,0.,0.,0.,0.,0.,0.,0.,0.,-0.22774145,-0.06606356,0
 .02895298,0.22019576,0.,0.,0.,0.,0.,0.,0.,0.,0.,0.,0.,0.,0.,0.,0.,0.,0
 .,0.,0.,0.,0.,0.,0.,0.,0.,0.,0.,0.,0.,0.,0.,0.,0.,0.,0.,0.,0.,0.,0.,0.
 ,0.,0.,0.,0.,0.,0.,0.,0.,0.,0.,0.,0.,0.,0.,0.,0.,0.,0.,0.,0.,0.,0.,0.,
 0.,0.,0.,0.,0.,0.,0.,0.,0.,0.,0.,0.,0.,0.,0.,0.,0.,0.,0.,0.,0.,0.,0.,0
 .,0.,0.,0.,0.,0.,0.,0.,0.,0.,0.,0.,0.,0.,0.,0.,0.,0.,0.,0.,0.,0.,0.,0.
 ,0.,0.,0.,0.,0.,0.,0.,0.,0.,0.,0.,0.,0.,0.,0.,0.,0.,0.,0.,0.,0.,0.,0.,
 0.,0.,0.,0.,0.,0.,0.,0.,-0.07996713,-0.02436681,0.01231527,0.06353847,
 0.01487795,0.,0.,0.,0.,0.,0.,0.,0.,0.,0.,0.,0.,0.,0.,0.,0.,0.,0.,0.,0.
 ,0.,0.,0.,0.,0.,0.,0.,0.,0.,0.,0.,0.,0.,0.,0.,0.,0.,0.,0.,0.,0.,0.,0.,
 0.,0.,0.,0.,0.,0.,0.,0.,0.,0.,0.,0.,0.,0.,0.,0.,0.,0.,0.,0.,0.,0.,0.,0
 .,0.,0.,0.,0.,0.,0.,0.,0.,0.,0.,0.,0.,0.,0.,0.,0.,0.,0.,0.,0.,0.,0.,0.
 ,0.,0.,0.,0.,0.,0.,0.,0.,0.,0.,0.,0.,0.,0.,0.,0.,0.,0.,0.,0.,0.,0.,0.,
 0.,0.,0.,0.,0.,0.,0.,0.,0.,0.,0.,0.,0.,0.,0.,0.,0.,0.,0.,0.,0.,0.,0.,0
 .,0.,0.,0.,0.,0.07329749,0.01907047,0.00355411,-0.04903990,-0.00622498
 ,0.03807725,0.,0.,0.,0.,0.,0.,0.,0.,0.,0.,0.,0.,0.,0.,0.,0.,0.,0.,0.,0
 .,0.,0.,0.,0.,0.,0.,0.,0.,0.,0.,0.,0.,0.,0.,0.,0.,0.,0.,0.,0.,0.,0.,0.
 ,0.,0.,0.,0.,0.,0.,0.,0.,0.,0.,0.,0.,0.,0.,0.,0.,0.,0.,0.,0.,0.,0.,0.,
 0.,0.,0.,0.,0.,0.,0.,0.,0.,0.,0.,0.,0.,0.,0.,0.,0.,0.,0.,0.,0.,0.,0.,0
 .,0.,0.,0.,0.,0.,0.,0.,0.,0.,0.,0.,0.,0.,0.,0.,0.,0.,0.,0.,0.,0.,0.,0.
 ,0.,0.,0.,0.,0.,0.,0.,0.,0.,0.,0.,0.,0.,0.,0.,0.,0.,0.,0.,0.,0.,0.,0.,
 0.,0.,0.,0.,0.,-0.03276832,0.06998855,0.00146308,-0.00872701,0.0165112
 6,0.00104661,0.04829385,0.,0.,0.,0.,0.,0.,0.,0.,0.,0.,0.,0.,0.,0.,0.,0
 .,0.,0.,0.,0.,0.,0.,0.,0.,0.,0.,0.,0.,0.,0.,0.,0.,0.,0.,0.,0.,0.,0.,0.
 ,0.,0.,0.,0.,0.,0.,0.,0.,0.,0.,0.,0.,0.,0.,0.,0.,0.,0.,0.,0.,0.,0.,0.,
 0.,0.,0.,0.,0.,0.,0.,0.,0.,0.,0.,0.,0.,0.,0.,0.,0.,0.,0.,0.,0.,0.,0.,0
 .,0.,0.,0.,0.,0.,0.,0.,0.,0.,0.,0.,0.,0.,0.,0.,0.,0.,0.,0.,0.,0.,0.,0.
 ,0.,0.,0.,0.,0.,0.,0.,0.,0.,0.,0.,0.,0.,0.,0.,0.,0.,0.,0.,0.,0.,0.,0.,
 0.,0.,0.,0.,0.,0.,0.,0.,0.,0.08634284,-0.24417424,-0.00197619,-0.00025
 032,0.00341909,0.00022164,-0.08562071,0.24053607,0.,0.,0.,0.,0.,0.,0.,
 0.,0.,0.,0.,0.,0.,0.,0.,0.,0.,0.,0.,0.,0.,0.,0.,0.,0.,0.,0.,0.,0.,0.,0
 .,0.,0.,0.,0.,0.,0.,0.,0.,0.,0.,0.,0.,0.,0.,0.,0.,0.,0.,0.,0.,0.,0.,0.
 ,0.,0.,0.,0.,0.,0.,0.,0.,0.,0.,0.,0.,0.,0.,0.,0.,0.,0.,0.,0.,0.,0.,0.,
 0.,0.,0.,0.,0.,0.,0.,0.,0.,0.,0.,0.,0.,0.,0.,0.,0.,0.,0.,0.,0.,0.,0.,0
 .,0.,0.,0.,0.,0.,0.,0.,0.,0.,0.,0.,0.,0.,0.,0.,0.,0.,0.,0.,0.,0.,0.,0.
 ,0.,0.,0.,0.,0.,0.,0.,0.,0.,0.,0.,0.,0.,0.,0.,0.,0.,-0.00767107,0.0112
 6031,0.00977478,0.00091865,-0.00173561,0.00304326,0.00342489,-0.008989
 37,0.00102528,0.,0.,0.,0.,0.,0.,0.,0.,0.,0.,0.,0.,0.,0.,0.,0.,0.,0.,0.
 ,0.,0.,0.,0.,0.,0.,0.,0.,0.,0.,0.,0.,0.,0.,0.,0.,0.,0.,0.,0.,0.,0.,0.,
 0.,0.,0.,0.,0.,0.,0.,0.,0.,0.,0.,0.,0.,0.,0.,0.,0.,0.,0.,0.,0.,0.,0.,0
 .,0.,0.,0.,0.,0.,0.,0.,0.,0.,0.,0.,0.,0.,0.,0.,0.,0.,0.,0.,0.,0.,0.,0.
 ,0.,0.,0.,0.,0.,0.,0.,0.,0.,0.,0.,0.,0.,0.,0.,0.,0.,0.,0.,0.,0.,0.,0.,
 0.,0.,0.,0.,0.,0.,0.,0.,0.,0.,0.,0.,0.,0.,0.,0.,0.,0.,0.,0.,0.,0.,0.,0
 .,0.,0.,0.,0.,0.,0.,0.,0.,0.,0.,0.,0.,0.,0.,0.,0.,0.,0.,0.,0.,0.,0.,0.
 ,0.,0.,0.,0.,0.,0.,0.,0.,0.,0.,0.,0.,0.,0.,0.,0.,0.,0.,0.,0.,0.,0.,0.,
 0.,0.,0.,0.,0.,0.,0.,0.,0.,0.,0.,0.,0.,0.,0.,0.,0.,0.,0.,0.,0.,0.,0.,0
 .,0.,0.,0.,0.,0.,0.,0.,0.,0.,0.,0.,0.,0.,0.,0.,0.,0.,0.,0.,0.,0.,0.,0.
 ,0.,0.,0.,0.,0.,0.,0.,0.,0.,0.,0.,0.,0.,0.,0.,0.,0.,0.,0.,0.,0.,0.,0.,
 0.,0.,0.,0.,0.,0.,0.,0.,0.,0.,0.,0.,0.,0.,0.,0.,0.,0.,0.,0.,0.,0.,0.,0
 .,0.,0.,0.,0.,0.,0.,0.,0.,0.,0.,0.,0.,0.,0.,0.,0.,0.,0.,0.,0.,0.,0.,0.
 ,0.,0.,0.,0.,0.,0.,0.,0.,0.,0.,0.,0.,0.,0.,0.,0.,0.,0.,0.,0.,0.,0.,0.,
 0.,0.,0.,0.,0.,0.,0.,0.,0.,0.,0.,0.,0.,0.,0.,0.,0.,0.,0.,0.,0.,0.,0.,0
 .,0.,0.,0.,0.,0.,0.,0.,0.,0.,0.,0.,0.,0.,0.,0.,0.,0.,0.,0.,0.,0.,0.,0.
 ,0.,0.,0.,0.,0.,0.,0.,0.,0.,0.,0.,0.,0.,0.,0.,0.,0.,0.,0.,0.,0.,0.,0.,
 0.,0.,0.,0.,0.,0.,0.,0.,0.,0.,0.,0.,0.,0.,0.,0.,0.,0.,0.,0.,0.,0.,0.,0
 .,0.,0.,0.,0.,0.,0.,0.,0.,0.,0.,0.,0.,0.,0.,0.,0.,0.,0.,0.,0.,0.,0.,0.
 ,0.,0.,0.,0.,0.,0.,0.,0.,0.,0.,0.,0.,0.,0.,0.,0.,0.||0.,0.,0.,0.,0.,0.
 ,0.,0.,0.,0.,0.,0.,0.,0.,0.,0.,0.,0.,0.,0.,0.,0.,0.,0.,0.,0.,0.,0.,0.,
 0.,0.,0.,0.,0.,0.,0.,0.,0.,0.,0.,0.,0.,0.,0.,0.,0.,0.,0.,0.,0.,0.,0.,0
 .,0.,0.,0.,0.,0.,0.,0.,0.,0.,0.,0.,0.,0.,0.,0.,0.,0.,0.,0.,0.,0.,0.,0.
 ,0.,0.,0.,0.,0.,0.,0.,0.,0.,0.,0.,0.,0.,0.,0.,0.,0.,0.,0.,0.,0.,0.,0.,
 0.,0.,0.,0.,0.,0.,0.,0.,0.,0.,0.,0.,0.,0.,0.,0.,0.,0.,0.,0.,0.,0.,0.,0
 .,0.,0.,0.,0.,0.,0.,0.,0.,0.,0.,0.,0.,0.,0.,0.,0.,0.,0.,0.04976523,0.0
 3457110,0.06843181,-0.02604208,0.00261636,0.03305736,0.01290808,-0.014
 11364,0.01229361,0.,0.,0.|||@


 EVANS BOLDLY PUT 50 ATM. OF ETHYLENE IN A CELL WITH 25 ATM. OF OXYGEN.
 THE APPARATUS SUBSEQUENTLY BLEW UP, BUT LUCKILY NOT BEFORE HE
 OBTAINED THE SPECTRA SHOWN IN FIGURE 8.
 A.J.MERER AND R.S.MULLIKEN, CHEM.REV. 69, 645 (1969)
 Job cpu time:       0 days  0 hours  2 minutes  3.0 seconds.
 File lengths (MBytes):  RWF=    640 Int=      0 D2E=      0 Chk=      6 Scr=      1
 Normal termination of Gaussian 09 at Sun Jan 05 14:01:33 2025.
