 Entering Link 1 = C:\Gaussian\G09W\l1.exe PID=     28588.
  
 Copyright (c) 1988,1990,1992,1993,1995,1998,2003,2009,2013,
            Gaussian, Inc.  All Rights Reserved.
  
 This is part of the Gaussian(R) 09 program.  It is based on
 the Gaussian(R) 03 system (copyright 2003, Gaussian, Inc.),
 the Gaussian(R) 98 system (copyright 1998, Gaussian, Inc.),
 the Gaussian(R) 94 system (copyright 1995, Gaussian, Inc.),
 the Gaussian 92(TM) system (copyright 1992, Gaussian, Inc.),
 the Gaussian 90(TM) system (copyright 1990, Gaussian, Inc.),
 the Gaussian 88(TM) system (copyright 1988, Gaussian, Inc.),
 the Gaussian 86(TM) system (copyright 1986, Carnegie Mellon
 University), and the Gaussian 82(TM) system (copyright 1983,
 Carnegie Mellon University). Gaussian is a federally registered
 trademark of Gaussian, Inc.
  
 This software contains proprietary and confidential information,
 including trade secrets, belonging to Gaussian, Inc.
  
 This software is provided under written license and may be
 used, copied, transmitted, or stored only in accord with that
 written license.
  
 The following legend is applicable only to US Government
 contracts under FAR:
  
                    RESTRICTED RIGHTS LEGEND
  
 Use, reproduction and disclosure by the US Government is
 subject to restrictions as set forth in subparagraphs (a)
 and (c) of the Commercial Computer Software - Restricted
 Rights clause in FAR 52.227-19.
  
 Gaussian, Inc.
 340 Quinnipiac St., Bldg. 40, Wallingford CT 06492
  
  
 ---------------------------------------------------------------
 Warning -- This program may not be used in any manner that
 competes with the business of Gaussian, Inc. or will provide
 assistance to any competitor of Gaussian, Inc.  The licensee
 of this program is prohibited from giving any competitor of
 Gaussian, Inc. access to this program.  By using this program,
 the user acknowledges that Gaussian, Inc. is engaged in the
 business of creating and licensing software in the field of
 computational chemistry and represents and warrants to the
 licensee that it is not a competitor of Gaussian, Inc. and that
 it will not use this program in any manner prohibited above.
 ---------------------------------------------------------------
  

 Cite this work as:
 Gaussian 09, Revision D.01,
 M. J. Frisch, G. W. Trucks, H. B. Schlegel, G. E. Scuseria, 
 M. A. Robb, J. R. Cheeseman, G. Scalmani, V. Barone, B. Mennucci, 
 G. A. Petersson, H. Nakatsuji, M. Caricato, X. Li, H. P. Hratchian, 
 A. F. Izmaylov, J. Bloino, G. Zheng, J. L. Sonnenberg, M. Hada, 
 M. Ehara, K. Toyota, R. Fukuda, J. Hasegawa, M. Ishida, T. Nakajima, 
 Y. Honda, O. Kitao, H. Nakai, T. Vreven, J. A. Montgomery, Jr., 
 J. E. Peralta, F. Ogliaro, M. Bearpark, J. J. Heyd, E. Brothers, 
 K. N. Kudin, V. N. Staroverov, T. Keith, R. Kobayashi, J. Normand, 
 K. Raghavachari, A. Rendell, J. C. Burant, S. S. Iyengar, J. Tomasi, 
 M. Cossi, N. Rega, J. M. Millam, M. Klene, J. E. Knox, J. B. Cross, 
 V. Bakken, C. Adamo, J. Jaramillo, R. Gomperts, R. E. Stratmann, 
 O. Yazyev, A. J. Austin, R. Cammi, C. Pomelli, J. W. Ochterski, 
 R. L. Martin, K. Morokuma, V. G. Zakrzewski, G. A. Voth, 
 P. Salvador, J. J. Dannenberg, S. Dapprich, A. D. Daniels, 
 O. Farkas, J. B. Foresman, J. V. Ortiz, J. Cioslowski, 
 and D. J. Fox, Gaussian, Inc., Wallingford CT, 2013.
 
 ******************************************
 Gaussian 09:  IA32W-G09RevD.01 24-Apr-2013
                10-Mar-2026 
 ******************************************
 %chk=C:\Users\User\Desktop\IMRG\ECE+ML\Pristine_MoSe2_semi_empirical_freq.chk
 ------------------------------------------------
 # freq pm6 guess=huckel scf=qc geom=connectivity
 ------------------------------------------------
 1/10=4,30=1,38=1,57=2/1,3;
 2/12=2,17=6,18=5,40=1/2;
 3/5=2,16=1,25=1,41=3900000,71=2,140=1/1,2,3;
 4/11=4,35=1/1;
 5/5=2,8=3,35=1,38=5,98=1/8;
 8/6=4,10=90,11=11/1;
 11/6=1,8=1,9=11,15=111,16=1/1,2,10;
 10/6=1/2;
 6/7=2,8=2,9=2,10=2,18=1,28=1/1;
 7/8=1,10=1,25=1/1,2,3,16;
 1/10=4,30=1/3;
 99//99;
 ----------------------------------
 Pristine_MoSe2_semi_empirical_freq
 ----------------------------------
 Symbolic Z-matrix:
 Charge =  0 Multiplicity = 1
 Mo                   -1    0.        4.78547   1.15105 
 Mo                   -1    0.        3.19032   3.91394 
 Mo                   -1    0.        1.59516   6.67684 
 Mo                   -1    0.        0.        9.43973 
 Mo                   -1    0.        3.19032  -1.61184 
 Mo                   -1    0.        1.59519  -4.37476 
 Mo                   -1    0.        0.       -7.13761 
 Mo                   -1    0.        0.       -1.61184 
 Mo                   -1    0.       -1.59519  -4.37476 
 Mo                   -1    0.        0.        3.91394 
 Mo                   -1    0.       -1.59516   1.15105 
 Mo                   -1    0.       -3.19032  -1.61184 
 Mo                   -1    0.       -1.59516   6.67684 
 Mo                   -1    0.       -3.19032   3.91394 
 Mo                   -1    0.       -4.78547   1.15105 
 Se                   0     1.19514   0.       -9.30057 
 Se                   -1    1.56488  -1.59516  -6.21667 
 Se                   -1    1.56488  -3.19032  -3.45377 
 Se                   -1    1.56488  -4.78547  -0.69088 
 Se                   -1    1.56488   1.59516  -6.21667 
 Se                   -1    1.56488   3.19032  -3.45377 
 Se                   -1    1.56488   4.78547  -0.69088 
 Se                   -1    1.56488   0.       -3.45377 
 Se                   -1    1.56488   1.59516  -0.69088 
 Se                   -1    1.56488   3.19032   2.07201 
 Se                   -1    1.56488  -1.59516  -0.69088 
 Se                   -1    1.56488   0.        2.07201 
 Se                   -1    1.56488   1.59516   4.83491 
 Se                   -1    1.56488  -3.19032   2.07201 
 Se                   -1    1.56488  -1.59516   4.83491 
 Se                   -1    1.56488   0.        7.5978 
 Se                   -1   -1.56488   3.19032  -3.45377 
 Se                   -1   -1.56488   1.59516  -6.21667 
 Se                   0    -1.19514   0.       -9.30057 
 Se                   -1   -1.56488   4.78547  -0.69088 
 Se                   -1   -1.56488   1.59516  -0.69088 
 Se                   -1   -1.56488   0.       -3.45377 
 Se                   -1   -1.56488  -1.59516  -6.21667 
 Se                   -1   -1.56488  -3.19032  -3.45377 
 Se                   -1   -1.56488  -1.59516  -0.69088 
 Se                   -1   -1.56488   0.        2.07201 
 Se                   -1   -1.56488   3.19032   2.07201 
 Se                   -1   -1.56488   1.59516   4.83491 
 Se                   -1   -1.56488   0.        7.5978 
 Se                   -1   -1.56488  -1.59516   4.83491 
 Se                   -1   -1.56488  -3.19032   2.07201 
 Se                   -1   -1.56488  -4.78547  -0.69088 
 Mo                   -1    0.        1.59516   1.15105 
 

 GradGradGradGradGradGradGradGradGradGradGradGradGradGradGradGradGradGrad
 Berny optimization.
 Initialization pass.
 Trust Radius=3.00D-01 FncErr=1.00D-07 GrdErr=1.00D-07
 Number of steps in this run=      2 maximum allowed number of steps=      2.
 GradGradGradGradGradGradGradGradGradGradGradGradGradGradGradGradGradGrad

                          Input orientation:                          
 ---------------------------------------------------------------------
 Center     Atomic      Atomic             Coordinates (Angstroms)
 Number     Number       Type             X           Y           Z
 ---------------------------------------------------------------------
      1         42           0        0.000000    4.785474    1.151050
      2         42           0        0.000000    3.190316    3.913945
      3         42           0        0.000000    1.595158    6.676840
      4         42           0        0.000000    0.000000    9.439735
      5         42           0        0.000000    3.190316   -1.611845
      6         42           0        0.000000    1.595192   -4.374759
      7         42           0        0.000000    0.000000   -7.137608
      8         42           0        0.000000    0.000000   -1.611845
      9         42           0        0.000000   -1.595192   -4.374759
     10         42           0        0.000000    0.000000    3.913945
     11         42           0        0.000000   -1.595158    1.151050
     12         42           0        0.000000   -3.190316   -1.611845
     13         42           0        0.000000   -1.595158    6.676840
     14         42           0        0.000000   -3.190316    3.913945
     15         42           0        0.000000   -4.785474    1.151050
     16         34           0        1.195137    0.000000   -9.300567
     17         34           0        1.564878   -1.595163   -6.216666
     18         34           0        1.564885   -3.190316   -3.453775
     19         34           0        1.564885   -4.785474   -0.690880
     20         34           0        1.564878    1.595163   -6.216666
     21         34           0        1.564885    3.190316   -3.453775
     22         34           0        1.564885    4.785474   -0.690880
     23         34           0        1.564885    0.000000   -3.453775
     24         34           0        1.564885    1.595158   -0.690880
     25         34           0        1.564885    3.190316    2.072015
     26         34           0        1.564885   -1.595158   -0.690880
     27         34           0        1.564885    0.000000    2.072015
     28         34           0        1.564885    1.595158    4.834910
     29         34           0        1.564885   -3.190316    2.072015
     30         34           0        1.564885   -1.595158    4.834910
     31         34           0        1.564885    0.000000    7.597805
     32         34           0       -1.564885    3.190316   -3.453775
     33         34           0       -1.564878    1.595163   -6.216666
     34         34           0       -1.195137    0.000000   -9.300567
     35         34           0       -1.564885    4.785474   -0.690880
     36         34           0       -1.564885    1.595158   -0.690880
     37         34           0       -1.564885    0.000000   -3.453775
     38         34           0       -1.564878   -1.595163   -6.216666
     39         34           0       -1.564885   -3.190316   -3.453775
     40         34           0       -1.564885   -1.595158   -0.690880
     41         34           0       -1.564885    0.000000    2.072015
     42         34           0       -1.564885    3.190316    2.072015
     43         34           0       -1.564885    1.595158    4.834910
     44         34           0       -1.564885    0.000000    7.597805
     45         34           0       -1.564885   -1.595158    4.834910
     46         34           0       -1.564885   -3.190316    2.072015
     47         34           0       -1.564885   -4.785474   -0.690880
     48         42           0        0.000000    1.595158    1.151050
 ---------------------------------------------------------------------
                    Distance matrix (angstroms):
                    1          2          3          4          5
     1  Mo   0.000000
     2  Mo   3.190316   0.000000
     3  Mo   6.380632   3.190316   0.000000
     4  Mo   9.570949   6.380632   3.190316   0.000000
     5  Mo   3.190316   5.525790   8.440783  11.502849   0.000000
     6  Mo   6.380632   8.440796  11.051599  13.906289   3.190316
     7  Mo   9.570926  11.502823  13.906240  16.577343   6.380610
     8  Mo   5.525790   6.380632   8.440783  11.051579   3.190316
     9  Mo   8.440821   9.570982  11.502877  13.906289   5.525829
    10  Mo   5.525790   3.190316   3.190316   5.525790   6.380632
    11  Mo   6.380632   5.525790   6.380632   8.440783   5.525790
    12  Mo   8.440783   8.440783   9.570949  11.502849   6.380632
    13  Mo   8.440783   5.525790   3.190316   3.190316   9.570949
    14  Mo   8.440783   6.380632   5.525790   6.380632   8.440783
    15  Mo   9.570949   8.440783   8.440783   9.570949   8.440783
    16  Se  11.557050  13.646603  16.101255  18.778372   8.409692
    17  Se   9.871404  11.312778  13.374210  15.815065   6.823052
    18  Se   9.341654   9.871404  11.312779  13.374213   6.823052
    19  Se   9.871404   9.341654   9.871404  11.312779   8.179870
    20  Se   8.179864  10.374133  12.988123  15.815065   5.118373
    21  Se   5.118379   7.532075  10.374138  13.374213   2.416934
    22  Se   2.416934   5.118379   8.179870  11.312779   2.416934
    23  Se   6.823052   8.179870  10.374138  12.988127   4.002460
    24  Se   4.002460   5.118379   7.532075  10.374138   2.416934
    25  Se   2.416934   2.416934   5.118379   8.179870   4.002460
    26  Se   6.823052   6.823052   8.179870  10.374138   5.118379
    27  Se   5.118379   4.002460   5.118379   7.532075   5.118379
    28  Se   5.118379   2.416934   2.416934   5.118379   6.823052
    29  Se   8.179870   6.823052   6.823052   8.179870   7.532075
    30  Se   7.532075   5.118379   4.002460   5.118379   8.179870
    31  Se   8.179870   5.118379   2.416934   2.416934   9.871404
    32  Se   5.118379   7.532075  10.374138  13.374213   2.416934
    33  Se   8.179864  10.374133  12.988123  15.815065   5.118373
    34  Se  11.557050  13.646603  16.101255  18.778372   8.409692
    35  Se   2.416934   5.118379   8.179870  11.312779   2.416934
    36  Se   4.002460   5.118379   7.532075  10.374138   2.416934
    37  Se   6.823052   8.179870  10.374138  12.988127   4.002460
    38  Se   9.871404  11.312778  13.374210  15.815065   6.823052
    39  Se   9.341654   9.871404  11.312779  13.374213   6.823052
    40  Se   6.823052   6.823052   8.179870  10.374138   5.118379
    41  Se   5.118379   4.002460   5.118379   7.532075   5.118379
    42  Se   2.416934   2.416934   5.118379   8.179870   4.002460
    43  Se   5.118379   2.416934   2.416934   5.118379   6.823052
    44  Se   8.179870   5.118379   2.416934   2.416934   9.871404
    45  Se   7.532075   5.118379   4.002460   5.118379   8.179870
    46  Se   8.179870   6.823052   6.823052   8.179870   7.532075
    47  Se   9.871404   9.341654   9.871404  11.312779   8.179870
    48  Mo   3.190316   3.190316   5.525790   8.440783   3.190316
                    6          7          8          9         10
     6  Mo   0.000000
     7  Mo   3.190293   0.000000
     8  Mo   3.190350   5.525763   0.000000
     9  Mo   3.190384   3.190293   3.190350   0.000000
    10  Mo   8.440809  11.051553   5.525790   8.440809   0.000000
    11  Mo   6.380666   8.440757   3.190316   5.525809   3.190316
    12  Mo   5.525829   6.380610   3.190316   3.190316   6.380632
    13  Mo  11.502877  13.906240   8.440783  11.051599   3.190316
    14  Mo   9.570982  11.502823   6.380632   8.440796   3.190316
    15  Mo   8.440821   9.570926   5.525790   6.380632   5.525790
    16  Se   5.313809   2.471182   7.781054   5.313809  13.268446
    17  Se   4.002478   2.416924   5.118376   2.416912  10.374135
    18  Se   5.118414   5.118360   4.002460   2.416919   8.179870
    19  Se   7.532113   8.179849   5.118379   5.118372   6.823052
    20  Se   2.416912   2.416924   5.118376   4.002478  10.374135
    21  Se   2.416919   5.118360   4.002460   5.118414   8.179870
    22  Se   5.118372   8.179849   5.118379   7.532113   6.823052
    23  Se   2.416964   4.002436   2.416934   2.416964   7.532075
    24  Se   4.002478   6.823027   2.416934   5.118414   5.118379
    25  Se   6.823063   9.871380   5.118379   8.179905   4.002460
    26  Se   5.118414   6.823027   2.416934   4.002478   5.118379
    27  Se   6.823078   9.341629   4.002460   6.823078   2.416934
    28  Se   9.341674  12.179269   6.823052   9.871434   2.416934
    29  Se   8.179905   9.871380   5.118379   6.823063   4.002460
    30  Se   9.871434  12.179269   6.823052   9.341674   2.416934
    31  Se  12.179318  14.818274   9.341655  12.179318   4.002460
    32  Se   2.416919   5.118360   4.002460   5.118414   8.179870
    33  Se   2.416912   2.416924   5.118376   4.002478  10.374135
    34  Se   5.313809   2.471182   7.781054   5.313809  13.268446
    35  Se   5.118372   8.179849   5.118379   7.532113   6.823052
    36  Se   4.002478   6.823027   2.416934   5.118414   5.118379
    37  Se   2.416964   4.002436   2.416934   2.416964   7.532075
    38  Se   4.002478   2.416924   5.118376   2.416912  10.374135
    39  Se   5.118414   5.118360   4.002460   2.416919   8.179870
    40  Se   5.118414   6.823027   2.416934   4.002478   5.118379
    41  Se   6.823078   9.341629   4.002460   6.823078   2.416934
    42  Se   6.823063   9.871380   5.118379   8.179905   4.002460
    43  Se   9.341674  12.179269   6.823052   9.871434   2.416934
    44  Se  12.179318  14.818274   9.341655  12.179318   4.002460
    45  Se   9.871434  12.179269   6.823052   9.341674   2.416934
    46  Se   8.179905   9.871380   5.118379   6.823063   4.002460
    47  Se   7.532113   8.179849   5.118379   5.118372   6.823052
    48  Mo   5.525809   8.440757   3.190316   6.380666   3.190316
                   11         12         13         14         15
    11  Mo   0.000000
    12  Mo   3.190316   0.000000
    13  Mo   5.525790   8.440783   0.000000
    14  Mo   3.190316   5.525790   3.190316   0.000000
    15  Mo   3.190316   3.190316   6.380632   3.190316   0.000000
    16  Se  10.639980   8.409692  16.101255  13.646603  11.557050
    17  Se   7.532071   5.118373  12.988123  10.374133   8.179864
    18  Se   5.118379   2.416934  10.374138   7.532075   5.118379
    19  Se   4.002460   2.416934   8.179870   5.118379   2.416934
    20  Se   8.179868   6.823052  13.374210  11.312778   9.871404
    21  Se   6.823052   6.823052  11.312779   9.871404   9.341654
    22  Se   6.823052   8.179870   9.871404   9.341654   9.871404
    23  Se   5.118379   4.002460  10.374138   8.179870   6.823052
    24  Se   4.002460   5.118379   8.179870   6.823052   6.823052
    25  Se   5.118379   7.532075   6.823052   6.823052   8.179870
    26  Se   2.416934   2.416934   7.532075   5.118379   4.002460
    27  Se   2.416934   5.118379   5.118379   4.002460   5.118379
    28  Se   5.118379   8.179870   4.002460   5.118379   7.532075
    29  Se   2.416934   4.002460   5.118379   2.416934   2.416934
    30  Se   4.002460   6.823052   2.416934   2.416934   5.118379
    31  Se   6.823052   9.871404   2.416934   5.118379   8.179870
    32  Se   6.823052   6.823052  11.312779   9.871404   9.341654
    33  Se   8.179868   6.823052  13.374210  11.312778   9.871404
    34  Se  10.639980   8.409692  16.101255  13.646603  11.557050
    35  Se   6.823052   8.179870   9.871404   9.341654   9.871404
    36  Se   4.002460   5.118379   8.179870   6.823052   6.823052
    37  Se   5.118379   4.002460  10.374138   8.179870   6.823052
    38  Se   7.532071   5.118373  12.988123  10.374133   8.179864
    39  Se   5.118379   2.416934  10.374138   7.532075   5.118379
    40  Se   2.416934   2.416934   7.532075   5.118379   4.002460
    41  Se   2.416934   5.118379   5.118379   4.002460   5.118379
    42  Se   5.118379   7.532075   6.823052   6.823052   8.179870
    43  Se   5.118379   8.179870   4.002460   5.118379   7.532075
    44  Se   6.823052   9.871404   2.416934   5.118379   8.179870
    45  Se   4.002460   6.823052   2.416934   2.416934   5.118379
    46  Se   2.416934   4.002460   5.118379   2.416934   2.416934
    47  Se   4.002460   2.416934   8.179870   5.118379   2.416934
    48  Mo   3.190316   5.525790   6.380632   5.525790   6.380632
                   16         17         18         19         20
    16  Se   0.000000
    17  Se   3.491661   0.000000
    18  Se   6.670818   3.190311   0.000000
    19  Se   9.857190   6.380627   3.190316   0.000000
    20  Se   3.491661   3.190326   5.525792   8.440785   0.000000
    21  Se   6.670818   5.525792   6.380632   8.440783   3.190311
    22  Se   9.857190   8.440785   8.440783   9.570949   6.380627
    23  Se   5.858472   3.190316   3.190316   5.525790   3.190316
    24  Se   8.764015   6.380632   5.525790   6.380632   5.525787
    25  Se  11.817379   9.570948   8.440783   8.440783   8.440779
    26  Se   8.764015   5.525787   3.190316   3.190316   6.380632
    27  Se  11.378591   8.440781   6.380632   5.525790   8.440781
    28  Se  14.230001  11.502847   9.570949   8.440783  11.051576
    29  Se  11.817379   8.440779   5.525790   3.190316   9.570948
    30  Se  14.230001  11.051576   8.440783   6.380632  11.502847
    31  Se  16.902416  13.906263  11.502849   9.570949  13.906263
    32  Se   7.209772   6.350574   7.106893   9.002348   4.469172
    33  Se   4.435388   4.469178   6.350574   9.002348   3.129756
    34  Se   2.390273   4.435388   7.209772  10.229623   4.435388
    35  Se  10.229623   9.002348   9.002348  10.069683   7.106885
    36  Se   9.180902   7.106889   6.350575   7.106893   6.350569
    37  Se   6.465500   4.469175   4.469180   6.350575   4.469175
    38  Se   4.435388   3.129756   4.469172   7.106885   4.469178
    39  Se   7.209772   4.469172   3.129769   4.469180   6.350574
    40  Se   9.180902   6.350569   4.469180   4.469180   7.106889
    41  Se  11.702706   9.002344   7.106893   6.350575   9.002344
    42  Se  12.129775  10.069680   9.002348   9.002348   9.002342
    43  Se  14.490478  11.921028  10.069683   9.002348  11.486198
    44  Se  17.122286  14.254107  11.921031  10.069683  14.254107
    45  Se  14.490478  11.486198   9.002348   7.106893  11.921028
    46  Se  12.129775   9.002342   6.350575   4.469180  10.069680
    47  Se  10.229623   7.106885   4.469180   3.129769   9.002348
    48  Mo  10.639980   8.179868   6.823052   6.823052   7.532071
                   21         22         23         24         25
    21  Se   0.000000
    22  Se   3.190316   0.000000
    23  Se   3.190316   5.525790   0.000000
    24  Se   3.190316   3.190316   3.190316   0.000000
    25  Se   5.525790   3.190316   6.380632   3.190316   0.000000
    26  Se   5.525790   6.380632   3.190316   3.190316   5.525790
    27  Se   6.380632   5.525790   5.525790   3.190316   3.190316
    28  Se   8.440783   6.380632   8.440783   5.525790   3.190316
    29  Se   8.440783   8.440783   6.380632   5.525790   6.380632
    30  Se   9.570949   8.440783   8.440783   6.380632   5.525790
    31  Se  11.502849   9.570949  11.051579   8.440783   6.380632
    32  Se   3.129769   4.469180   4.469180   4.469180   6.350575
    33  Se   4.469172   7.106885   4.469175   6.350569   9.002342
    34  Se   7.209772  10.229623   6.465500   9.180902  12.129775
    35  Se   4.469180   3.129769   6.350575   4.469180   4.469180
    36  Se   4.469180   4.469180   4.469180   3.129769   4.469180
    37  Se   4.469180   6.350575   3.129769   4.469180   7.106893
    38  Se   6.350574   9.002348   4.469175   7.106889  10.069680
    39  Se   7.106893   9.002348   4.469180   6.350575   9.002348
    40  Se   6.350575   7.106893   4.469180   4.469180   6.350575
    41  Se   7.106893   6.350575   6.350575   4.469180   4.469180
    42  Se   6.350575   4.469180   7.106893   4.469180   3.129769
    43  Se   9.002348   7.106893   9.002348   6.350575   4.469180
    44  Se  11.921031  10.069683  11.486203   9.002348   7.106893
    45  Se  10.069683   9.002348   9.002348   7.106893   6.350575
    46  Se   9.002348   9.002348   7.106893   6.350575   7.106893
    47  Se   9.002348  10.069683   6.350575   7.106893   9.002348
    48  Mo   5.118379   4.002460   5.118379   2.416934   2.416934
                   26         27         28         29         30
    26  Se   0.000000
    27  Se   3.190316   0.000000
    28  Se   6.380632   3.190316   0.000000
    29  Se   3.190316   3.190316   5.525790   0.000000
    30  Se   5.525790   3.190316   3.190316   3.190316   0.000000
    31  Se   8.440783   5.525790   3.190316   6.380632   3.190316
    32  Se   6.350575   7.106893   9.002348   9.002348  10.069683
    33  Se   7.106889   9.002344  11.486198  10.069680  11.921028
    34  Se   9.180902  11.702706  14.490478  12.129775  14.490478
    35  Se   7.106893   6.350575   7.106893   9.002348   9.002348
    36  Se   4.469180   4.469180   6.350575   6.350575   7.106893
    37  Se   4.469180   6.350575   9.002348   7.106893   9.002348
    38  Se   6.350569   9.002344  11.921028   9.002342  11.486198
    39  Se   4.469180   7.106893  10.069683   6.350575   9.002348
    40  Se   3.129769   4.469180   7.106893   4.469180   6.350575
    41  Se   4.469180   3.129769   4.469180   4.469180   4.469180
    42  Se   6.350575   4.469180   4.469180   7.106893   6.350575
    43  Se   7.106893   4.469180   3.129769   6.350575   4.469180
    44  Se   9.002348   6.350575   4.469180   7.106893   4.469180
    45  Se   6.350575   4.469180   4.469180   4.469180   3.129769
    46  Se   4.469180   4.469180   6.350575   3.129769   4.469180
    47  Se   4.469180   6.350575   9.002348   4.469180   7.106893
    48  Mo   4.002460   2.416934   4.002460   5.118379   5.118379
                   31         32         33         34         35
    31  Se   0.000000
    32  Se  11.921031   0.000000
    33  Se  14.254107   3.190311   0.000000
    34  Se  17.122286   6.670818   3.491661   0.000000
    35  Se  10.069683   3.190316   6.380627   9.857190   0.000000
    36  Se   9.002348   3.190316   5.525787   8.764015   3.190316
    37  Se  11.486203   3.190316   3.190316   5.858472   5.525790
    38  Se  14.254107   5.525792   3.190326   3.491661   8.440785
    39  Se  11.921031   6.380632   5.525792   6.670818   8.440783
    40  Se   9.002348   5.525790   6.380632   8.764015   6.380632
    41  Se   6.350575   6.380632   8.440781  11.378591   5.525790
    42  Se   7.106893   5.525790   8.440779  11.817379   3.190316
    43  Se   4.469180   8.440783  11.051576  14.230001   6.380632
    44  Se   3.129769  11.502849  13.906263  16.902416   9.570949
    45  Se   4.469180   9.570949  11.502847  14.230001   8.440783
    46  Se   7.106893   8.440783   9.570948  11.817379   8.440783
    47  Se  10.069683   8.440783   8.440785   9.857190   9.570949
    48  Mo   6.823052   5.118379   7.532071  10.639980   4.002460
                   36         37         38         39         40
    36  Se   0.000000
    37  Se   3.190316   0.000000
    38  Se   6.380632   3.190316   0.000000
    39  Se   5.525790   3.190316   3.190311   0.000000
    40  Se   3.190316   3.190316   5.525787   3.190316   0.000000
    41  Se   3.190316   5.525790   8.440781   6.380632   3.190316
    42  Se   3.190316   6.380632   9.570948   8.440783   5.525790
    43  Se   5.525790   8.440783  11.502847   9.570949   6.380632
    44  Se   8.440783  11.051579  13.906263  11.502849   8.440783
    45  Se   6.380632   8.440783  11.051576   8.440783   5.525790
    46  Se   5.525790   6.380632   8.440779   5.525790   3.190316
    47  Se   6.380632   5.525790   6.380627   3.190316   3.190316
    48  Mo   2.416934   5.118379   8.179868   6.823052   4.002460
                   41         42         43         44         45
    41  Se   0.000000
    42  Se   3.190316   0.000000
    43  Se   3.190316   3.190316   0.000000
    44  Se   5.525790   6.380632   3.190316   0.000000
    45  Se   3.190316   5.525790   3.190316   3.190316   0.000000
    46  Se   3.190316   6.380632   5.525790   6.380632   3.190316
    47  Se   5.525790   8.440783   8.440783   9.570949   6.380632
    48  Mo   2.416934   2.416934   4.002460   6.823052   5.118379
                   46         47         48
    46  Se   0.000000
    47  Se   3.190316   0.000000
    48  Mo   5.118379   6.823052   0.000000
 Stoichiometry    Mo16Se32
 Framework group  C2V[C2(MoMoMoMo),SGV(Mo12),SGV'(Se8),X(Se24)]
 Deg. of freedom    41
 Full point group                 C2V     NOp   4
 Largest Abelian subgroup         C2V     NOp   4
 Largest concise Abelian subgroup C2V     NOp   4
                         Standard orientation:                         
 ---------------------------------------------------------------------
 Center     Atomic      Atomic             Coordinates (Angstroms)
 Number     Number       Type             X           Y           Z
 ---------------------------------------------------------------------
      1         42           0        0.000000    4.785474    1.151050
      2         42           0        0.000000    3.190316    3.913945
      3         42           0        0.000000    1.595158    6.676840
      4         42           0        0.000000    0.000000    9.439735
      5         42           0        0.000000    3.190316   -1.611845
      6         42           0        0.000000    1.595192   -4.374759
      7         42           0        0.000000    0.000000   -7.137608
      8         42           0        0.000000    0.000000   -1.611845
      9         42           0        0.000000   -1.595192   -4.374759
     10         42           0        0.000000    0.000000    3.913945
     11         42           0        0.000000   -1.595158    1.151050
     12         42           0        0.000000   -3.190316   -1.611845
     13         42           0        0.000000   -1.595158    6.676840
     14         42           0        0.000000   -3.190316    3.913945
     15         42           0        0.000000   -4.785474    1.151050
     16         34           0        1.195137    0.000000   -9.300567
     17         34           0        1.564878   -1.595163   -6.216666
     18         34           0        1.564885   -3.190316   -3.453775
     19         34           0        1.564885   -4.785474   -0.690880
     20         34           0        1.564878    1.595163   -6.216666
     21         34           0        1.564885    3.190316   -3.453775
     22         34           0        1.564885    4.785474   -0.690880
     23         34           0        1.564885    0.000000   -3.453775
     24         34           0        1.564885    1.595158   -0.690880
     25         34           0        1.564885    3.190316    2.072015
     26         34           0        1.564885   -1.595158   -0.690880
     27         34           0        1.564885    0.000000    2.072015
     28         34           0        1.564885    1.595158    4.834910
     29         34           0        1.564885   -3.190316    2.072015
     30         34           0        1.564885   -1.595158    4.834910
     31         34           0        1.564885    0.000000    7.597805
     32         34           0       -1.564885    3.190316   -3.453775
     33         34           0       -1.564878    1.595163   -6.216666
     34         34           0       -1.195137    0.000000   -9.300567
     35         34           0       -1.564885    4.785474   -0.690880
     36         34           0       -1.564885    1.595158   -0.690880
     37         34           0       -1.564885    0.000000   -3.453775
     38         34           0       -1.564878   -1.595163   -6.216666
     39         34           0       -1.564885   -3.190316   -3.453775
     40         34           0       -1.564885   -1.595158   -0.690880
     41         34           0       -1.564885    0.000000    2.072015
     42         34           0       -1.564885    3.190316    2.072015
     43         34           0       -1.564885    1.595158    4.834910
     44         34           0       -1.564885    0.000000    7.597805
     45         34           0       -1.564885   -1.595158    4.834910
     46         34           0       -1.564885   -3.190316    2.072015
     47         34           0       -1.564885   -4.785474   -0.690880
     48         42           0        0.000000    1.595158    1.151050
 ---------------------------------------------------------------------
 Rotational constants (GHZ):      0.0156307      0.0056764      0.0046295
 Standard basis: VSTO-6G (5D, 7F)
 There are    98 symmetry adapted cartesian basis functions of A1  symmetry.
 There are    50 symmetry adapted cartesian basis functions of A2  symmetry.
 There are    62 symmetry adapted cartesian basis functions of B1  symmetry.
 There are    78 symmetry adapted cartesian basis functions of B2  symmetry.
 There are    88 symmetry adapted basis functions of A1  symmetry.
 There are    50 symmetry adapted basis functions of A2  symmetry.
 There are    62 symmetry adapted basis functions of B1  symmetry.
 There are    72 symmetry adapted basis functions of B2  symmetry.
   272 basis functions,  1728 primitive gaussians,   288 cartesian basis functions
   144 alpha electrons      144 beta electrons
       nuclear repulsion energy      3730.8134165112 Hartrees.



 Warning!  Se atom   23 may be hypervalent but has no d functions.
 Warning!  Se atom   24 may be hypervalent but has no d functions.
 Warning!  Se atom   25 may be hypervalent but has no d functions.
 Warning!  Se atom   26 may be hypervalent but has no d functions.
 Warning!  Se atom   27 may be hypervalent but has no d functions.
 Warning!  Se atom   28 may be hypervalent but has no d functions.
 Warning!  Se atom   29 may be hypervalent but has no d functions.
 Warning!  Se atom   30 may be hypervalent but has no d functions.
 Warning!  Se atom   31 may be hypervalent but has no d functions.
 Warning!  Se atom   36 may be hypervalent but has no d functions.
 Warning!  Se atom   37 may be hypervalent but has no d functions.
 Warning!  Se atom   40 may be hypervalent but has no d functions.
 Warning!  Se atom   41 may be hypervalent but has no d functions.
 Warning!  Se atom   42 may be hypervalent but has no d functions.
 Warning!  Se atom   43 may be hypervalent but has no d functions.
 Warning!  Se atom   44 may be hypervalent but has no d functions.
 Warning!  Se atom   45 may be hypervalent but has no d functions.
 Warning!  Se atom   46 may be hypervalent but has no d functions.



 Integral buffers will be    262144 words long.
 Regular integral format.
 Two-electron integral symmetry is turned off.
 Do NDO integrals.
 One-electron integrals computed using PRISM.
 NBasis=   272 RedAO= T EigKep=  5.00D-01  NBF=    88    50    62    72
 NBsUse=   272 1.00D-06 EigRej= -1.00D+00 NBFU=    88    50    62    72
 Projected New-EHT guess.
 Enter ItEHT:  IZDO=4 IZDPar=0 Conv= 1.00D-06 N=  272
 It=   1                  EEH= -78.3493833825     EQH= 0.000000000000E+00 EH= -78.3493833825    
 Initial guess orbital symmetries:
       Occupied  (A1) (B1) (A1) (A1) (B2) (B1) (A1) (A1) (B1) (A1)
                 (A2) (A1) (A1) (A1) (A2) (A1) (B2) (B1) (B2) (B1)
                 (B2) (B2) (B2) (B1) (B2) (B2) (A2) (A1) (B1) (B2)
                 (A1) (A1) (B1) (B2) (A1) (A2) (B2) (B1) (B2) (A1)
                 (B2) (A2) (A1) (B2) (B1) (B2) (B1) (B2) (B2) (B2)
                 (A2) (A1) (B2) (A2) (A1) (B1) (B2) (A1) (A1) (B1)
                 (B2) (A1) (A2) (A1) (B1) (B2) (A1) (A1) (B1) (B2)
                 (A1) (A2) (A1) (A2) (B2) (B2) (A1) (B1) (B2) (A1)
                 (B1) (A1) (B1) (B2) (A1) (A1) (B1) (B2) (A1) (A2)
                 (B2) (B1) (A1) (A1) (A1) (B1) (A1) (A1) (A2) (A1)
                 (A2) (B2) (B2) (A1) (B1) (B2) (A1) (A2) (A1) (A2)
                 (A1) (A1) (A1) (A2) (A1) (A1) (B1) (B2) (B1) (B2)
                 (B2) (B2) (B1) (B2) (A1) (A2) (B2) (A2) (B2) (B2)
                 (A1) (A2) (B2) (B2) (A2) (B1) (B1) (A2) (A1) (A2)
                 (B2) (A2) (A2) (A1)
       Virtual   (B1) (A1) (A1) (B1) (B1) (B2) (A1) (A1) (B1) (A1)
                 (B2) (B2) (A1) (B1) (B2) (A1) (B2) (B1) (B2) (A1)
                 (B1) (A2) (A1) (A1) (B1) (A2) (B1) (A1) (B1) (A2)
                 (A1) (A1) (B2) (A1) (B2) (A1) (A1) (A2) (B1) (A1)
                 (B2) (A2) (B2) (A2) (A2) (B1) (B2) (A1) (A2) (A1)
                 (A1) (A1) (A1) (B2) (A1) (B1) (A2) (B1) (B1) (B1)
                 (A1) (B1) (B1) (A1) (A1) (B2) (B1) (B2) (A2) (A1)
                 (B1) (B1) (A1) (B2) (A2) (B1) (A1) (B2) (B1) (B2)
                 (A2) (B2) (A1) (A2) (B2) (A2) (A2) (B2) (A2) (B1)
                 (A1) (B1) (B1) (B2) (A1) (B1) (A1) (A1) (A2) (B1)
                 (A1) (B1) (B1) (B1) (B1) (A2) (B1) (A2) (B2) (A2)
                 (B2) (B2) (B2) (B1) (A2) (A1) (A2) (A2) (A1) (A2)
                 (B2) (B2) (A2) (B2) (B2) (B1) (A1) (A2)
 The electronic state of the initial guess is 1-A1.
 Keep J ints in memory in canonical form, NReq=3086531.
 Gradient too large for Newton-Raphson -- use scaled steepest descent instead.
     Note:  rotation exceeds Pi/2.
     Note:  rotation exceeds Pi/2.
     Note:  rotation exceeds Pi/2.
     Note:  rotation exceeds Pi/2.
     Note:  rotation exceeds Pi/2.
     Note:  rotation exceeds Pi/2.
     Note:  rotation exceeds Pi/2.
     Accept linear search using points  9 and 10.
     Minimum is close to point 10 DX= -6.01D-02 DF= -1.38D-01 DXR=  1.70D-02 DFR=  1.72D-03 which will be used.
 Gradient too large for Newton-Raphson -- use scaled steepest descent instead.
     Note:  rotation exceeds Pi/2.
     Note:  rotation exceeds Pi/2.
     Minimum is close to point  4 DX=  1.40D-02 DF= -3.30D-02 DXR=  4.15D-02 DFR=  8.74D-04 which will be used.
 Gradient too large for Newton-Raphson -- use scaled steepest descent instead.
 Gradient too large for Newton-Raphson -- use scaled steepest descent instead.
     Accept linear search using points  1 and  2.
 Gradient too large for Newton-Raphson -- use scaled steepest descent instead.
     Accept linear search using points  2 and  3.
 Gradient too large for Newton-Raphson -- use scaled steepest descent instead.
     Minimum is close to point  3 DX=  2.50D-03 DF= -2.71D-04 DXR=  8.28D-03 DFR=  6.61D-05 which will be used.
 Gradient too large for Newton-Raphson -- use scaled steepest descent instead.
     Accept linear search using points  1 and  2.
 Gradient too large for Newton-Raphson -- use scaled steepest descent instead.
 Gradient too large for Newton-Raphson -- use scaled steepest descent instead.
     Accept linear search using points  1 and  2.
 Gradient too large for Newton-Raphson -- use scaled steepest descent instead.
     Accept linear search using points  2 and  3.
 Gradient too large for Newton-Raphson -- use scaled steepest descent instead.
     Accept linear search using points  1 and  2.
 Gradient too large for Newton-Raphson -- use scaled steepest descent instead.
     Accept linear search using points  2 and  3.
 Gradient too large for Newton-Raphson -- use scaled steepest descent instead.
     Accept linear search using points  1 and  2.
 Gradient too large for Newton-Raphson -- use scaled steepest descent instead.
 Gradient too large for Newton-Raphson -- use scaled steepest descent instead.
 Gradient too large for Newton-Raphson -- use scaled steepest descent instead.
     Accept linear search using points  1 and  2.
 Gradient too large for Newton-Raphson -- use scaled steepest descent instead.
     Accept linear search using points  1 and  2.
 Gradient too large for Newton-Raphson -- use scaled steepest descent instead.
 Gradient too large for Newton-Raphson -- use scaled steepest descent instead.
 Gradient too large for Newton-Raphson -- use scaled steepest descent instead.
     Accept linear search using points  2 and  3.
     Minimum is close to point  3 DX= -5.02D-02 DF= -3.63D-05 DXR=  2.71D-02 DFR=  6.09D-04 which will be used.
 Gradient too large for Newton-Raphson -- use scaled steepest descent instead.
     Minimum is close to point  3 DX= -7.20D-03 DF= -1.75D-05 DXR=  1.83D-02 DFR=  3.36D-04 which will be used.
 Gradient too large for Newton-Raphson -- use scaled steepest descent instead.
 Gradient too large for Newton-Raphson -- use scaled steepest descent instead.
     Accept linear search using points  1 and  2.
 Gradient too large for Newton-Raphson -- use scaled steepest descent instead.
 Gradient too large for Newton-Raphson -- use scaled steepest descent instead.
     Minimum is close to point  3 DX= -1.89D-02 DF= -9.11D-05 DXR=  4.97D-02 DFR=  2.47D-03 which will be used.
 Gradient too large for Newton-Raphson -- use scaled steepest descent instead.
 Gradient too large for Newton-Raphson -- use scaled steepest descent instead.
     Accept linear search using points  1 and  2.
 Gradient too large for Newton-Raphson -- use scaled steepest descent instead.
     Accept linear search using points  3 and  4.
 Gradient too large for Newton-Raphson -- use scaled steepest descent instead.
     Minimum is close to point  3 DX= -2.42D-02 DF= -9.00D-05 DXR=  6.45D-02 DFR=  4.17D-03 which will be used.
 Gradient too large for Newton-Raphson -- use scaled steepest descent instead.
 Gradient too large for Newton-Raphson -- use scaled steepest descent instead.
     Accept linear search using points  1 and  2.
 Gradient too large for Newton-Raphson -- use scaled steepest descent instead.
     Accept linear search using points  3 and  4.
 Gradient too large for Newton-Raphson -- use scaled steepest descent instead.
     Minimum is close to point  3 DX= -2.54D-02 DF= -5.74D-05 DXR=  6.77D-02 DFR=  4.61D-03 which will be used.
 Gradient too large for Newton-Raphson -- use scaled steepest descent instead.
 Gradient too large for Newton-Raphson -- use scaled steepest descent instead.
     Accept linear search using points  1 and  2.
 Gradient too large for Newton-Raphson -- use scaled steepest descent instead.
     Accept linear search using points  3 and  4.
 Gradient too large for Newton-Raphson -- use scaled steepest descent instead.
     Minimum is close to point  3 DX= -2.77D-02 DF= -4.65D-05 DXR=  7.45D-02 DFR=  5.58D-03 which will be used.
 Gradient too large for Newton-Raphson -- use scaled steepest descent instead.
 Gradient too large for Newton-Raphson -- use scaled steepest descent instead.
     Accept linear search using points  1 and  2.
 Gradient too large for Newton-Raphson -- use scaled steepest descent instead.
     Accept linear search using points  3 and  4.
 Gradient too large for Newton-Raphson -- use scaled steepest descent instead.
     Minimum is close to point  3 DX= -2.73D-02 DF= -3.43D-05 DXR=  7.33D-02 DFR=  5.41D-03 which will be used.
 Gradient too large for Newton-Raphson -- use scaled steepest descent instead.
 Gradient too large for Newton-Raphson -- use scaled steepest descent instead.
     Accept linear search using points  1 and  2.
 Gradient too large for Newton-Raphson -- use scaled steepest descent instead.
     Accept linear search using points  3 and  4.
 Gradient too large for Newton-Raphson -- use scaled steepest descent instead.
     Minimum is close to point  3 DX= -2.92D-02 DF= -3.58D-05 DXR=  7.88D-02 DFR=  6.25D-03 which will be used.
 Gradient too large for Newton-Raphson -- use scaled steepest descent instead.
 Gradient too large for Newton-Raphson -- use scaled steepest descent instead.
     Accept linear search using points  1 and  2.
 Gradient too large for Newton-Raphson -- use scaled steepest descent instead.
     Accept linear search using points  3 and  4.
 Gradient too large for Newton-Raphson -- use scaled steepest descent instead.
     Minimum is close to point  3 DX= -2.69D-02 DF= -2.75D-05 DXR=  7.21D-02 DFR=  5.23D-03 which will be used.
 Gradient too large for Newton-Raphson -- use scaled steepest descent instead.
 Gradient too large for Newton-Raphson -- use scaled steepest descent instead.
     Accept linear search using points  1 and  2.
 Gradient too large for Newton-Raphson -- use scaled steepest descent instead.
     Accept linear search using points  3 and  4.
     Minimum is close to point  4 DX= -2.31D-01 DF= -4.76D-05 DXR=  8.97D-02 DFR=  9.71D-03 which will be used.
 Gradient too large for Newton-Raphson -- use scaled steepest descent instead.
     Minimum is close to point  3 DX= -3.60D-02 DF= -6.14D-05 DXR=  9.88D-02 DFR=  9.87D-03 which will be used.
 Gradient too large for Newton-Raphson -- use scaled steepest descent instead.
     Minimum is close to point  2 DX=  7.59D-02 DF= -1.35D-05 DXR=  7.05D-02 DFR=  5.00D-03 which will be used.
 Gradient too large for Newton-Raphson -- use scaled steepest descent instead.
     Accept linear search using points  1 and  2.
 Gradient too large for Newton-Raphson -- use scaled steepest descent instead.
 Gradient too large for Newton-Raphson -- use scaled steepest descent instead.
 Gradient too large for Newton-Raphson -- use scaled steepest descent instead.
     Accept linear search using points  3 and  4.
 Gradient too large for Newton-Raphson -- use scaled steepest descent instead.
 Gradient too large for Newton-Raphson -- use scaled steepest descent instead.
     Minimum is close to point  4 DX= -1.08D-01 DF= -4.53D-06 DXR=  2.30D-02 DFR=  5.33D-04 which will be used.
 Gradient too large for Newton-Raphson -- use scaled steepest descent instead.
 Gradient too large for Newton-Raphson -- use scaled steepest descent instead.
     Minimum is close to point  4 DX= -1.99D-01 DF= -1.16D-05 DXR=  3.98D-02 DFR=  1.58D-03 which will be used.
 Gradient too large for Newton-Raphson -- use scaled steepest descent instead.
 Gradient too large for Newton-Raphson -- use scaled steepest descent instead.
 Gradient too large for Newton-Raphson -- use scaled steepest descent instead.
     Minimum is close to point  3 DX= -5.37D-03 DF= -4.92D-07 DXR=  1.36D-02 DFR=  1.85D-04 which will be used.
 Gradient too large for Newton-Raphson -- use scaled steepest descent instead.
     Accept linear search using points  1 and  2.
     Minimum is close to point  2 DX= -6.15D-02 DF= -3.68D-06 DXR=  5.40D-02 DFR=  3.90D-03 which will be used.
 Gradient too large for Newton-Raphson -- use scaled steepest descent instead.
     Accept linear search using points  1 and  2.
 Gradient too large for Newton-Raphson -- use scaled steepest descent instead.
     Accept linear search using points  3 and  4.
 Gradient too large for Newton-Raphson -- use scaled steepest descent instead.
     Minimum is close to point  3 DX= -8.33D-03 DF= -4.77D-07 DXR=  2.13D-02 DFR=  4.53D-04 which will be used.
 Gradient too large for Newton-Raphson -- use scaled steepest descent instead.
     Accept linear search using points  2 and  3.
 Gradient too large for Newton-Raphson -- use scaled steepest descent instead.
     Accept linear search using points  1 and  2.
 Gradient too large for Newton-Raphson -- use scaled steepest descent instead.
     Minimum is close to point  3 DX=  1.12D-01 DF= -2.73D-06 DXR=  6.56D-02 DFR=  4.30D-03 which will be used.
 Gradient too large for Newton-Raphson -- use scaled steepest descent instead.
     Accept linear search using points  1 and  2.
 Gradient too large for Newton-Raphson -- use scaled steepest descent instead.
     Accept linear search using points  2 and  3.
     Minimum is close to point  3 DX= -5.13D-03 DF= -3.96D-09 DXR=  3.03D-03 DFR=  7.28D-06 which will be used.
 Gradient too large for Newton-Raphson -- use scaled steepest descent instead.
     Accept linear search using points  1 and  2.
 Gradient too large for Newton-Raphson -- use scaled steepest descent instead.
     Minimum is close to point  3 DX=  1.35D-01 DF= -2.74D-06 DXR=  7.36D-02 DFR=  5.44D-03 which will be used.
 Gradient too large for Newton-Raphson -- use scaled steepest descent instead.
     Minimum is close to point  3 DX=  2.01D-02 DF= -9.75D-07 DXR=  4.78D-02 DFR=  2.29D-03 which will be used.
 Gradient too large for Newton-Raphson -- use scaled steepest descent instead.
 Gradient too large for Newton-Raphson -- use scaled steepest descent instead.
     Minimum is close to point  3 DX= -1.55D-02 DF= -8.91D-07 DXR=  4.03D-02 DFR=  1.63D-03 which will be used.
 Gradient too large for Newton-Raphson -- use scaled steepest descent instead.
     Accept linear search using points  2 and  3.
 Gradient too large for Newton-Raphson -- use scaled steepest descent instead.
     Accept linear search using points  1 and  2.
 Gradient too large for Newton-Raphson -- use scaled steepest descent instead.
 Gradient too large for Newton-Raphson -- use scaled steepest descent instead.
     Minimum is close to point  3 DX=  9.77D-03 DF= -2.22D-07 DXR=  2.39D-02 DFR=  5.69D-04 which will be used.
 Gradient too large for Newton-Raphson -- use scaled steepest descent instead.
 Gradient too large for Newton-Raphson -- use scaled steepest descent instead.
     Minimum is close to point  3 DX= -8.85D-03 DF= -2.41D-07 DXR=  2.26D-02 DFR=  5.12D-04 which will be used.
 Gradient too large for Newton-Raphson -- use scaled steepest descent instead.
     Accept linear search using points  2 and  3.
     Minimum is close to point  3 DX= -8.32D-02 DF= -8.26D-07 DXR=  4.58D-02 DFR=  2.10D-03 which will be used.
 Gradient too large for Newton-Raphson -- use scaled steepest descent instead.
     Accept linear search using points  1 and  2.
 Gradient too large for Newton-Raphson -- use scaled steepest descent instead.
 Gradient too large for Newton-Raphson -- use scaled steepest descent instead.
     Minimum is close to point  3 DX=  6.56D-04 DF= -1.20D-09 DXR=  1.64D-03 DFR=  2.68D-06 which will be used.
 Gradient too large for Newton-Raphson -- use scaled steepest descent instead.
 Gradient too large for Newton-Raphson -- use scaled steepest descent instead.
     Minimum is close to point  3 DX= -1.14D-03 DF= -3.95D-09 DXR=  2.87D-03 DFR=  8.24D-06 which will be used.
 Gradient too large for Newton-Raphson -- use scaled steepest descent instead.
 Gradient too large for Newton-Raphson -- use scaled steepest descent instead.
     Minimum is close to point  3 DX=  6.31D-04 DF= -1.23D-09 DXR=  1.58D-03 DFR=  2.48D-06 which will be used.
 Gradient too large for Newton-Raphson -- use scaled steepest descent instead.
 Gradient too large for Newton-Raphson -- use scaled steepest descent instead.
     Minimum is close to point  3 DX= -1.18D-03 DF= -4.68D-09 DXR=  2.95D-03 DFR=  8.70D-06 which will be used.
 Gradient too large for Newton-Raphson -- use scaled steepest descent instead.
 Gradient too large for Newton-Raphson -- use scaled steepest descent instead.
     Minimum is close to point  3 DX=  6.26D-04 DF= -1.37D-09 DXR=  1.56D-03 DFR=  2.44D-06 which will be used.
 Gradient too large for Newton-Raphson -- use scaled steepest descent instead.
 Gradient too large for Newton-Raphson -- use scaled steepest descent instead.
     Minimum is close to point  3 DX= -1.18D-03 DF= -5.35D-09 DXR=  2.96D-03 DFR=  8.75D-06 which will be used.
 Gradient too large for Newton-Raphson -- use scaled steepest descent instead.
 Gradient too large for Newton-Raphson -- use scaled steepest descent instead.
     Minimum is close to point  3 DX=  6.82D-04 DF= -1.87D-09 DXR=  1.70D-03 DFR=  2.90D-06 which will be used.
 Gradient too large for Newton-Raphson -- use scaled steepest descent instead.
 Gradient too large for Newton-Raphson -- use scaled steepest descent instead.
     Minimum is close to point  3 DX= -1.03D-03 DF= -4.74D-09 DXR=  2.58D-03 DFR=  6.67D-06 which will be used.
 Gradient too large for Newton-Raphson -- use scaled steepest descent instead.
 Gradient too large for Newton-Raphson -- use scaled steepest descent instead.
     Minimum is close to point  3 DX=  1.09D-03 DF= -5.75D-09 DXR=  2.72D-03 DFR=  7.42D-06 which will be used.
 Gradient too large for Newton-Raphson -- use scaled steepest descent instead.
 Gradient too large for Newton-Raphson -- use scaled steepest descent instead.
     Minimum is close to point  3 DX= -8.22D-05 DF= -3.98D-11 DXR=  2.06D-04 DFR=  4.23D-08 which will be used.
 Gradient too large for Newton-Raphson -- use scaled steepest descent instead.
 Gradient too large for Newton-Raphson -- use scaled steepest descent instead.
     Minimum is close to point  3 DX=  2.61D-03 DF= -5.45D-08 DXR=  6.49D-03 DFR=  4.22D-05 which will be used.
 Gradient too large for Newton-Raphson -- use scaled steepest descent instead.
 Gradient too large for Newton-Raphson -- use scaled steepest descent instead.
     Minimum is close to point  3 DX=  6.80D-04 DF= -7.28D-09 DXR=  1.70D-03 DFR=  2.88D-06 which will be used.
 Gradient too large for Newton-Raphson -- use scaled steepest descent instead.
 Gradient too large for Newton-Raphson -- use scaled steepest descent instead.
     Minimum is close to point  3 DX= -1.47D-03 DF= -9.20D-08 DXR=  3.68D-03 DFR=  1.36D-05 which will be used.
 Gradient too large for Newton-Raphson -- use scaled steepest descent instead.
 Gradient too large for Newton-Raphson -- use scaled steepest descent instead.
     Minimum is close to point  3 DX= -6.19D-03 DF= -4.47D-06 DXR=  1.57D-02 DFR=  2.47D-04 which will be used.
 Gradient too large for Newton-Raphson -- use scaled steepest descent instead.
     Minimum is close to point  3 DX=  7.02D-02 DF= -2.14D-05 DXR=  3.09D-02 DFR=  9.93D-04 which will be used.
 Gradient too large for Newton-Raphson -- use scaled steepest descent instead.
     Minimum is close to point  3 DX=  3.20D-03 DF= -1.57D-06 DXR=  7.94D-03 DFR=  6.30D-05 which will be used.
 Gradient too large for Newton-Raphson -- use scaled steepest descent instead.
     Minimum is close to point  3 DX=  5.75D-02 DF= -2.43D-05 DXR=  2.94D-02 DFR=  9.12D-04 which will be used.
 Gradient too large for Newton-Raphson -- use scaled steepest descent instead.
     Minimum is close to point  3 DX=  5.33D-04 DF= -4.18D-08 DXR=  1.33D-03 DFR=  1.77D-06 which will be used.
 Gradient too large for Newton-Raphson -- use scaled steepest descent instead.
     Accept linear search using points  2 and  3.
 Gradient too large for Newton-Raphson -- use scaled steepest descent instead.
     Accept linear search using points  1 and  2.
 Gradient too large for Newton-Raphson -- use scaled steepest descent instead.
     Accept linear search using points  2 and  3.
 Gradient too large for Newton-Raphson -- use scaled steepest descent instead.
     Accept linear search using points  1 and  2.
 Gradient too large for Newton-Raphson -- use scaled steepest descent instead.
     Accept linear search using points  2 and  3.
 Gradient too large for Newton-Raphson -- use scaled steepest descent instead.
     Accept linear search using points  1 and  2.
 Gradient too large for Newton-Raphson -- use scaled steepest descent instead.
     Accept linear search using points  3 and  4.
 Gradient too large for Newton-Raphson -- use scaled steepest descent instead.
     Minimum is close to point  3 DX= -1.95D-02 DF= -9.43D-06 DXR=  5.14D-02 DFR=  2.64D-03 which will be used.
 Gradient too large for Newton-Raphson -- use scaled steepest descent instead.
     Accept linear search using points  2 and  3.
 Gradient too large for Newton-Raphson -- use scaled steepest descent instead.
     Accept linear search using points  1 and  2.
 Gradient too large for Newton-Raphson -- use scaled steepest descent instead.
 Gradient too large for Newton-Raphson -- use scaled steepest descent instead.
 Gradient too large for Newton-Raphson -- use scaled steepest descent instead.
     Accept linear search using points  3 and  4.
     Minimum is close to point  4 DX= -3.91D-01 DF= -6.96D-05 DXR=  9.52D-02 DFR=  9.99D-03 which will be used.
 Gradient too large for Newton-Raphson -- use scaled steepest descent instead.
 Gradient too large for Newton-Raphson -- use scaled steepest descent instead.
     Minimum is close to point  4 DX=  3.98D-01 DF= -1.48D-04 DXR=  7.52D-02 DFR=  6.25D-03 which will be used.
 Gradient too large for Newton-Raphson -- use scaled steepest descent instead.
 Gradient too large for Newton-Raphson -- use scaled steepest descent instead.
 Gradient too large for Newton-Raphson -- use scaled steepest descent instead.
 Gradient too large for Newton-Raphson -- use scaled steepest descent instead.
 Gradient too large for Newton-Raphson -- use scaled steepest descent instead.
 Gradient too large for Newton-Raphson -- use scaled steepest descent instead.
 Gradient too large for Newton-Raphson -- use scaled steepest descent instead.
     Minimum is close to point  3 DX= -2.36D-02 DF= -4.36D-05 DXR=  6.27D-02 DFR=  3.95D-03 which will be used.
 Gradient too large for Newton-Raphson -- use scaled steepest descent instead.
 Gradient too large for Newton-Raphson -- use scaled steepest descent instead.
     Accept linear search using points  1 and  2.
 Gradient too large for Newton-Raphson -- use scaled steepest descent instead.
     Accept linear search using points  3 and  4.
     Minimum is close to point  4 DX= -8.36D-03 DF= -1.37D-07 DXR=  2.79D-03 DFR=  1.54D-05 which will be used.
 Gradient too large for Newton-Raphson -- use scaled steepest descent instead.
     Minimum is close to point  3 DX= -2.01D-02 DF= -2.32D-05 DXR=  5.30D-02 DFR=  2.82D-03 which will be used.
 Gradient too large for Newton-Raphson -- use scaled steepest descent instead.
 Gradient too large for Newton-Raphson -- use scaled steepest descent instead.
     Accept linear search using points  1 and  2.
 Gradient too large for Newton-Raphson -- use scaled steepest descent instead.
 Gradient too large for Newton-Raphson -- use scaled steepest descent instead.
     Minimum is close to point  3 DX=  1.58D-02 DF= -6.51D-06 DXR=  3.79D-02 DFR=  1.44D-03 which will be used.
 Gradient too large for Newton-Raphson -- use scaled steepest descent instead.
 Gradient too large for Newton-Raphson -- use scaled steepest descent instead.
     Minimum is close to point  3 DX= -1.11D-02 DF= -4.43D-06 DXR=  2.86D-02 DFR=  8.19D-04 which will be used.
 Gradient too large for Newton-Raphson -- use scaled steepest descent instead.
     Accept linear search using points  2 and  3.
     Minimum is close to point  3 DX= -1.66D-01 DF= -3.23D-05 DXR=  9.06D-02 DFR=  8.30D-03 which will be used.
 Gradient too large for Newton-Raphson -- use scaled steepest descent instead.
     Accept linear search using points  1 and  2.
 Gradient too large for Newton-Raphson -- use scaled steepest descent instead.
 Gradient too large for Newton-Raphson -- use scaled steepest descent instead.
     Minimum is close to point  3 DX=  1.99D-03 DF= -1.00D-07 DXR=  4.94D-03 DFR=  2.44D-05 which will be used.
 Gradient too large for Newton-Raphson -- use scaled steepest descent instead.
 Gradient too large for Newton-Raphson -- use scaled steepest descent instead.
     Minimum is close to point  3 DX= -1.08D-03 DF= -3.13D-08 DXR=  2.70D-03 DFR=  7.27D-06 which will be used.
 Gradient too large for Newton-Raphson -- use scaled steepest descent instead.
 Gradient too large for Newton-Raphson -- use scaled steepest descent instead.
     Minimum is close to point  3 DX=  1.30D-03 DF= -4.70D-08 DXR=  3.23D-03 DFR=  1.05D-05 which will be used.
 Gradient too large for Newton-Raphson -- use scaled steepest descent instead.
 Gradient too large for Newton-Raphson -- use scaled steepest descent instead.
     Minimum is close to point  3 DX= -1.74D-03 DF= -9.76D-08 DXR=  4.36D-03 DFR=  1.90D-05 which will be used.
 Gradient too large for Newton-Raphson -- use scaled steepest descent instead.
 Gradient too large for Newton-Raphson -- use scaled steepest descent instead.
     Minimum is close to point  3 DX=  6.25D-04 DF= -1.34D-08 DXR=  1.56D-03 DFR=  2.43D-06 which will be used.
 Gradient too large for Newton-Raphson -- use scaled steepest descent instead.
 Gradient too large for Newton-Raphson -- use scaled steepest descent instead.
     Minimum is close to point  3 DX= -2.23D-03 DF= -1.93D-07 DXR=  5.61D-03 DFR=  3.14D-05 which will be used.
 Gradient too large for Newton-Raphson -- use scaled steepest descent instead.
 Gradient too large for Newton-Raphson -- use scaled steepest descent instead.
     Minimum is close to point  3 DX=  3.79D-04 DF= -5.56D-09 DXR=  9.46D-04 DFR=  8.94D-07 which will be used.
 Gradient too large for Newton-Raphson -- use scaled steepest descent instead.
 Gradient too large for Newton-Raphson -- use scaled steepest descent instead.
     Minimum is close to point  3 DX= -2.24D-03 DF= -2.04D-07 DXR=  5.64D-03 DFR=  3.18D-05 which will be used.
 Gradient too large for Newton-Raphson -- use scaled steepest descent instead.
 Gradient too large for Newton-Raphson -- use scaled steepest descent instead.
     Minimum is close to point  3 DX=  5.15D-04 DF= -9.92D-09 DXR=  1.29D-03 DFR=  1.65D-06 which will be used.
 Gradient too large for Newton-Raphson -- use scaled steepest descent instead.
 Gradient too large for Newton-Raphson -- use scaled steepest descent instead.
     Minimum is close to point  3 DX= -2.06D-03 DF= -1.55D-07 DXR=  5.18D-03 DFR=  2.69D-05 which will be used.
 Gradient too large for Newton-Raphson -- use scaled steepest descent instead.
     Minimum is close to point  3 DX=  1.10D-01 DF= -1.79D-05 DXR=  5.77D-02 DFR=  3.36D-03 which will be used.
 Gradient too large for Newton-Raphson -- use scaled steepest descent instead.
     Minimum is close to point  3 DX=  1.18D-02 DF= -3.84D-06 DXR=  2.87D-02 DFR=  8.23D-04 which will be used.
 Gradient too large for Newton-Raphson -- use scaled steepest descent instead.
 Gradient too large for Newton-Raphson -- use scaled steepest descent instead.
     Minimum is close to point  3 DX= -1.09D-02 DF= -4.04D-06 DXR=  2.79D-02 DFR=  7.79D-04 which will be used.
 Gradient too large for Newton-Raphson -- use scaled steepest descent instead.
     Accept linear search using points  2 and  3.
 Gradient too large for Newton-Raphson -- use scaled steepest descent instead.
     Accept linear search using points  1 and  2.
 Gradient too large for Newton-Raphson -- use scaled steepest descent instead.
     Minimum is close to point  3 DX=  1.24D-01 DF= -1.92D-05 DXR=  7.18D-02 DFR=  5.20D-03 which will be used.
 Gradient too large for Newton-Raphson -- use scaled steepest descent instead.
     Accept linear search using points  1 and  2.
 Gradient too large for Newton-Raphson -- use scaled steepest descent instead.
     Accept linear search using points  2 and  3.
     Minimum is close to point  3 DX= -5.59D-02 DF= -3.13D-06 DXR=  3.40D-02 DFR=  9.65D-04 which will be used.
 Gradient too large for Newton-Raphson -- use scaled steepest descent instead.
     Accept linear search using points  1 and  2.
 Gradient too large for Newton-Raphson -- use scaled steepest descent instead.
 Gradient too large for Newton-Raphson -- use scaled steepest descent instead.
     Accept linear search using points  1 and  2.
 Gradient too large for Newton-Raphson -- use scaled steepest descent instead.
     Minimum is close to point  3 DX=  8.97D-02 DF= -6.92D-06 DXR=  5.01D-02 DFR=  2.53D-03 which will be used.
 Gradient too large for Newton-Raphson -- use scaled steepest descent instead.
     Accept linear search using points  1 and  2.
 Gradient too large for Newton-Raphson -- use scaled steepest descent instead.
     Minimum is close to point  3 DX=  9.13D-03 DF= -6.73D-08 DXR=  5.34D-03 DFR=  2.86D-05 which will be used.
 Gradient too large for Newton-Raphson -- use scaled steepest descent instead.
     Accept linear search using points  1 and  2.
 Gradient too large for Newton-Raphson -- use scaled steepest descent instead.
     Minimum is close to point  3 DX=  3.97D-02 DF= -1.10D-06 DXR=  2.28D-02 DFR=  5.24D-04 which will be used.
 Gradient too large for Newton-Raphson -- use scaled steepest descent instead.
     Accept linear search using points  1 and  2.
 Gradient too large for Newton-Raphson -- use scaled steepest descent instead.
     Minimum is close to point  3 DX=  2.21D-02 DF= -3.02D-07 DXR=  1.28D-02 DFR=  1.65D-04 which will be used.
 Gradient too large for Newton-Raphson -- use scaled steepest descent instead.
     Accept linear search using points  1 and  2.
 Gradient too large for Newton-Raphson -- use scaled steepest descent instead.
     Minimum is close to point  3 DX=  2.67D-02 DF= -3.82D-07 DXR=  1.54D-02 DFR=  2.39D-04 which will be used.
 Gradient too large for Newton-Raphson -- use scaled steepest descent instead.
     Accept linear search using points  1 and  2.
 Gradient too large for Newton-Raphson -- use scaled steepest descent instead.
     Minimum is close to point  3 DX=  2.25D-02 DF= -2.37D-07 DXR=  1.31D-02 DFR=  1.71D-04 which will be used.
 Gradient too large for Newton-Raphson -- use scaled steepest descent instead.
     Accept linear search using points  1 and  2.
 Gradient too large for Newton-Raphson -- use scaled steepest descent instead.
     Minimum is close to point  3 DX=  2.31D-02 DF= -2.14D-07 DXR=  1.34D-02 DFR=  1.80D-04 which will be used.
 Gradient too large for Newton-Raphson -- use scaled steepest descent instead.
     Accept linear search using points  1 and  2.
 Gradient too large for Newton-Raphson -- use scaled steepest descent instead.
     Minimum is close to point  3 DX=  2.23D-02 DF= -1.72D-07 DXR=  1.30D-02 DFR=  1.69D-04 which will be used.
 Gradient too large for Newton-Raphson -- use scaled steepest descent instead.
     Accept linear search using points  1 and  2.
 Gradient too large for Newton-Raphson -- use scaled steepest descent instead.
     Minimum is close to point  3 DX=  2.28D-02 DF= -1.54D-07 DXR=  1.32D-02 DFR=  1.76D-04 which will be used.
 Gradient too large for Newton-Raphson -- use scaled steepest descent instead.
     Accept linear search using points  1 and  2.
 Gradient too large for Newton-Raphson -- use scaled steepest descent instead.
     Minimum is close to point  3 DX=  2.33D-02 DF= -1.37D-07 DXR=  1.35D-02 DFR=  1.83D-04 which will be used.
 Gradient too large for Newton-Raphson -- use scaled steepest descent instead.
     Accept linear search using points  1 and  2.
 Gradient too large for Newton-Raphson -- use scaled steepest descent instead.
     Minimum is close to point  3 DX=  2.41D-02 DF= -1.25D-07 DXR=  1.40D-02 DFR=  1.95D-04 which will be used.
 Gradient too large for Newton-Raphson -- use scaled steepest descent instead.
     Accept linear search using points  1 and  2.
 Gradient too large for Newton-Raphson -- use scaled steepest descent instead.
     Minimum is close to point  3 DX=  2.50D-02 DF= -1.15D-07 DXR=  1.45D-02 DFR=  2.10D-04 which will be used.
 Gradient too large for Newton-Raphson -- use scaled steepest descent instead.
     Accept linear search using points  1 and  2.
 Gradient too large for Newton-Raphson -- use scaled steepest descent instead.
     Minimum is close to point  3 DX=  2.60D-02 DF= -1.07D-07 DXR=  1.51D-02 DFR=  2.27D-04 which will be used.
 Gradient too large for Newton-Raphson -- use scaled steepest descent instead.
     Accept linear search using points  1 and  2.
 Gradient too large for Newton-Raphson -- use scaled steepest descent instead.
     Minimum is close to point  3 DX=  2.71D-02 DF= -9.99D-08 DXR=  1.57D-02 DFR=  2.46D-04 which will be used.
 Gradient too large for Newton-Raphson -- use scaled steepest descent instead.
     Accept linear search using points  1 and  2.
 Gradient too large for Newton-Raphson -- use scaled steepest descent instead.
     Minimum is close to point  3 DX=  2.82D-02 DF= -9.32D-08 DXR=  1.63D-02 DFR=  2.66D-04 which will be used.
 Gradient too large for Newton-Raphson -- use scaled steepest descent instead.
     Accept linear search using points  1 and  2.
 LinEq1:  Iter=  0 NonCon=     1 RMS=3.44D-04 Max=2.70D-02 NDo=     1
 AX will form     1 AO Fock derivatives at one time.
 LinEq1:  Iter=  1 NonCon=     1 RMS=2.47D-04 Max=5.48D-03 NDo=     1
 LinEq1:  Iter=  2 NonCon=     1 RMS=1.02D-04 Max=4.92D-03 NDo=     1
 LinEq1:  Iter=  3 NonCon=     1 RMS=7.89D-05 Max=2.22D-03 NDo=     1
 LinEq1:  Iter=  4 NonCon=     1 RMS=9.34D-05 Max=5.04D-03 NDo=     1
 LinEq1:  Iter=  5 NonCon=     1 RMS=8.41D-05 Max=2.55D-03 NDo=     1
 LinEq1:  Iter=  6 NonCon=     1 RMS=7.40D-05 Max=2.49D-03 NDo=     1
 LinEq1:  Iter=  7 NonCon=     1 RMS=5.39D-05 Max=1.78D-03 NDo=     1
 LinEq1:  Iter=  8 NonCon=     1 RMS=4.82D-05 Max=1.63D-03 NDo=     1
 LinEq1:  Iter=  9 NonCon=     1 RMS=2.82D-05 Max=8.12D-04 NDo=     1
 LinEq1:  Iter= 10 NonCon=     1 RMS=2.08D-05 Max=6.53D-04 NDo=     1
 LinEq1:  Iter= 11 NonCon=     1 RMS=1.33D-05 Max=3.89D-04 NDo=     1
 LinEq1:  Iter= 12 NonCon=     1 RMS=1.12D-05 Max=2.67D-04 NDo=     1
 LinEq1:  Iter= 13 NonCon=     1 RMS=8.57D-06 Max=2.13D-04 NDo=     1
 LinEq1:  Iter= 14 NonCon=     1 RMS=6.75D-06 Max=1.12D-04 NDo=     1
 LinEq1:  Iter= 15 NonCon=     1 RMS=7.42D-06 Max=1.41D-04 NDo=     1
 LinEq1:  Iter= 16 NonCon=     1 RMS=9.19D-06 Max=1.74D-04 NDo=     1
 LinEq1:  Iter= 17 NonCon=     1 RMS=4.53D-06 Max=1.05D-04 NDo=     1
 LinEq1:  Iter= 18 NonCon=     1 RMS=2.21D-06 Max=5.57D-05 NDo=     1
 LinEq1:  Iter= 19 NonCon=     1 RMS=1.79D-06 Max=6.58D-05 NDo=     1
 LinEq1:  Iter= 20 NonCon=     1 RMS=1.56D-06 Max=6.84D-05 NDo=     1
 LinEq1:  Iter= 21 NonCon=     1 RMS=1.97D-06 Max=1.13D-04 NDo=     1
 LinEq1:  Iter= 22 NonCon=     1 RMS=1.20D-06 Max=7.51D-05 NDo=     1
 LinEq1:  Iter= 23 NonCon=     1 RMS=9.08D-07 Max=4.49D-05 NDo=     1
 LinEq1:  Iter= 24 NonCon=     1 RMS=7.73D-07 Max=2.77D-05 NDo=     1
 LinEq1:  Iter= 25 NonCon=     1 RMS=8.33D-07 Max=2.40D-05 NDo=     1
 LinEq1:  Iter= 26 NonCon=     1 RMS=4.79D-07 Max=9.18D-06 NDo=     1
 LinEq1:  Iter= 27 NonCon=     1 RMS=2.99D-07 Max=5.94D-06 NDo=     1
 LinEq1:  Iter= 28 NonCon=     1 RMS=1.99D-07 Max=4.23D-06 NDo=     1
 LinEq1:  Iter= 29 NonCon=     1 RMS=1.12D-07 Max=3.88D-06 NDo=     1
 LinEq1:  Iter= 30 NonCon=     1 RMS=8.68D-08 Max=2.74D-06 NDo=     1
 LinEq1:  Iter= 31 NonCon=     1 RMS=6.56D-08 Max=2.30D-06 NDo=     1
 LinEq1:  Iter= 32 NonCon=     1 RMS=3.99D-08 Max=1.56D-06 NDo=     1
 LinEq1:  Iter= 33 NonCon=     1 RMS=2.82D-08 Max=1.01D-06 NDo=     1
 LinEq1:  Iter= 34 NonCon=     1 RMS=1.35D-08 Max=4.68D-07 NDo=     1
 LinEq1:  Iter= 35 NonCon=     0 RMS=5.04D-09 Max=1.24D-07 NDo=     1
 Linear equations converged to 1.920D-08 1.920D-07 after    35 iterations.
     Accept linear search using points  1 and  2.
 Gradient too large for Newton-Raphson -- use scaled steepest descent instead.
     Minimum is close to point  3 DX= -3.76D-03 DF= -1.53D-08 DXR=  9.48D-03 DFR=  8.99D-05 which will be used.
 LinEq1:  Iter=  0 NonCon=     1 RMS=1.56D-04 Max=8.06D-03 NDo=     1
 LinEq1:  Iter=  1 NonCon=     1 RMS=2.67D-04 Max=1.05D-02 NDo=     1
 LinEq1:  Iter=  2 NonCon=     1 RMS=8.89D-05 Max=3.75D-03 NDo=     1
 LinEq1:  Iter=  3 NonCon=     1 RMS=7.30D-05 Max=2.52D-03 NDo=     1
 LinEq1:  Iter=  4 NonCon=     1 RMS=6.61D-05 Max=1.87D-03 NDo=     1
 LinEq1:  Iter=  5 NonCon=     1 RMS=7.29D-05 Max=1.95D-03 NDo=     1
 LinEq1:  Iter=  6 NonCon=     1 RMS=6.05D-05 Max=1.52D-03 NDo=     1
 LinEq1:  Iter=  7 NonCon=     1 RMS=4.13D-05 Max=9.71D-04 NDo=     1
 LinEq1:  Iter=  8 NonCon=     1 RMS=2.73D-05 Max=5.40D-04 NDo=     1
 LinEq1:  Iter=  9 NonCon=     1 RMS=2.30D-05 Max=6.96D-04 NDo=     1
 LinEq1:  Iter= 10 NonCon=     1 RMS=1.83D-05 Max=3.78D-04 NDo=     1
 LinEq1:  Iter= 11 NonCon=     1 RMS=1.40D-05 Max=2.72D-04 NDo=     1
 LinEq1:  Iter= 12 NonCon=     1 RMS=8.62D-06 Max=1.89D-04 NDo=     1
 LinEq1:  Iter= 13 NonCon=     1 RMS=6.94D-06 Max=1.29D-04 NDo=     1
 LinEq1:  Iter= 14 NonCon=     1 RMS=9.32D-06 Max=1.57D-04 NDo=     1
 LinEq1:  Iter= 15 NonCon=     1 RMS=7.85D-06 Max=1.33D-04 NDo=     1
 LinEq1:  Iter= 16 NonCon=     1 RMS=6.01D-06 Max=1.48D-04 NDo=     1
 LinEq1:  Iter= 17 NonCon=     1 RMS=3.61D-06 Max=7.64D-05 NDo=     1
 LinEq1:  Iter= 18 NonCon=     1 RMS=4.54D-06 Max=8.32D-05 NDo=     1
 LinEq1:  Iter= 19 NonCon=     1 RMS=3.61D-06 Max=9.68D-05 NDo=     1
 LinEq1:  Iter= 20 NonCon=     1 RMS=2.82D-06 Max=9.08D-05 NDo=     1
 LinEq1:  Iter= 21 NonCon=     1 RMS=1.59D-06 Max=8.03D-05 NDo=     1
 LinEq1:  Iter= 22 NonCon=     1 RMS=1.10D-06 Max=5.75D-05 NDo=     1
 LinEq1:  Iter= 23 NonCon=     1 RMS=9.79D-07 Max=4.97D-05 NDo=     1
 LinEq1:  Iter= 24 NonCon=     1 RMS=1.08D-06 Max=4.97D-05 NDo=     1
 LinEq1:  Iter= 25 NonCon=     1 RMS=7.13D-07 Max=3.01D-05 NDo=     1
 LinEq1:  Iter= 26 NonCon=     1 RMS=3.22D-07 Max=9.61D-06 NDo=     1
 LinEq1:  Iter= 27 NonCon=     1 RMS=2.18D-07 Max=6.53D-06 NDo=     1
 LinEq1:  Iter= 28 NonCon=     1 RMS=1.33D-07 Max=4.19D-06 NDo=     1
 LinEq1:  Iter= 29 NonCon=     1 RMS=7.32D-08 Max=2.51D-06 NDo=     1
 LinEq1:  Iter= 30 NonCon=     1 RMS=4.40D-08 Max=9.36D-07 NDo=     1
 LinEq1:  Iter= 31 NonCon=     1 RMS=2.74D-08 Max=6.19D-07 NDo=     1
 LinEq1:  Iter= 32 NonCon=     0 RMS=1.28D-08 Max=1.91D-07 NDo=     1
 Linear equations converged to 1.920D-08 1.920D-07 after    32 iterations.
     Minimum is close to point  2 DX=  3.80D-03 DF= -8.94D-09 DXR=  3.79D-03 DFR=  1.43D-05 which will be used.
 LinEq1:  Iter=  0 NonCon=     1 RMS=1.59D-05 Max=4.40D-04 NDo=     1
 LinEq1:  Iter=  1 NonCon=     1 RMS=2.60D-05 Max=9.73D-04 NDo=     1
 LinEq1:  Iter=  2 NonCon=     1 RMS=1.56D-05 Max=4.10D-04 NDo=     1
 LinEq1:  Iter=  3 NonCon=     1 RMS=1.60D-05 Max=5.99D-04 NDo=     1
 LinEq1:  Iter=  4 NonCon=     1 RMS=1.40D-05 Max=4.94D-04 NDo=     1
 LinEq1:  Iter=  5 NonCon=     1 RMS=1.24D-05 Max=4.44D-04 NDo=     1
 LinEq1:  Iter=  6 NonCon=     1 RMS=1.29D-05 Max=3.42D-04 NDo=     1
 LinEq1:  Iter=  7 NonCon=     1 RMS=1.32D-05 Max=4.33D-04 NDo=     1
 LinEq1:  Iter=  8 NonCon=     1 RMS=9.21D-06 Max=2.29D-04 NDo=     1
 LinEq1:  Iter=  9 NonCon=     1 RMS=7.88D-06 Max=1.67D-04 NDo=     1
 LinEq1:  Iter= 10 NonCon=     1 RMS=5.89D-06 Max=1.17D-04 NDo=     1
 LinEq1:  Iter= 11 NonCon=     1 RMS=3.59D-06 Max=8.62D-05 NDo=     1
 LinEq1:  Iter= 12 NonCon=     1 RMS=2.04D-06 Max=4.32D-05 NDo=     1
 LinEq1:  Iter= 13 NonCon=     1 RMS=1.54D-06 Max=3.75D-05 NDo=     1
 LinEq1:  Iter= 14 NonCon=     1 RMS=1.18D-06 Max=3.01D-05 NDo=     1
 LinEq1:  Iter= 15 NonCon=     1 RMS=1.58D-06 Max=3.78D-05 NDo=     1
 LinEq1:  Iter= 16 NonCon=     1 RMS=1.32D-06 Max=5.46D-05 NDo=     1
 LinEq1:  Iter= 17 NonCon=     1 RMS=1.16D-06 Max=5.04D-05 NDo=     1
 LinEq1:  Iter= 18 NonCon=     1 RMS=1.23D-06 Max=6.71D-05 NDo=     1
 LinEq1:  Iter= 19 NonCon=     1 RMS=1.45D-06 Max=7.55D-05 NDo=     1
 LinEq1:  Iter= 20 NonCon=     1 RMS=8.93D-07 Max=4.89D-05 NDo=     1
 LinEq1:  Iter= 21 NonCon=     1 RMS=5.03D-07 Max=1.70D-05 NDo=     1
 LinEq1:  Iter= 22 NonCon=     1 RMS=3.66D-07 Max=8.98D-06 NDo=     1
 LinEq1:  Iter= 23 NonCon=     1 RMS=2.68D-07 Max=5.05D-06 NDo=     1
 LinEq1:  Iter= 24 NonCon=     1 RMS=2.25D-07 Max=5.12D-06 NDo=     1
 LinEq1:  Iter= 25 NonCon=     1 RMS=1.23D-07 Max=2.26D-06 NDo=     1
 LinEq1:  Iter= 26 NonCon=     1 RMS=8.94D-08 Max=1.49D-06 NDo=     1
 LinEq1:  Iter= 27 NonCon=     1 RMS=9.01D-08 Max=1.67D-06 NDo=     1
 LinEq1:  Iter= 28 NonCon=     1 RMS=6.93D-08 Max=1.37D-06 NDo=     1
 LinEq1:  Iter= 29 NonCon=     1 RMS=3.79D-08 Max=8.49D-07 NDo=     1
 LinEq1:  Iter= 30 NonCon=     1 RMS=1.78D-08 Max=2.81D-07 NDo=     1
 LinEq1:  Iter= 31 NonCon=     1 RMS=1.34D-08 Max=3.89D-07 NDo=     1
 LinEq1:  Iter= 32 NonCon=     1 RMS=6.73D-09 Max=1.60D-07 NDo=     1
 LinEq1:  Iter= 33 NonCon=     1 RMS=3.16D-09 Max=8.73D-08 NDo=     1
 LinEq1:  Iter= 34 NonCon=     0 RMS=1.37D-09 Max=3.97D-08 NDo=     1
 Linear equations converged to 8.485D-09 8.485D-08 after    34 iterations.
     Minimum is close to point  2 DX=  5.77D-03 DF= -1.21D-10 DXR=  5.74D-03 DFR=  3.29D-05 which will be used.
 LinEq1:  Iter=  0 NonCon=     1 RMS=8.27D-08 Max=7.00D-06 NDo=     1
 LinEq1:  Iter=  1 NonCon=     1 RMS=1.25D-07 Max=7.60D-06 NDo=     1
 LinEq1:  Iter=  2 NonCon=     1 RMS=8.79D-08 Max=3.01D-06 NDo=     1
 LinEq1:  Iter=  3 NonCon=     1 RMS=9.30D-08 Max=2.43D-06 NDo=     1
 LinEq1:  Iter=  4 NonCon=     1 RMS=6.86D-08 Max=2.12D-06 NDo=     1
 LinEq1:  Iter=  5 NonCon=     1 RMS=6.76D-08 Max=1.71D-06 NDo=     1
 LinEq1:  Iter=  6 NonCon=     1 RMS=7.76D-08 Max=1.68D-06 NDo=     1
 LinEq1:  Iter=  7 NonCon=     1 RMS=5.13D-08 Max=1.19D-06 NDo=     1
 LinEq1:  Iter=  8 NonCon=     1 RMS=3.65D-08 Max=1.09D-06 NDo=     1
 LinEq1:  Iter=  9 NonCon=     1 RMS=2.74D-08 Max=7.06D-07 NDo=     1
 LinEq1:  Iter= 10 NonCon=     1 RMS=2.34D-08 Max=5.03D-07 NDo=     1
 LinEq1:  Iter= 11 NonCon=     1 RMS=1.84D-08 Max=6.20D-07 NDo=     1
 LinEq1:  Iter= 12 NonCon=     1 RMS=1.56D-08 Max=6.08D-07 NDo=     1
 LinEq1:  Iter= 13 NonCon=     1 RMS=1.10D-08 Max=5.69D-07 NDo=     1
 LinEq1:  Iter= 14 NonCon=     1 RMS=1.24D-08 Max=5.47D-07 NDo=     1
 LinEq1:  Iter= 15 NonCon=     1 RMS=1.49D-08 Max=7.28D-07 NDo=     1
 LinEq1:  Iter= 16 NonCon=     1 RMS=9.78D-09 Max=4.32D-07 NDo=     1
 LinEq1:  Iter= 17 NonCon=     1 RMS=8.14D-09 Max=2.76D-07 NDo=     1
 LinEq1:  Iter= 18 NonCon=     1 RMS=5.55D-09 Max=1.42D-07 NDo=     1
 LinEq1:  Iter= 19 NonCon=     1 RMS=6.43D-09 Max=1.37D-07 NDo=     1
 LinEq1:  Iter= 20 NonCon=     1 RMS=4.14D-09 Max=9.11D-08 NDo=     1
 LinEq1:  Iter= 21 NonCon=     1 RMS=3.39D-09 Max=9.27D-08 NDo=     1
 LinEq1:  Iter= 22 NonCon=     1 RMS=3.88D-09 Max=1.34D-07 NDo=     1
 LinEq1:  Iter= 23 NonCon=     1 RMS=2.60D-09 Max=1.01D-07 NDo=     1
 LinEq1:  Iter= 24 NonCon=     1 RMS=2.03D-09 Max=8.18D-08 NDo=     1
 LinEq1:  Iter= 25 NonCon=     1 RMS=1.08D-09 Max=3.45D-08 NDo=     1
 LinEq1:  Iter= 26 NonCon=     1 RMS=7.46D-10 Max=1.84D-08 NDo=     1
 LinEq1:  Iter= 27 NonCon=     1 RMS=4.62D-10 Max=9.27D-09 NDo=     1
 LinEq1:  Iter= 28 NonCon=     1 RMS=2.76D-10 Max=4.30D-09 NDo=     1
 LinEq1:  Iter= 29 NonCon=     1 RMS=1.76D-10 Max=3.18D-09 NDo=     1
 LinEq1:  Iter= 30 NonCon=     1 RMS=1.37D-10 Max=1.63D-09 NDo=     1
 LinEq1:  Iter= 31 NonCon=     1 RMS=9.76D-11 Max=1.34D-09 NDo=     1
 LinEq1:  Iter= 32 NonCon=     1 RMS=7.03D-11 Max=1.31D-09 NDo=     1
 LinEq1:  Iter= 33 NonCon=     1 RMS=4.89D-11 Max=1.06D-09 NDo=     1
 LinEq1:  Iter= 34 NonCon=     1 RMS=2.64D-11 Max=5.63D-10 NDo=     1
 LinEq1:  Iter= 35 NonCon=     0 RMS=1.09D-11 Max=1.90D-10 NDo=     1
 Linear equations converged to 4.160D-11 4.160D-10 after    35 iterations.
 SCF Done:  E(RPM6) =  -5.50593769547     a.u. after  221 cycles
            Convg  =    0.5591D-07                   753 Fock formations.
              S**2 =  0.0000                  -V/T =  0.9667
 Range of M.O.s used for correlation:     1   272
 NBasis=   272 NAE=   144 NBE=   144 NFC=     0 NFV=     0
 NROrb=    272 NOA=   144 NOB=   144 NVA=   128 NVB=   128

 **** Warning!!: The smallest alpha delta epsilon is  0.97223803D-01

 Symmetrizing basis deriv contribution to polar:
 IMax=3 JMax=2 DiffMx= 0.00D+00
 G2DrvN: will do    49 centers at a time, making    1 passes.
 Calling FoFCou, ICntrl=  3107 FMM=F I1Cent=   0 AccDes= 0.00D+00.
 End of G2Drv F.D. properties file   721 does not exist.
 End of G2Drv F.D. properties file   722 does not exist.
 End of G2Drv F.D. properties file   788 does not exist.
          IDoAtm=000000000000000100000000000000000100000000000000
          Differentiating once with respect to electric field.
                with respect to dipole field.
          Differentiating once with respect to nuclear coordinates.
          Electric field/nuclear overlap derivatives assumed to be zero.
 Keep J ints in memory in canonical form, NReq=2441573.
          There are     9 degrees of freedom in the 1st order CPHF.  IDoFFX=5 NUNeed=     9.
 LinEq1:  Iter=  0 NonCon=     9 RMS=6.41D-01 Max=3.12D+01 NDo=     9
 AX will form     9 AO Fock derivatives at one time.
 LinEq1:  Iter=  1 NonCon=     9 RMS=5.40D-01 Max=1.43D+01 NDo=     9
 LinEq1:  Iter=  2 NonCon=     9 RMS=5.41D-01 Max=1.66D+01 NDo=     9
 LinEq1:  Iter=  3 NonCon=     9 RMS=5.25D-01 Max=2.24D+01 NDo=     9
 LinEq1:  Iter=  4 NonCon=     9 RMS=4.43D-01 Max=1.26D+01 NDo=     9
 LinEq1:  Iter=  5 NonCon=     9 RMS=4.74D-01 Max=1.76D+01 NDo=     9
 LinEq1:  Iter=  6 NonCon=     9 RMS=5.15D-01 Max=1.34D+01 NDo=     9
 LinEq1:  Iter=  7 NonCon=     9 RMS=3.87D-01 Max=9.46D+00 NDo=     9
 LinEq1:  Iter=  8 NonCon=     9 RMS=3.05D-01 Max=8.89D+00 NDo=     9
 LinEq1:  Iter=  9 NonCon=     9 RMS=2.63D-01 Max=9.12D+00 NDo=     9
 LinEq1:  Iter= 10 NonCon=     9 RMS=2.15D-01 Max=9.28D+00 NDo=     9
 LinEq1:  Iter= 11 NonCon=     9 RMS=1.21D-01 Max=4.73D+00 NDo=     9
 LinEq1:  Iter= 12 NonCon=     9 RMS=7.23D-02 Max=2.48D+00 NDo=     9
 LinEq1:  Iter= 13 NonCon=     9 RMS=6.14D-02 Max=1.96D+00 NDo=     9
 LinEq1:  Iter= 14 NonCon=     9 RMS=3.06D-02 Max=7.41D-01 NDo=     9
 LinEq1:  Iter= 15 NonCon=     9 RMS=1.45D-02 Max=3.10D-01 NDo=     9
[...]
 .,0.,0.,0.,0.,0.,0.,0.,0.,0.,0.,0.,0.,0.,0.,0.,0.,0.,0.,0.,0.,0.,0.,0.
 ,0.,0.,0.,0.,0.,0.,0.,0.,0.,0.,0.,0.,0.,0.,0.,0.,0.,0.,0.,0.,0.,0.,0.,
 0.,0.,0.,0.,0.,0.,0.,0.,0.,0.,0.,0.,0.,0.,0.,0.,0.,0.,0.,0.,0.,0.,0.,0
 .,0.,0.,0.,0.,0.,0.,0.,0.,0.,0.,0.,0.,0.,0.,0.,0.,0.,0.,0.,0.,0.,0.,0.
 ,0.,0.,0.,0.,0.,0.,0.,0.,0.,0.,0.,0.,0.,0.,0.,0.,0.,0.,0.,0.,0.,0.,0.,
 0.,0.,0.,0.,0.,0.,0.,0.,0.,0.,0.,0.,0.,0.,0.,0.,0.,0.,0.,0.,0.,0.,0.,0
 .,0.,0.,0.,0.,0.,0.,0.,0.,0.,0.,0.,0.,0.,0.,0.,0.,0.,0.,0.,0.,0.,0.,0.
 ,0.,0.,0.,0.,0.,0.,0.,0.,0.,0.,0.,0.,0.,0.,0.,0.,0.,0.,0.,0.,0.,0.,0.,
 0.,0.,0.,0.,0.,0.,0.,0.,0.,0.,0.,0.,0.,0.,0.,0.,0.,0.,0.,0.,0.,0.,0.,0
 .,0.,0.,0.,0.,0.,0.,0.,0.,0.,0.,0.,0.,0.,0.,0.,0.,0.,0.,0.,0.,0.,0.,0.
 ,0.,0.,0.,0.,0.,0.,0.,0.,0.,0.,0.,0.,0.,0.,0.,0.,0.,0.,0.,0.,0.,0.,0.,
 0.,0.,0.,0.,0.,0.,0.,0.,0.,0.,0.,0.,0.,0.,0.,0.,0.,0.,0.,0.,0.,0.,0.,0
 .,0.,0.,0.,0.,0.,0.,0.,0.,0.,0.,0.,0.,0.,0.,0.,0.,0.,0.,0.,0.,0.,0.,0.
 ,0.,0.,0.,0.,0.,0.,0.,0.,0.,0.,0.,0.,0.,0.,0.,0.,0.,0.,0.,0.,0.,0.,0.,
 0.,0.,0.,0.,0.,0.,0.,0.,0.,0.,0.,0.,0.,0.,0.,0.,0.,0.,0.,0.,0.,0.,0.,0
 .,0.,0.,0.,0.,0.,0.,0.,0.,0.,0.,0.,0.,0.,0.,0.,0.,0.,0.,0.,0.,0.,0.,0.
 ,0.,0.,0.,0.,0.,0.,0.,0.,0.,0.,0.,0.,0.,0.,0.,0.,0.,0.,0.,0.,0.,0.,0.,
 0.,0.,0.,0.,0.,0.,0.,0.,0.,0.,0.,0.,0.,0.,0.,0.,0.,0.,0.,0.,0.,0.,0.,0
 .,0.,0.,0.,0.,0.,0.,0.,0.,0.,0.,0.,0.,0.,0.,0.,0.,0.,0.,0.,0.,0.,0.,0.
 ,0.,0.,0.,0.,0.,0.,0.,0.,0.,0.,0.,0.,0.,0.,0.,0.,0.,0.,0.,0.,0.,0.,0.,
 0.,0.,0.,0.,0.,0.,0.,0.,0.,0.,0.,0.,0.,0.,0.,0.,0.,0.,0.,0.,0.,0.,0.,0
 .,0.,0.,0.,0.,0.,0.,0.,0.,0.,0.,0.,0.,0.,0.,0.,0.,0.,0.,0.,0.,0.,0.,0.
 ,0.,0.,0.,0.,0.,0.,0.,0.,0.,0.,0.,0.,0.,0.,0.,0.,0.,0.,0.,0.,0.,0.,0.,
 0.,0.,0.,0.,0.,0.,0.,0.,0.,0.,0.,0.,0.,0.,0.,0.,0.,0.,0.,0.,0.,0.,0.,0
 .,0.,0.,0.,0.,0.,0.,0.,0.,0.,0.,0.,0.,0.,0.,0.,0.,0.,0.,0.,0.,0.,0.,0.
 ,0.,0.,0.,0.,0.,0.,0.,0.,0.,0.,0.,0.,0.,0.,0.,0.,0.,0.,0.,0.,0.,0.,0.,
 0.,0.,0.,0.,0.,0.,0.,0.,0.,0.,0.,0.,0.,0.,0.,0.,0.,0.,0.,0.,0.,0.,0.,0
 .,0.,0.,0.,0.,0.,0.,0.,0.,0.,0.,0.,0.,0.,0.,0.,0.,0.,0.,0.,0.,0.,0.,0.
 ,0.,0.,0.,0.,0.,0.,0.,0.,0.,0.,0.,0.,0.,0.,0.,0.,0.,0.,0.,0.,0.,0.,0.,
 0.,0.,0.,0.,0.,0.,0.,0.,0.,0.,0.,0.,0.,0.,0.,0.,0.,0.,0.,0.,0.,0.,0.,0
 .,0.,0.,0.,0.,0.,0.,0.,0.,0.,0.,0.,0.,0.,0.,-0.17583955,0.00000047,0.0
 0453730,0.,0.,0.,0.,0.,0.,0.,0.,0.,0.,0.,0.,0.,0.,0.,0.,0.,0.,0.,0.,0.
 ,0.,0.,0.,0.,0.,0.,0.,0.,0.,0.,0.,0.,0.,0.,0.,0.,0.,0.,0.,0.,0.,0.,0.,
 0.,0.,0.,0.,0.,0.,0.,0.19341540,0.,0.,0.,0.,0.,0.,0.,0.,0.,0.,0.,0.,0.
 ,0.,0.,0.,0.,0.,0.,0.,0.,0.,0.,0.,0.,0.,0.,0.,0.,0.,0.,0.,0.,0.,0.,0.,
 0.,0.,0.,0.,0.,0.,0.,0.,0.,-0.00000091,0.00416388,-0.00000122,0.,0.,0.
 ,0.,0.,0.,0.,0.,0.,0.,0.,0.,0.,0.,0.,0.,0.,0.,0.,0.,0.,0.,0.,0.,0.,0.,
 0.,0.,0.,0.,0.,0.,0.,0.,0.,0.,0.,0.,0.,0.,0.,0.,0.,0.,0.,0.,0.,0.,0.,0
 .,0.,0.00000091,0.00327890,0.,0.,0.,0.,0.,0.,0.,0.,0.,0.,0.,0.,0.,0.,0
 .,0.,0.,0.,0.,0.,0.,0.,0.,0.,0.,0.,0.,0.,0.,0.,0.,0.,0.,0.,0.,0.,0.,0.
 ,0.,0.,0.,0.,0.,0.,0.,-0.00453730,-0.00000062,0.00772820,0.,0.,0.,0.,0
 .,0.,0.,0.,0.,0.,0.,0.,0.,0.,0.,0.,0.,0.,0.,0.,0.,0.,0.,0.,0.,0.,0.,0.
 ,0.,0.,0.,0.,0.,0.,0.,0.,0.,0.,0.,0.,0.,0.,0.,0.,0.,0.,0.,0.,0.,0.,0.,
 0.03869269,-0.00000123,0.09747925,0.,0.,0.,0.,0.,0.,0.,0.,0.,0.,0.,0.,
 0.,0.,0.,0.,0.,0.,0.,0.,0.,0.,0.,0.,0.,0.,0.,0.,0.,0.,0.,0.,0.,0.,0.,0
 .,0.,0.,0.,0.,0.,0.,0.,0.,0.,0.,0.,0.,0.,0.,0.,0.,0.,0.,0.,0.,0.,0.,0.
 ,0.,0.,0.,0.,0.,0.,0.,0.,0.,0.,0.,0.,0.,0.,0.,0.,0.,0.,0.,0.,0.,0.,0.,
 0.,0.,0.,0.,0.,0.,0.,0.,0.,0.,0.,0.,0.,0.,0.,0.,0.,0.,0.,0.,0.,0.,0.,0
 .,0.,0.,0.,0.,0.,0.,0.,0.,0.,0.,0.,0.,0.,0.,0.,0.,0.,0.,0.,0.,0.,0.,0.
 ,0.,0.,0.,0.,0.,0.,0.,0.,0.,0.,0.,0.,0.,0.,0.,0.,0.,0.,0.,0.,0.,0.,0.,
 0.,0.,0.,0.,0.,0.,0.,0.,0.,0.,0.,0.,0.,0.,0.,0.,0.,0.,0.,0.,0.,0.,0.,0
 .,0.,0.,0.,0.,0.,0.,0.,0.,0.,0.,0.,0.,0.,0.,0.,0.,0.,0.,0.,0.,0.,0.,0.
 ,0.,0.,0.,0.,0.,0.,0.,0.,0.,0.,0.,0.,0.,0.,0.,0.,0.,0.,0.,0.,0.,0.,0.,
 0.,0.,0.,0.,0.,0.,0.,0.,0.,0.,0.,0.,0.,0.,0.,0.,0.,0.,0.,0.,0.,0.,0.,0
 .,0.,0.,0.,0.,0.,0.,0.,0.,0.,0.,0.,0.,0.,0.,0.,0.,0.,0.,0.,0.,0.,0.,0.
 ,0.,0.,0.,0.,0.,0.,0.,0.,0.,0.,0.,0.,0.,0.,0.,0.,0.,0.,0.,0.,0.,0.,0.,
 0.,0.,0.,0.,0.,0.,0.,0.,0.,0.,0.,0.,0.,0.,0.,0.,0.,0.,0.,0.,0.,0.,0.,0
 .,0.,0.,0.,0.,0.,0.,0.,0.,0.,0.,0.,0.,0.,0.,0.,0.,0.,0.,0.,0.,0.,0.,0.
 ,0.,0.,0.,0.,0.,0.,0.,0.,0.,0.,0.,0.,0.,0.,0.,0.,0.,0.,0.,0.,0.,0.,0.,
 0.,0.,0.,0.,0.,0.,0.,0.,0.,0.,0.,0.,0.,0.,0.,0.,0.,0.,0.,0.,0.,0.,0.,0
 .,0.,0.,0.,0.,0.,0.,0.,0.,0.,0.,0.,0.,0.,0.,0.,0.,0.,0.,0.,0.,0.,0.,0.
 ,0.,0.,0.,0.,0.,0.,0.,0.,0.,0.,0.,0.,0.,0.,0.,0.,0.,0.,0.,0.,0.,0.,0.,
 0.,0.,0.,0.,0.,0.,0.,0.,0.,0.,0.,0.,0.,0.,0.,0.,0.,0.,0.,0.,0.,0.,0.,0
 .,0.,0.,0.,0.,0.,0.,0.,0.,0.,0.,0.,0.,0.,0.,0.,0.,0.,0.,0.,0.,0.,0.,0.
 ,0.,0.,0.,0.,0.,0.,0.,0.,0.,0.,0.,0.,0.,0.,0.,0.,0.,0.,0.,0.,0.,0.,0.,
 0.,0.,0.,0.,0.,0.,0.,0.,0.,0.,0.,0.,0.,0.,0.,0.,0.,0.,0.,0.,0.,0.,0.,0
 .,0.,0.,0.,0.,0.,0.,0.,0.,0.,0.,0.,0.,0.,0.,0.,0.,0.,0.,0.,0.,0.,0.,0.
 ,0.,0.,0.,0.,0.,0.,0.,0.,0.,0.,0.,0.,0.,0.,0.,0.,0.,0.,0.,0.,0.,0.,0.,
 0.,0.,0.,0.,0.,0.,0.,0.,0.,0.,0.,0.,0.,0.,0.,0.,0.,0.,0.,0.,0.,0.,0.,0
 .,0.,0.,0.,0.,0.,0.,0.,0.,0.,0.,0.,0.,0.,0.,0.,0.,0.,0.,0.,0.,0.,0.,0.
 ,0.,0.,0.,0.,0.,0.,0.,0.,0.,0.,0.,0.,0.,0.,0.,0.,0.,0.,0.,0.,0.,0.,0.,
 0.,0.,0.,0.,0.,0.,0.,0.,0.,0.,0.,0.,0.,0.,0.,0.,0.,0.,0.,0.,0.,0.,0.,0
 .,0.,0.,0.,0.,0.,0.,0.,0.,0.,0.,0.,0.,0.,0.,0.,0.,0.,0.,0.,0.,0.,0.,0.
 ,0.,0.,0.,0.,0.,0.,0.,0.,0.,0.,0.,0.,0.,0.,0.,0.,0.,0.,0.,0.,0.,0.,0.,
 0.,0.,0.,0.,0.,0.,0.,0.,0.,0.,0.,0.,0.,0.,0.,0.,0.,0.,0.,0.,0.,0.,0.,0
 .,0.,0.,0.,0.,0.,0.,0.,0.,0.,0.,0.,0.,0.,0.,0.,0.,0.,0.,0.,0.,0.,0.,0.
 ,0.,0.,0.,0.,0.,0.,0.,0.,0.,0.,0.,0.,0.,0.,0.,0.,0.,0.,0.,0.,0.,0.,0.,
 0.,0.,0.,0.,0.,0.,0.,0.,0.,0.,0.,0.,0.,0.,0.,0.,0.,0.,0.,0.,0.,0.,0.,0
 .,0.,0.,0.,0.,0.,0.,0.,0.,0.,0.,0.,0.,0.,0.,0.,0.,0.,0.,0.,0.,0.,0.,0.
 ,0.,0.,0.,0.,0.,0.,0.,0.,0.,0.,0.,0.,0.,0.,0.,0.,0.,0.,0.,0.,0.,0.,0.,
 0.,0.,0.,0.,0.,0.,0.,0.,0.,0.,0.,0.,0.,0.,0.,0.,0.,0.,0.,0.,0.,0.,0.,0
 .,0.,0.,0.,0.,0.,0.,0.,0.,0.,0.,0.,0.,0.,0.,0.,0.,0.,0.,0.,0.,0.,0.,0.
 ,0.,0.,0.,0.,0.,0.,0.,0.,0.,0.,0.,0.,0.,0.,0.,0.,0.,0.,0.,0.,0.,0.,0.,
 0.,0.,0.,0.,0.,0.,0.,0.,0.,0.,0.,0.,0.,0.,0.,0.,0.,0.,0.,0.,0.,0.,0.,0
 .,0.,0.,0.,0.,0.,0.,0.,0.,0.,0.,0.,0.,0.,0.,0.,0.,0.,0.,0.,0.,0.,0.,0.
 ,0.,0.,0.,0.,0.,0.,0.,0.,0.,0.,0.,0.,0.,0.,0.,0.,0.,0.,0.,0.,0.,0.,0.,
 0.,0.,0.,0.,0.,0.,0.,0.,0.,0.,0.,0.,0.,0.,0.,0.,0.,0.,0.,0.,0.,0.,0.,0
 .,0.,0.,0.,0.,0.,0.,0.,0.,0.,0.,0.,0.,0.,0.,0.,0.,0.,0.,0.,0.,0.,0.,0.
 ,0.,0.,0.,0.,0.,0.,0.,0.,0.,0.,0.,0.,0.,0.,0.,0.,0.,0.,0.,0.,0.,0.,0.,
 0.,0.,0.,0.,0.,0.,0.,0.,0.,0.,0.,0.,0.,0.,0.,0.,0.,0.,0.,0.,0.,0.,0.,0
 .,0.,0.,0.,0.,0.,0.,0.,0.,0.,0.,0.,0.,0.,0.,0.,0.,0.,0.,0.,0.,0.,0.,0.
 ,0.,0.,0.,0.,0.,0.,0.,0.,0.,0.,0.,0.,0.,0.,0.,0.,0.,0.,0.,0.,0.,0.,0.,
 0.,0.,0.,0.,0.,0.,0.,0.,0.,0.,0.,0.,0.,0.,0.,0.,0.,0.,0.,0.,0.,0.,0.,0
 .,0.,0.,0.,0.,0.,0.,0.,0.,0.,0.,0.,0.,0.,0.,0.,0.,0.,0.,0.,0.,0.,0.,0.
 ,0.,0.,0.,0.,0.,0.,0.,0.,0.,0.,0.,0.,0.,0.,0.,0.,0.,0.,0.,0.,0.,0.,0.,
 0.,0.,0.,0.,0.,0.,0.,0.,0.,0.,0.,0.,0.,0.,0.,0.,0.,0.,0.,0.,0.,0.,0.,0
 .,0.,0.,0.,0.,0.,0.,0.,0.,0.,0.,0.,0.,0.,0.,0.,0.,0.,0.,0.,0.,0.,0.,0.
 ,0.,0.,0.,0.,0.,0.,0.,0.,0.,0.,0.,0.,0.,0.,0.,0.,0.,0.,0.,0.,0.,0.,0.,
 0.,0.,0.,0.,0.,0.,0.,0.,0.,0.,0.,0.,0.,0.,0.,0.,0.,0.,0.,0.,0.,0.,0.,0
 .,0.,0.,0.,0.,0.,0.,0.,0.,0.,0.,0.,0.,0.,0.,0.,0.,0.,0.,0.,0.,0.,0.,0.
 ,0.,0.,0.,0.,0.,0.,0.,0.,0.,0.,0.,0.,0.,0.,0.,0.,0.,0.,0.,0.,0.,0.,0.,
 0.,0.,0.,0.,0.,0.,0.,0.,0.,0.,0.,0.,0.,0.,0.,0.,0.,0.,0.,0.,0.,0.,0.,0
 .,0.,0.,0.,0.,0.,0.,0.,0.,0.,0.,0.,0.,0.,0.,0.,0.,0.,0.,0.,0.,0.,0.,0.
 ,0.,0.,0.,0.,0.,0.,0.,0.,0.,0.,0.,0.,0.,0.,0.,0.,0.,0.,0.,0.,0.,0.,0.,
 0.,0.,0.,0.,0.,0.,0.,0.,0.,0.,0.,0.,0.,0.,0.,0.,0.,0.,0.,0.,0.,0.,0.,0
 .,0.,0.,0.,0.,0.,0.,0.,0.,0.,0.,0.,0.,0.,0.,0.,0.,0.,0.,0.,0.,0.,0.,0.
 ,0.,0.,0.,0.,0.,0.,0.,0.,0.,0.,0.,0.,0.,0.,0.,0.,0.,0.,0.,0.,0.,0.,0.,
 0.,0.,0.,0.,0.,0.,0.,0.,0.,0.,0.,0.,0.,0.,0.,0.,0.,0.,0.,0.,0.,0.,0.,0
 .,0.,0.,0.,0.,0.,0.,0.,0.,0.,0.,0.,0.,0.,0.,0.,0.,0.,0.,0.,0.,0.,0.,0.
 ,0.,0.,0.,0.,0.,0.,0.,0.,0.,0.,0.,0.,0.,0.,0.,0.,0.,0.,0.,0.,0.,0.,0.,
 0.,0.,0.,0.,0.,0.,0.,0.,0.,0.,0.,0.,0.,0.,0.,0.,0.,0.,0.,0.,0.,0.,0.,0
 .,0.,0.,0.,0.,0.,0.,0.,0.,0.,0.,0.,0.,0.,0.,0.,0.,0.,0.,0.,0.,0.,0.,0.
 ,0.,0.,0.,0.,0.,0.,0.,0.,0.,0.,0.,0.,0.,0.,0.,0.,0.,0.,0.,0.,0.,0.,0.,
 0.,0.,0.,0.,0.,0.,0.,0.,0.,0.,0.,0.,0.,0.,0.,0.,0.,0.,0.,0.,0.,0.,0.,0
 .,0.,0.,0.,0.,0.,0.,0.,0.,0.,0.,0.,0.,0.,0.,0.,0.,0.,0.,0.,0.,0.,0.,0.
 ,0.,0.,0.,0.,0.,0.,0.,0.,0.,0.,0.,0.,0.,0.,0.,0.,0.,0.,0.,0.,0.,0.,0.,
 0.,0.,0.,0.,0.,0.,0.,0.,0.,0.,0.,0.,0.,0.,0.,0.,0.,0.,0.,0.,0.,0.,0.,0
 .,0.,0.,0.,0.,0.,0.,0.,0.,0.,0.,0.,0.,0.,0.,0.,0.,0.,0.,0.,0.,0.,0.,0.
 ,0.,0.,0.,0.,0.,0.,0.,0.,0.,0.,0.,0.,0.,0.,0.,0.,0.,0.,0.,0.,0.,0.,0.,
 0.,0.,0.,0.,0.,0.,0.,0.,0.,0.,0.,0.,0.,0.,0.,0.,0.,0.,0.,0.,0.,0.,0.,0
 .,0.,0.,0.,0.,0.,0.,0.,0.,0.,0.,0.,0.,0.,0.,0.,0.,0.,0.,0.,0.,0.,0.,0.
 ,0.,0.,0.,0.,0.,0.,0.,0.,0.,0.,0.,0.,0.,0.,0.,0.,0.,0.,0.,0.,0.,0.,0.,
 0.,0.,0.,0.,0.,0.,0.,0.,0.,0.,0.,0.,0.,0.,0.,0.,0.,0.,0.,0.,0.,0.,0.,0
 .,0.,0.,0.,0.,0.,0.,0.,0.,0.,0.,0.,0.,0.,0.,0.,0.,0.,0.,0.,0.,0.,0.,0.
 ,0.,0.,0.,0.,0.,0.,0.,0.,0.,0.,0.,0.,0.,0.,0.,0.,0.,0.,0.,0.,0.,0.,0.,
 0.,0.,0.,0.,0.,0.,0.,0.,0.,0.,0.,0.,0.,0.,0.,0.,0.,0.,0.,0.,0.,0.,0.,0
 .,0.,0.,0.,0.,0.,0.,0.,0.,0.,0.,0.,0.,0.,0.,0.,0.,0.,0.,0.,0.,0.,0.,0.
 ,0.,0.,0.,0.,0.,0.,0.,0.,0.,0.,0.,0.,0.,0.,0.,0.,0.,0.,0.,0.,0.,0.,0.,
 0.,0.,0.,0.,0.,0.,0.,0.,0.,0.,0.,0.,0.,0.,0.,0.,0.,0.,0.,0.,0.,0.,0.,0
 .,0.,0.,0.,0.,0.,0.,0.,0.,0.,0.,0.,0.,0.,0.,0.,0.,0.,0.,0.,0.,0.,0.,0.
 ,0.,0.,0.,0.,0.,0.,0.,0.,0.,0.,0.,0.,0.,0.,0.,0.,0.,0.,0.,0.,0.,0.,0.,
 0.,0.,0.,0.,0.,0.,0.,0.,0.,0.,0.,0.,0.,0.,0.,0.,0.,0.,0.,0.,0.,0.,0.,0
 .,0.,0.,0.,0.,0.,0.,0.,0.,0.,0.,0.,0.,0.,0.,0.,0.,0.,0.,0.,0.,0.,0.,0.
 ,0.,0.,0.,0.,0.,0.,0.,0.,0.,0.,0.,0.,0.,0.,0.,0.,0.,0.,0.,0.,0.,0.,0.,
 0.,0.,0.,0.,0.,0.,0.,0.,0.,0.,0.,0.,0.,0.,0.,0.,0.,0.,0.,0.,0.,0.,0.,0
 .,0.,0.,0.,0.,0.,0.,0.,0.,0.,0.,0.,0.,0.,0.,0.,0.,0.,0.,0.,0.,0.,0.,0.
 ,0.,0.,0.,0.,0.,0.,0.,0.,0.,0.,0.,0.,0.,0.,0.,0.,0.,0.,0.,0.,0.,0.,0.,
 0.,0.,0.,0.,0.,0.,0.,0.,0.,0.,0.,0.,0.,0.,0.,0.,0.,0.,0.,0.,0.,0.,0.,0
 .,0.,0.,0.,0.,0.,0.,0.,0.,0.,0.,0.,0.,0.,0.,0.,0.,0.,0.,0.,0.,0.,0.,0.
 ,0.,0.,0.,0.,0.,0.,0.,0.,0.,0.,0.,0.,0.,0.,0.,0.,0.,0.,0.,0.,0.,0.,0.,
 0.,0.,0.,0.,0.,0.,0.,0.,0.,0.,0.,0.,0.,0.,0.,0.,0.,0.,0.,0.,0.,0.,0.,0
 .,0.,0.,0.,0.,0.,0.,0.,0.,0.,0.,0.,0.,0.,0.,0.,0.,0.,0.,0.,0.,0.,0.,0.
 ,0.,0.,0.,0.,0.,0.,0.,0.,0.,0.,0.,0.,0.,0.,0.,0.,0.,0.,0.,0.,0.,0.,0.,
 0.,0.,0.,0.,0.,0.,0.,0.,0.,0.,0.,0.,0.,0.,0.,0.,0.,0.,0.,0.,0.,0.,0.,0
 .,0.,0.,0.,0.,0.,0.,0.,0.,0.,0.,0.,0.,0.,0.,0.,0.,0.,0.,0.,0.,0.,0.,0.
 ,0.,0.,0.,0.,0.,0.,0.,0.,0.,0.,0.,0.,0.,0.,0.,0.,0.,0.,0.,0.,0.,0.,0.,
 0.,0.,0.,0.,0.,0.,0.,0.,0.,0.,0.,0.,0.,0.,0.,0.,0.,0.,0.,0.,0.,0.,0.,0
 .,0.,0.,0.,0.,0.,0.,0.,0.,0.,0.,0.,0.,0.,0.,0.,0.,0.,0.,0.,0.,0.,0.,0.
 ,0.,0.,0.,0.,0.,0.,0.,0.,0.,0.,0.,0.,0.,0.,0.,0.,0.,0.,0.,0.,0.,0.,0.,
 0.,0.,0.,0.,0.,0.,0.,0.,0.,0.,0.,0.,0.,0.,0.,0.,0.,0.,0.,0.,0.,0.,0.,0
 .,0.,0.,0.,0.,0.,0.,0.,0.,0.,0.,0.,0.,0.,0.,0.,0.,0.,0.,0.,0.,0.,0.,0.
 ,0.,0.,0.,0.,0.,0.,0.,0.,0.,0.,0.,0.,0.,0.,0.,0.,0.,0.,0.,0.,0.,0.,0.,
 0.,0.,0.,0.,0.,0.,0.,0.,0.,0.,0.,0.,0.,0.,0.,0.,0.,0.,0.,0.,0.,0.,0.,0
 .,0.,0.,0.,0.,0.,0.,0.,0.,0.,0.,0.,0.,0.,0.,0.,0.,0.,0.,0.,0.,0.,0.,0.
 ,0.,0.,0.,0.,0.,0.,0.,0.,0.,0.,0.,0.,0.,0.,0.,0.,0.,0.,0.,0.,0.,0.,0.,
 0.,0.,0.,0.,0.,0.,0.,0.,0.,0.,0.,0.,0.,0.,0.,0.,0.,0.,0.,0.,0.,0.,0.,0
 .,0.,0.,0.,0.,0.,0.,0.,0.,0.,0.,0.,0.,0.,0.,0.,0.,0.,0.,0.,0.,0.,0.,0.
 ,0.,0.,0.,0.,0.,0.,0.,0.,0.,0.,0.,0.,0.,0.,0.,0.,0.,0.,0.,0.,0.,0.,0.,
 0.,0.,0.,0.,0.,0.,0.,0.,0.,0.,0.,0.,0.,0.,0.,0.,0.,0.,0.,0.,0.,0.,0.,0
 .,0.,0.,0.,0.,0.,0.,0.,0.,0.,0.,0.,0.,0.,0.,0.,0.,0.,0.,0.,0.,0.,0.,0.
 ,0.,0.,0.,0.,0.,0.,0.,0.,0.,0.,0.,0.,0.,0.,0.,0.,0.,0.,0.,0.,0.,0.,0.,
 0.,0.,0.,0.,0.,0.,0.,0.,0.,0.,0.,0.,0.,0.,0.,0.,0.,0.,0.,0.,0.,0.,0.,0
 .,0.,0.,0.,0.,0.,0.,0.,0.,0.,0.,0.,0.,0.,0.,0.,0.,0.,0.,0.,0.,0.,0.,0.
 ,0.,0.,0.,0.,0.,0.,0.,0.,0.,0.,0.,0.,0.,0.,0.,0.,0.,0.,0.,0.,0.,0.,0.,
 0.,0.,0.,0.,0.,0.,0.,0.,0.,0.,0.,0.,0.,0.,0.,0.,0.,0.,0.,0.,0.,0.,0.,0
 .,0.,0.,0.,0.,0.,0.,0.,0.,0.,0.,0.,0.,0.,0.,0.,0.,0.,0.,0.,0.,0.,0.,0.
 ,0.,0.,0.,0.,0.,0.,0.,0.,0.,0.,0.,0.,0.,0.,0.,0.,0.,0.,0.,0.,0.,0.,0.,
 0.,0.,0.,0.,0.,0.,0.,0.,0.,0.,0.,0.,0.,0.,0.,0.,0.,0.,0.,0.,0.,0.,0.,0
 .,0.,0.,0.,0.,0.,0.,0.,0.,0.,0.,0.,0.,0.,0.,0.,0.,0.,0.,0.,0.,0.,0.,0.
 ,0.,0.,0.,0.,0.,0.,0.,0.,0.,0.,0.,0.,0.,0.,0.,0.,0.,0.,0.,0.,0.,0.,0.,
 0.,0.,0.,0.,0.,0.,0.,0.,0.,0.,0.,0.,0.,0.,0.,0.,0.,0.,0.,0.,0.,0.,0.,0
 .,0.,0.,0.,0.,0.,0.,0.,0.,0.,0.,0.,0.,0.,0.,0.,0.,0.,0.,0.,0.,0.,0.,0.
 ,0.,0.,0.,0.,0.,0.,0.,0.,0.,0.,0.,0.,0.,0.,0.,0.,0.,0.,0.,0.,0.,0.,0.,
 0.,0.,0.,0.,0.,0.,0.,0.,0.,0.,0.,0.,0.,0.,0.,0.,0.,0.,0.,0.,0.,0.,0.,0
 .,0.,0.,0.,0.,0.,0.,0.,0.,0.,0.,0.,0.,0.,0.,0.,0.,0.,0.,0.,0.,0.,0.,0.
 ,0.,0.,0.,0.,0.,0.,0.,0.,0.,0.,0.,0.,0.,0.,0.,0.,0.,0.,0.,0.,0.,0.,0.,
 0.,0.,0.,0.,0.,0.,0.,0.,0.,0.,0.,0.,0.,0.,0.,0.,0.,0.,0.,0.,0.,0.,0.,0
 .,0.,0.,0.,0.,0.,0.,0.,0.,0.,0.,0.,0.,0.,0.,0.,0.,0.,0.,0.,0.,0.,0.,0.
 ,0.,0.,0.,0.,0.,0.,0.,0.,0.,0.,0.,0.,0.,0.,0.,0.,0.,0.,0.,0.,0.,0.,0.,
 0.,0.,0.,0.,0.,0.,0.,0.,0.,0.,0.,0.,0.,0.,0.,0.,0.,0.,0.,0.,0.,0.,0.,0
 .,0.,0.,0.,0.,0.,0.,0.,0.,0.,0.,0.,0.,0.,0.,0.,0.,0.,0.,0.,0.,0.,0.,0.
 ,0.,0.,0.,0.,0.,0.,0.,0.,0.,0.,0.,0.,0.,0.,0.,0.,0.,0.,0.,0.,0.,0.,0.,
 0.,0.,0.,0.,0.,0.,0.,0.,0.,0.,0.,0.,0.,0.,0.,0.,0.,0.,0.,0.,0.,0.,0.,0
 .,0.,0.,0.,0.,0.,0.,0.,0.,0.,0.,0.,0.,0.,0.,0.,0.,0.,0.,0.,0.,0.,0.,0.
 ,0.,0.,0.,0.,0.,0.,0.,0.,0.,0.,0.,0.,0.,0.,0.,0.,0.,0.,0.,0.,0.,0.,0.,
 0.,0.,0.,0.,0.,0.,0.,0.,0.,0.,0.,0.,0.,0.,0.,0.,0.,0.,0.,0.,0.,0.,0.,0
 .,0.,0.,0.,0.,0.,0.,0.,0.,0.,0.,0.,0.,0.,0.,0.,0.,0.,0.,0.,0.,0.,0.,0.
 ,0.,0.,0.,0.,0.,0.,0.,0.,0.,0.,0.,0.,0.,0.,0.,0.,0.,0.,0.,0.,0.,0.,0.,
 0.,0.,0.,0.,0.,0.,0.,0.,0.,0.,0.,0.,0.,0.,0.,0.,0.,0.,0.,0.,0.,0.,0.,0
 .,0.,0.,0.,0.,0.,0.,0.,0.,0.,0.,0.,0.,0.,0.,0.,0.,0.,0.,0.,0.,0.,0.,0.
 ,0.,0.,0.,0.,0.,0.,0.,0.,0.,0.,0.,0.,0.,0.,0.,0.,0.,0.,0.,0.,0.,0.,0.,
 0.,0.,0.,0.,0.,0.,0.,0.,0.,0.,0.,0.,0.,0.,0.,0.,0.,0.,0.,0.,0.,0.,0.,0
 .,0.,0.,0.,0.,0.,0.,0.,0.,0.,0.,0.,0.,0.,0.,0.,0.,0.,0.,0.,0.,0.,0.,0.
 ,0.,0.,0.,0.,0.,0.,0.,0.,0.,0.,0.,0.,0.,0.,0.,0.,0.,0.,0.,0.,0.,0.,0.,
 0.,0.,0.,0.,0.,0.,0.,0.,0.,0.,0.,0.,0.,0.,0.,0.,0.,0.,0.,0.,0.,0.,0.,0
 .,0.,0.,0.,0.,0.,0.,0.,0.,0.,0.,0.,0.,0.,0.,0.,0.,0.,0.,0.,0.,0.,0.,0.
 ,0.,0.,0.,0.,0.,0.,0.,0.,0.,0.,0.,0.,0.,0.,0.,0.,0.,0.,0.,0.,0.,0.,0.,
 0.,0.,0.,0.,0.,0.,0.,0.,0.,0.,0.,0.,0.,0.,0.,0.,0.,0.,0.,0.,0.,0.,0.,0
 .,0.,0.,0.,0.,0.,0.,0.,0.,0.,0.,0.,0.,0.,0.,0.,0.,0.,0.,0.,0.,0.,0.,0.
 ,0.,0.,0.,0.,0.,0.,0.,0.,0.,0.,0.,0.,0.,0.,0.,0.,0.,0.,0.,0.,0.,0.,0.,
 0.,0.,0.,0.,0.,0.,0.,0.,0.,0.,0.,0.,0.,0.,0.,0.,0.,0.,0.,0.,0.,0.,0.,0
 .,0.,0.,0.,0.,0.,0.,0.,0.,0.,0.,0.,0.,0.,0.,0.,0.,0.,0.,0.,0.,0.,0.,0.
 ,0.,0.,0.,0.,0.,0.,0.,0.,0.,0.,0.,0.,0.,0.,0.,0.,0.,0.,0.,0.,0.,0.,0.,
 0.,0.,0.,0.,0.,0.,0.,0.,0.,0.,0.,0.,0.,0.,0.,0.,0.,0.,0.,0.,0.,0.,0.,0
 .,0.,0.,0.,0.,0.,0.,0.,0.,0.,0.,0.,0.,0.,0.,0.,0.,0.,0.,0.,0.,0.,0.,0.
 ,0.,0.,0.,0.,0.,0.,0.,0.,0.,0.,0.,0.,0.,0.,0.,0.,0.,0.,0.,0.,0.,0.,0.,
 0.,0.,0.,0.,0.,0.,0.,0.,0.,0.,0.,0.,0.,0.,0.,0.,0.,0.,0.,0.,0.,0.,0.,0
 .,0.,0.,0.,0.,0.,0.,0.,0.,0.,0.,0.,0.,0.,0.,0.,0.,0.,0.,0.,0.,0.,0.,0.
 ,0.,0.,0.,0.,0.,0.,0.,0.,0.,0.,0.,0.,0.,0.,0.,0.,0.,0.,0.,0.,0.,0.,0.,
 0.,0.,0.,0.,0.,0.,0.,0.,0.,0.,0.,0.,0.,0.,0.,0.,0.,0.,0.,0.,0.,0.,0.,0
 .,0.,0.,0.,0.,0.,0.,0.,0.,0.,0.,0.,0.,0.,0.,0.,0.,0.,0.,0.,0.,0.,0.,0.
 ,0.,0.,0.,0.,0.,0.,0.,0.,0.,0.,0.,0.,0.,0.,0.,0.,0.,0.,0.,0.,0.,0.,0.,
 0.,0.,0.,0.,0.,0.,0.,0.,0.,0.,0.,0.,0.,0.,0.,0.,0.,0.,0.,0.,0.,0.,0.,0
 .,0.,0.,0.,0.,0.,0.,0.,0.,0.,0.,0.,0.,0.,0.,0.,0.,0.,0.,0.,0.,0.,0.,0.
 ,0.,0.,0.,0.,0.,0.,0.,0.,0.,0.,0.,0.,0.,0.,0.,0.,0.,0.,0.,0.,0.,0.,0.,
 0.,0.,0.,0.,0.,0.,0.,0.,0.,0.,0.,0.,0.,0.,0.,0.,0.,0.,0.,0.,0.,0.,0.,0
 .,0.,0.,0.,0.,0.,0.,0.,0.,0.,0.,0.,0.,0.,0.,0.,0.,0.,0.,0.,0.,0.,0.,0.
 ,0.,0.,0.,0.,0.,0.,0.,0.,0.,0.,0.,0.,0.,0.,0.,0.,0.,0.,0.,0.,0.,0.,0.,
 0.,0.,0.,0.,0.,0.,0.,0.,0.,0.,0.,0.,0.,0.,0.,0.,0.,0.,0.,0.,0.,0.,0.,0
 .,0.,0.,0.,0.,0.,0.,0.,0.,0.,0.,0.,0.,0.,0.,0.,0.,0.,0.,0.,0.,0.,0.,0.
 ,0.,0.,0.,0.,0.,0.,0.,0.,0.,0.,0.,0.,0.,0.,0.,0.,0.,0.,0.,0.,0.,0.,0.,
 0.,0.,0.,0.,0.,0.,0.,0.,0.,0.,0.,0.,0.,0.,0.,0.,0.,0.,0.,0.,0.,0.,0.,0
 .,0.,0.,0.,0.,0.,0.,0.,0.,0.,0.,0.,0.,0.,0.,0.,0.,0.,0.,0.,0.,0.,0.,0.
 ,0.,0.,0.,0.,0.,0.,0.,0.,0.,0.,0.,0.,0.,0.,0.,0.,0.,0.,0.,0.,0.,0.,0.,
 0.,0.,0.,0.,0.,0.,0.,0.,0.,0.,0.,0.,0.,0.,0.,0.,0.,0.,0.,0.,0.,0.,0.,0
 .,0.,0.,0.,0.,0.,0.,0.,0.,0.,0.,0.,0.,0.,0.,0.,0.,0.,0.,0.,0.,0.,0.,0.
 ,0.,0.,0.,0.,0.,0.,0.,0.,0.,0.,0.,0.,0.,0.,0.,0.,0.,0.,0.,0.,0.,0.,0.,
 0.,0.,0.,0.,0.,0.,0.,0.,0.,0.,0.,0.,0.,0.,0.,0.,0.,0.,0.,0.,0.,0.,0.,0
 .,0.,0.,0.,0.,0.,0.,0.,0.,0.,0.,0.,0.,0.,0.,0.,0.,0.,0.,0.,0.,0.,0.,0.
 ,0.,0.,0.,0.,0.,0.,0.,0.,0.,0.,0.,0.,0.,0.,0.,0.,0.,0.,0.,0.,0.,0.,0.,
 0.,0.,0.,0.,0.,0.,0.,0.,0.,0.,0.,0.,0.,0.,0.,0.,0.,0.,0.,0.,0.,0.,0.,0
 .,0.,0.,0.,0.,0.,0.,0.,0.,0.,0.,0.,0.,0.,0.,0.,0.,0.,0.,0.,0.,0.,0.,0.
 ,0.,0.,0.,0.,0.,0.,0.,0.,0.,0.,0.,0.,0.,0.,0.,0.,0.,0.,0.,0.,0.,0.,0.,
 0.,0.,0.,0.,0.,0.,0.,0.,0.,0.,0.,0.,0.,0.,0.,0.,0.,0.,0.,0.,0.,0.,0.,0
 .,0.,0.,0.,0.,0.,0.,0.,0.,0.,0.,0.,0.,0.,0.,0.,0.,0.,0.,0.,0.,0.,0.,0.
 ,0.,0.,0.,0.,0.,0.,0.,0.,0.,0.,0.,0.,0.,0.,0.,0.,0.,0.,0.,0.,0.,0.,0.,
 0.,0.,0.,0.,0.,0.,0.,0.,0.,0.,0.,0.,0.,0.,0.,0.,0.,0.,0.,0.,0.,0.,0.,0
 .,0.,0.,0.,0.,0.,0.,0.,0.,0.,0.,0.,0.,0.,0.,0.,0.,0.,0.,0.,0.,0.,0.,0.
 ,0.,0.,0.,0.,0.,0.,0.,0.,0.,0.,0.,0.,0.,0.,0.,0.,0.,0.,0.,0.,0.,0.,0.,
 0.,0.,0.,0.,0.,0.,0.,0.,0.,0.,0.,0.,0.,0.,0.,0.,0.,0.,0.,0.,0.,0.,0.,0
 .,0.,0.,0.,0.,0.,0.,0.,0.,0.,0.,0.,0.,0.,0.,0.,0.,0.,0.,0.,0.,0.,0.,0.
 ,0.,0.,0.,0.,0.,0.,0.,0.,0.,0.,0.,0.,0.,0.,0.,0.,0.,0.,0.,0.,0.,0.,0.,
 0.,0.,0.,0.,0.,0.,0.,0.,0.,0.,0.,0.,0.,0.,0.,0.,0.,0.,0.,0.,0.,0.,0.,0
 .,0.,0.,0.,0.,0.,0.,0.,0.,0.,0.,0.,0.,0.,0.,0.,0.,0.,0.,0.,0.,0.,0.,0.
 ,0.,0.,0.,0.,0.,0.,0.,0.,0.,0.,0.,0.,0.,0.,0.,0.,0.,0.,0.,0.,0.,0.,0.,
 0.,0.,0.,0.,0.,0.,0.,0.,0.,0.,0.,0.,0.,0.,0.,0.,0.,0.,0.,0.,0.,0.,0.,0
 .,0.,0.,0.,0.,0.,0.,0.,0.,0.,0.,0.,0.,0.,0.,0.,0.,0.,0.,0.,0.,0.,0.,0.
 ,0.,0.,0.,0.,0.,0.,0.,0.,0.,0.,0.,0.,0.,0.,0.,0.,0.,0.,0.,0.,0.,0.,0.,
 0.,0.,0.,0.,0.,0.,0.,0.,0.,0.,0.,0.,0.,0.,0.,0.,0.,0.,0.,0.,0.,0.,0.,0
 .,0.,0.,0.,0.,0.,0.,0.,0.,0.,0.,0.,0.,0.,0.,0.,0.,0.,0.,0.,0.,0.,0.,0.
 ,0.,0.,0.,0.,0.,0.,0.,0.,0.,0.,0.,0.,0.,0.,0.,0.,0.,0.,0.,0.,0.,0.,0.,
 0.,0.,0.,0.,0.,0.,0.,0.,0.,0.,0.,0.,0.,0.,0.,0.,0.,0.,0.,0.,0.,0.,0.,0
 .,0.,0.,0.,0.,0.,0.,0.,0.,0.,0.,0.,0.,0.,0.,0.,0.,0.,0.,0.,0.,0.,0.,0.
 ,0.,0.,0.,0.,0.,0.,0.,0.,0.,0.,0.,0.,0.,0.,0.,0.,0.,0.,0.,0.,0.,0.,0.,
 0.,0.,0.,0.,0.,0.,0.,0.,0.,0.,0.,0.,0.,0.,0.,0.,0.,0.,0.,0.,0.,0.,0.,0
 .,0.,0.,0.,0.,0.,0.,0.,0.,0.,0.,0.,0.,0.,0.,0.,0.,0.,0.,0.,0.,0.,0.,0.
 ,0.,0.,0.,0.,0.,0.,0.,0.,0.,0.,0.,0.,0.,0.,0.,0.,0.,0.,0.,0.,0.,0.,0.,
 0.,0.,0.,0.,0.,0.,0.,0.,0.,0.,0.,0.,0.,0.,0.,0.,0.,0.,0.,0.,0.,0.,0.,0
 .,0.,0.,0.,0.,0.,0.,0.,0.,0.,0.,0.,0.,0.,0.,0.,0.,0.,0.,0.,0.,0.,0.,0.
 ,0.,0.,0.,0.,0.,0.,0.,0.,0.,0.,0.,0.,0.,0.,0.,0.,0.,0.,0.,0.,0.,0.,0.,
 0.,0.,0.,0.,0.,0.,0.,0.,0.,0.,0.,0.,0.,0.,0.,0.,0.,0.,0.,0.,0.,0.,0.,0
 .,0.,0.,0.,0.,0.,0.,0.,0.,0.,0.,0.,0.,0.,0.,0.,0.,0.,0.,0.,0.,0.,0.,0.
 ,0.,0.,0.,0.,0.,0.,0.,0.,0.,0.,0.,0.,0.,0.,0.,0.,0.,0.,0.,0.,0.,0.,0.,
 0.,0.,0.,0.,0.,0.,0.,0.,0.,0.,0.,0.,0.,0.,0.,0.,0.,0.,0.,0.,0.,0.,0.,0
 .,0.,0.,0.,0.,0.,0.,0.,0.,0.,0.,0.,0.,0.,0.,0.,0.,0.,0.,0.,0.,0.,0.,0.
 ,0.,0.,0.,0.,0.,0.,0.,0.,0.,0.,0.,0.,0.,0.,0.,0.,0.,0.||0.,0.,0.,0.,0.
 ,0.,0.,0.,0.,0.,0.,0.,0.,0.,0.,0.,0.,0.,0.,0.,0.,0.,0.,0.,0.,0.,0.,0.,
 0.,0.,0.,0.,0.,0.,0.,0.,0.,0.,0.,0.,0.,0.,0.,0.,0.,0.00232322,0.,-0.00
 109627,0.,0.,0.,0.,0.,0.,0.,0.,0.,0.,0.,0.,0.,0.,0.,0.,0.,0.,0.,0.,0.,
 0.,0.,0.,0.,0.,0.,0.,0.,0.,0.,0.,0.,0.,0.,0.,0.,0.,0.,0.,0.,0.,0.,0.,0
 .,0.,0.,0.,0.,0.,0.,-0.00232322,0.,-0.00109627,0.,0.,0.,0.,0.,0.,0.,0.
 ,0.,0.,0.,0.,0.,0.,0.,0.,0.,0.,0.,0.,0.,0.,0.,0.,0.,0.,0.,0.,0.,0.,0.,
 0.,0.,0.,0.,0.,0.,0.,0.,0.,0.,0.|||@


 IF YOU GET CONFUSED, LOGIC OUT YOUR DILEMMA

           --  PICKER X-RAY CORP.    DIGITAL PRINTER MANUAL CA. 1964
 Job cpu time:       0 days  0 hours  3 minutes 11.0 seconds.
 File lengths (MBytes):  RWF=    291 Int=      0 D2E=      0 Chk=      5 Scr=      1
 Normal termination of Gaussian 09 at Tue Mar 10 00:21:03 2026.
