 Entering Link 1 = C:\Gaussian\G09W\l1.exe PID=      7216.
  
 Copyright (c) 1988,1990,1992,1993,1995,1998,2003,2009,2013,
            Gaussian, Inc.  All Rights Reserved.
  
 This is part of the Gaussian(R) 09 program.  It is based on
 the Gaussian(R) 03 system (copyright 2003, Gaussian, Inc.),
 the Gaussian(R) 98 system (copyright 1998, Gaussian, Inc.),
 the Gaussian(R) 94 system (copyright 1995, Gaussian, Inc.),
 the Gaussian 92(TM) system (copyright 1992, Gaussian, Inc.),
 the Gaussian 90(TM) system (copyright 1990, Gaussian, Inc.),
 the Gaussian 88(TM) system (copyright 1988, Gaussian, Inc.),
 the Gaussian 86(TM) system (copyright 1986, Carnegie Mellon
 University), and the Gaussian 82(TM) system (copyright 1983,
 Carnegie Mellon University). Gaussian is a federally registered
 trademark of Gaussian, Inc.
  
 This software contains proprietary and confidential information,
 including trade secrets, belonging to Gaussian, Inc.
  
 This software is provided under written license and may be
 used, copied, transmitted, or stored only in accord with that
 written license.
  
 The following legend is applicable only to US Government
 contracts under FAR:
  
                    RESTRICTED RIGHTS LEGEND
  
 Use, reproduction and disclosure by the US Government is
 subject to restrictions as set forth in subparagraphs (a)
 and (c) of the Commercial Computer Software - Restricted
 Rights clause in FAR 52.227-19.
  
 Gaussian, Inc.
 340 Quinnipiac St., Bldg. 40, Wallingford CT 06492
  
  
 ---------------------------------------------------------------
 Warning -- This program may not be used in any manner that
 competes with the business of Gaussian, Inc. or will provide
 assistance to any competitor of Gaussian, Inc.  The licensee
 of this program is prohibited from giving any competitor of
 Gaussian, Inc. access to this program.  By using this program,
 the user acknowledges that Gaussian, Inc. is engaged in the
 business of creating and licensing software in the field of
 computational chemistry and represents and warrants to the
 licensee that it is not a competitor of Gaussian, Inc. and that
 it will not use this program in any manner prohibited above.
 ---------------------------------------------------------------
  

 Cite this work as:
 Gaussian 09, Revision D.01,
 M. J. Frisch, G. W. Trucks, H. B. Schlegel, G. E. Scuseria, 
 M. A. Robb, J. R. Cheeseman, G. Scalmani, V. Barone, B. Mennucci, 
 G. A. Petersson, H. Nakatsuji, M. Caricato, X. Li, H. P. Hratchian, 
 A. F. Izmaylov, J. Bloino, G. Zheng, J. L. Sonnenberg, M. Hada, 
 M. Ehara, K. Toyota, R. Fukuda, J. Hasegawa, M. Ishida, T. Nakajima, 
 Y. Honda, O. Kitao, H. Nakai, T. Vreven, J. A. Montgomery, Jr., 
 J. E. Peralta, F. Ogliaro, M. Bearpark, J. J. Heyd, E. Brothers, 
 K. N. Kudin, V. N. Staroverov, T. Keith, R. Kobayashi, J. Normand, 
 K. Raghavachari, A. Rendell, J. C. Burant, S. S. Iyengar, J. Tomasi, 
 M. Cossi, N. Rega, J. M. Millam, M. Klene, J. E. Knox, J. B. Cross, 
 V. Bakken, C. Adamo, J. Jaramillo, R. Gomperts, R. E. Stratmann, 
 O. Yazyev, A. J. Austin, R. Cammi, C. Pomelli, J. W. Ochterski, 
 R. L. Martin, K. Morokuma, V. G. Zakrzewski, G. A. Voth, 
 P. Salvador, J. J. Dannenberg, S. Dapprich, A. D. Daniels, 
 O. Farkas, J. B. Foresman, J. V. Ortiz, J. Cioslowski, 
 and D. J. Fox, Gaussian, Inc., Wallingford CT, 2013.
 
 ******************************************
 Gaussian 09:  IA32W-G09RevD.01 24-Apr-2013
                19-Jun-2025 
 ******************************************
 %chk=C:\Gaussian\4x4_N_graphene_1.chk
 ---------------------------------------
 # opt freq pm6 scf=qc geom=connectivity
 ---------------------------------------
 1/14=-1,18=20,19=15,26=1,38=1,57=2/1,3;
 2/9=110,12=2,17=6,18=5,40=1/2;
 3/5=2,16=1,25=1,41=3900000,71=1/1,2,3;
 4/35=1/1;
 5/5=2,8=3,35=1,38=5/8;
 6/7=2,8=2,9=2,10=2,28=1/1;
 7//1,2,3,16;
 1/14=-1,18=20,19=15,26=1/3(2);
 2/9=110/2;
 99//99;
 2/9=110/2;
 3/5=2,16=1,25=1,41=3900000,71=1,135=20/1,2,3;
 4/5=5,16=3,35=1/1;
 5/5=2,8=3,35=1,38=5/8;
 7//1,2,3,16;
 1/14=-1,18=20,19=15,26=1/3(-5);
 2/9=110/2;
 6/7=2,8=2,9=2,10=2,19=2,28=1/1;
 99/9=1/99;
 ----------------
 4x4_N_graphene_1
 ----------------
 Symbolic Z-matrix:
 Charge =  0 Multiplicity = 2
 C                     0.17695   1.02371   2.99497 
 C                     1.43495   0.29741   2.57781 
 C                     2.69295   1.02371   2.99497 
 C                     5.20895   1.02371   2.99497 
 C                     7.72495   1.02371   2.99497 
 C                     3.95095   0.29741   2.57781 
 C                     6.46695   0.29741   2.57781 
 C                    -1.08105   3.20263   2.99497 
 C                    -2.33905   5.38155   2.99497 
 C                     0.17695   2.47633   2.57781 
 C                    -1.08105   4.65525   2.57781 
 C                    -2.33905   6.83417   2.57781 
 C                     1.43495   3.20263   2.99497 
 C                     0.17695   5.38155   2.99497 
 C                    -1.08105   7.56047   2.99497 
 C                     3.95095   3.20263   2.99497 
 C                     2.69295   5.38155   2.99497 
 C                     1.43495   7.56047   2.99497 
 C                     6.46695   3.20263   2.99497 
 C                     5.20895   5.38155   2.99497 
 C                     3.95095   7.56047   2.99497 
 C                     2.69295   2.47633   2.57781 
 C                     0.17695   6.83417   2.57781 
 C                     5.20895   2.47633   2.57781 
 C                     3.95095   4.65525   2.57781 
 C                     2.69295   6.83417   2.57781 
 C                     7.72495   2.47633   2.57781 
 C                     6.46695   4.65525   2.57781 
 C                     5.20895   6.83417   2.57781 
 H                     8.6156    2.99054   2.87315 
 H                     7.3576    5.16946   2.87315 
 H                     6.0996    7.34838   2.87315 
 H                     3.95095   8.58891   2.69962 
 H                     1.43495   8.58891   2.69962 
 H                    -1.08105   8.58891   2.69962 
 H                    -3.2297    7.34838   2.87315 
 H                    -3.2297    4.86734   2.69962 
 H                    -1.9717    2.68842   2.69962 
 H                    -0.7137    0.5095    2.69962 
 H                     1.43495  -0.73103   2.87315 
 H                     3.95095  -0.73103   2.87315 
 H                     6.49522  -0.60455   3.15277 
 H                     8.37341   0.35071   3.51599 
 N                     1.43495   4.65525   2.57781 
 

 GradGradGradGradGradGradGradGradGradGradGradGradGradGradGradGradGradGrad
 Berny optimization.
 Initialization pass.
                           ----------------------------
                           !    Initial Parameters    !
                           ! (Angstroms and Degrees)  !
 --------------------------                            --------------------------
 ! Name  Definition              Value          Derivative Info.                !
 --------------------------------------------------------------------------------
 ! R1    R(1,2)                  1.5113         estimate D2E/DX2                !
 ! R2    R(1,10)                 1.5113         estimate D2E/DX2                !
 ! R3    R(1,39)                 1.07           estimate D2E/DX2                !
 ! R4    R(2,3)                  1.5113         estimate D2E/DX2                !
 ! R5    R(2,40)                 1.07           estimate D2E/DX2                !
 ! R6    R(3,6)                  1.5113         estimate D2E/DX2                !
 ! R7    R(3,22)                 1.5113         estimate D2E/DX2                !
 ! R8    R(4,6)                  1.5113         estimate D2E/DX2                !
 ! R9    R(4,7)                  1.5113         estimate D2E/DX2                !
 ! R10   R(4,24)                 1.5113         estimate D2E/DX2                !
 ! R11   R(5,7)                  1.5113         estimate D2E/DX2                !
 ! R12   R(5,27)                 1.5113         estimate D2E/DX2                !
 ! R13   R(5,43)                 1.07           estimate D2E/DX2                !
 ! R14   R(6,41)                 1.07           estimate D2E/DX2                !
 ! R15   R(7,42)                 1.07           estimate D2E/DX2                !
 ! R16   R(8,10)                 1.5113         estimate D2E/DX2                !
 ! R17   R(8,11)                 1.5113         estimate D2E/DX2                !
 ! R18   R(8,38)                 1.07           estimate D2E/DX2                !
 ! R19   R(9,11)                 1.5113         estimate D2E/DX2                !
 ! R20   R(9,12)                 1.5113         estimate D2E/DX2                !
 ! R21   R(9,37)                 1.07           estimate D2E/DX2                !
 ! R22   R(10,13)                1.5113         estimate D2E/DX2                !
 ! R23   R(11,14)                1.5113         estimate D2E/DX2                !
 ! R24   R(12,15)                1.5113         estimate D2E/DX2                !
 ! R25   R(12,36)                1.07           estimate D2E/DX2                !
 ! R26   R(13,22)                1.5113         estimate D2E/DX2                !
 ! R27   R(13,44)                1.5113         estimate D2E/DX2                !
 ! R28   R(14,23)                1.5113         estimate D2E/DX2                !
 ! R29   R(14,44)                1.5113         estimate D2E/DX2                !
 ! R30   R(15,23)                1.5113         estimate D2E/DX2                !
 ! R31   R(15,35)                1.07           estimate D2E/DX2                !
 ! R32   R(16,22)                1.5113         estimate D2E/DX2                !
 ! R33   R(16,24)                1.5113         estimate D2E/DX2                !
 ! R34   R(16,25)                1.5113         estimate D2E/DX2                !
 ! R35   R(17,25)                1.5113         estimate D2E/DX2                !
 ! R36   R(17,26)                1.5113         estimate D2E/DX2                !
 ! R37   R(17,44)                1.5113         estimate D2E/DX2                !
 ! R38   R(18,23)                1.5113         estimate D2E/DX2                !
 ! R39   R(18,26)                1.5113         estimate D2E/DX2                !
 ! R40   R(18,34)                1.07           estimate D2E/DX2                !
 ! R41   R(19,24)                1.5113         estimate D2E/DX2                !
 ! R42   R(19,27)                1.5113         estimate D2E/DX2                !
 ! R43   R(19,28)                1.5113         estimate D2E/DX2                !
 ! R44   R(20,25)                1.5113         estimate D2E/DX2                !
 ! R45   R(20,28)                1.5113         estimate D2E/DX2                !
 ! R46   R(20,29)                1.5113         estimate D2E/DX2                !
 ! R47   R(21,26)                1.5113         estimate D2E/DX2                !
 ! R48   R(21,29)                1.5113         estimate D2E/DX2                !
 ! R49   R(21,33)                1.07           estimate D2E/DX2                !
 ! R50   R(27,30)                1.07           estimate D2E/DX2                !
 ! R51   R(28,31)                1.07           estimate D2E/DX2                !
 ! R52   R(29,32)                1.07           estimate D2E/DX2                !
 ! A1    A(2,1,10)             112.6884         estimate D2E/DX2                !
 ! A2    A(2,1,39)             112.6884         estimate D2E/DX2                !
 ! A3    A(10,1,39)            112.6884         estimate D2E/DX2                !
 ! A4    A(1,2,3)              112.6884         estimate D2E/DX2                !
 ! A5    A(1,2,40)             112.6884         estimate D2E/DX2                !
 ! A6    A(3,2,40)             112.6884         estimate D2E/DX2                !
 ! A7    A(2,3,6)              112.6884         estimate D2E/DX2                !
 ! A8    A(2,3,22)             112.6884         estimate D2E/DX2                !
 ! A9    A(6,3,22)             112.6884         estimate D2E/DX2                !
 ! A10   A(6,4,7)              112.6884         estimate D2E/DX2                !
 ! A11   A(6,4,24)             112.6884         estimate D2E/DX2                !
 ! A12   A(7,4,24)             112.6884         estimate D2E/DX2                !
 ! A13   A(7,5,27)             112.6884         estimate D2E/DX2                !
 ! A14   A(7,5,43)             109.6693         estimate D2E/DX2                !
 ! A15   A(27,5,43)            137.6415         estimate D2E/DX2                !
 ! A16   A(3,6,4)              112.6884         estimate D2E/DX2                !
 ! A17   A(3,6,41)             112.6884         estimate D2E/DX2                !
 ! A18   A(4,6,41)             112.6884         estimate D2E/DX2                !
 ! A19   A(4,7,5)              112.6884         estimate D2E/DX2                !
 ! A20   A(4,7,42)             106.187          estimate D2E/DX2                !
 ! A21   A(5,7,42)             103.5792         estimate D2E/DX2                !
 ! A22   A(10,8,11)            112.6884         estimate D2E/DX2                !
 ! A23   A(10,8,38)            112.6884         estimate D2E/DX2                !
 ! A24   A(11,8,38)            112.6884         estimate D2E/DX2                !
 ! A25   A(11,9,12)            112.6884         estimate D2E/DX2                !
 ! A26   A(11,9,37)            112.6884         estimate D2E/DX2                !
 ! A27   A(12,9,37)            112.6884         estimate D2E/DX2                !
 ! A28   A(1,10,8)             112.6884         estimate D2E/DX2                !
 ! A29   A(1,10,13)            112.6884         estimate D2E/DX2                !
 ! A30   A(8,10,13)            112.6884         estimate D2E/DX2                !
 ! A31   A(8,11,9)             112.6884         estimate D2E/DX2                !
 ! A32   A(8,11,14)            112.6884         estimate D2E/DX2                !
 ! A33   A(9,11,14)            112.6884         estimate D2E/DX2                !
 ! A34   A(9,12,15)            112.6884         estimate D2E/DX2                !
 ! A35   A(9,12,36)            112.6884         estimate D2E/DX2                !
 ! A36   A(15,12,36)           112.6884         estimate D2E/DX2                !
 ! A37   A(10,13,22)           112.6884         estimate D2E/DX2                !
 ! A38   A(10,13,44)           112.6884         estimate D2E/DX2                !
 ! A39   A(22,13,44)           112.6884         estimate D2E/DX2                !
 ! A40   A(11,14,23)           112.6884         estimate D2E/DX2                !
 ! A41   A(11,14,44)           112.6884         estimate D2E/DX2                !
 ! A42   A(23,14,44)           112.6884         estimate D2E/DX2                !
 ! A43   A(12,15,23)           112.6884         estimate D2E/DX2                !
 ! A44   A(12,15,35)           112.6884         estimate D2E/DX2                !
 ! A45   A(23,15,35)           112.6884         estimate D2E/DX2                !
 ! A46   A(22,16,24)           112.6884         estimate D2E/DX2                !
 ! A47   A(22,16,25)           112.6884         estimate D2E/DX2                !
 ! A48   A(24,16,25)           112.6884         estimate D2E/DX2                !
 ! A49   A(25,17,26)           112.6884         estimate D2E/DX2                !
 ! A50   A(25,17,44)           112.6884         estimate D2E/DX2                !
 ! A51   A(26,17,44)           112.6884         estimate D2E/DX2                !
 ! A52   A(23,18,26)           112.6884         estimate D2E/DX2                !
 ! A53   A(23,18,34)           112.6884         estimate D2E/DX2                !
 ! A54   A(26,18,34)           112.6884         estimate D2E/DX2                !
 ! A55   A(24,19,27)           112.6884         estimate D2E/DX2                !
 ! A56   A(24,19,28)           112.6884         estimate D2E/DX2                !
 ! A57   A(27,19,28)           112.6884         estimate D2E/DX2                !
 ! A58   A(25,20,28)           112.6884         estimate D2E/DX2                !
 ! A59   A(25,20,29)           112.6884         estimate D2E/DX2                !
 ! A60   A(28,20,29)           112.6884         estimate D2E/DX2                !
 ! A61   A(26,21,29)           112.6884         estimate D2E/DX2                !
 ! A62   A(26,21,33)           112.6884         estimate D2E/DX2                !
 ! A63   A(29,21,33)           112.6884         estimate D2E/DX2                !
 ! A64   A(3,22,13)            112.6884         estimate D2E/DX2                !
 ! A65   A(3,22,16)            112.6884         estimate D2E/DX2                !
 ! A66   A(13,22,16)           112.6884         estimate D2E/DX2                !
 ! A67   A(14,23,15)           112.6884         estimate D2E/DX2                !
 ! A68   A(14,23,18)           112.6884         estimate D2E/DX2                !
 ! A69   A(15,23,18)           112.6884         estimate D2E/DX2                !
 ! A70   A(4,24,16)            112.6884         estimate D2E/DX2                !
 ! A71   A(4,24,19)            112.6884         estimate D2E/DX2                !
 ! A72   A(16,24,19)           112.6884         estimate D2E/DX2                !
 ! A73   A(16,25,17)           112.6884         estimate D2E/DX2                !
 ! A74   A(16,25,20)           112.6884         estimate D2E/DX2                !
 ! A75   A(17,25,20)           112.6884         estimate D2E/DX2                !
 ! A76   A(17,26,18)           112.6884         estimate D2E/DX2                !
 ! A77   A(17,26,21)           112.6884         estimate D2E/DX2                !
 ! A78   A(18,26,21)           112.6884         estimate D2E/DX2                !
 ! A79   A(5,27,19)            112.6884         estimate D2E/DX2                !
 ! A80   A(5,27,30)            112.6884         estimate D2E/DX2                !
 ! A81   A(19,27,30)           112.6884         estimate D2E/DX2                !
 ! A82   A(19,28,20)           112.6884         estimate D2E/DX2                !
 ! A83   A(19,28,31)           112.6884         estimate D2E/DX2                !
 ! A84   A(20,28,31)           112.6884         estimate D2E/DX2                !
 ! A85   A(20,29,21)           112.6884         estimate D2E/DX2                !
 ! A86   A(20,29,32)           112.6884         estimate D2E/DX2                !
 ! A87   A(21,29,32)           112.6884         estimate D2E/DX2                !
 ! A88   A(13,44,14)           112.6884         estimate D2E/DX2                !
 ! A89   A(13,44,17)           112.6884         estimate D2E/DX2                !
 ! A90   A(14,44,17)           112.6884         estimate D2E/DX2                !
 ! D1    D(10,1,2,3)            51.1032         estimate D2E/DX2                !
 ! D2    D(10,1,2,40)          180.0            estimate D2E/DX2                !
 ! D3    D(39,1,2,3)           180.0            estimate D2E/DX2                !
 ! D4    D(39,1,2,40)          -51.1032         estimate D2E/DX2                !
 ! D5    D(2,1,10,8)           180.0            estimate D2E/DX2                !
 ! D6    D(2,1,10,13)          -51.1032         estimate D2E/DX2                !
 ! D7    D(39,1,10,8)           51.1032         estimate D2E/DX2                !
 ! D8    D(39,1,10,13)         180.0            estimate D2E/DX2                !
 ! D9    D(1,2,3,6)            180.0            estimate D2E/DX2                !
 ! D10   D(1,2,3,22)           -51.1032         estimate D2E/DX2                !
 ! D11   D(40,2,3,6)            51.1032         estimate D2E/DX2                !
 ! D12   D(40,2,3,22)         -180.0            estimate D2E/DX2                !
 ! D13   D(2,3,6,4)            180.0            estimate D2E/DX2                !
 ! D14   D(2,3,6,41)           -51.1032         estimate D2E/DX2                !
 ! D15   D(22,3,6,4)            51.1032         estimate D2E/DX2                !
 ! D16   D(22,3,6,41)          180.0            estimate D2E/DX2                !
 ! D17   D(2,3,22,13)           51.1032         estimate D2E/DX2                !
 ! D18   D(2,3,22,16)          180.0            estimate D2E/DX2                !
 ! D19   D(6,3,22,13)          180.0            estimate D2E/DX2                !
 ! D20   D(6,3,22,16)          -51.1032         estimate D2E/DX2                !
 ! D21   D(7,4,6,3)            180.0            estimate D2E/DX2                !
 ! D22   D(7,4,6,41)            51.1032         estimate D2E/DX2                !
 ! D23   D(24,4,6,3)           -51.1032         estimate D2E/DX2                !
 ! D24   D(24,4,6,41)          180.0            estimate D2E/DX2                !
 ! D25   D(6,4,7,5)            180.0            estimate D2E/DX2                !
 ! D26   D(6,4,7,42)           -67.2727         estimate D2E/DX2                !
 ! D27   D(24,4,7,5)            51.1032         estimate D2E/DX2                !
 ! D28   D(24,4,7,42)          163.8304         estimate D2E/DX2                !
 ! D29   D(6,4,24,16)           51.1032         estimate D2E/DX2                !
 ! D30   D(6,4,24,19)          180.0            estimate D2E/DX2                !
 ! D31   D(7,4,24,16)          180.0            estimate D2E/DX2                !
 ! D32   D(7,4,24,19)          -51.1032         estimate D2E/DX2                !
 ! D33   D(27,5,7,4)           -51.1032         estimate D2E/DX2                !
 ! D34   D(27,5,7,42)         -165.4227         estimate D2E/DX2                !
 ! D35   D(43,5,7,4)           128.6399         estimate D2E/DX2                !
 ! D36   D(43,5,7,42)           14.3203         estimate D2E/DX2                !
 ! D37   D(7,5,27,19)           51.1032         estimate D2E/DX2                !
 ! D38   D(7,5,27,30)          180.0            estimate D2E/DX2                !
 ! D39   D(43,5,27,19)        -128.5377         estimate D2E/DX2                !
 ! D40   D(43,5,27,30)           0.3591         estimate D2E/DX2                !
 ! D41   D(11,8,10,1)          180.0            estimate D2E/DX2                !
 ! D42   D(11,8,10,13)          51.1032         estimate D2E/DX2                !
 ! D43   D(38,8,10,1)          -51.1032         estimate D2E/DX2                !
 ! D44   D(38,8,10,13)        -180.0            estimate D2E/DX2                !
 ! D45   D(10,8,11,9)          180.0            estimate D2E/DX2                !
 ! D46   D(10,8,11,14)         -51.1032         estimate D2E/DX2                !
 ! D47   D(38,8,11,9)           51.1032         estimate D2E/DX2                !
 ! D48   D(38,8,11,14)         180.0            estimate D2E/DX2                !
 ! D49   D(12,9,11,8)         -180.0            estimate D2E/DX2                !
 ! D50   D(12,9,11,14)          51.1032         estimate D2E/DX2                !
 ! D51   D(37,9,11,8)          -51.1032         estimate D2E/DX2                !
 ! D52   D(37,9,11,14)         180.0            estimate D2E/DX2                !
 ! D53   D(11,9,12,15)         -51.1032         estimate D2E/DX2                !
 ! D54   D(11,9,12,36)        -180.0            estimate D2E/DX2                !
 ! D55   D(37,9,12,15)         180.0            estimate D2E/DX2                !
 ! D56   D(37,9,12,36)          51.1032         estimate D2E/DX2                !
 ! D57   D(1,10,13,22)          51.1032         estimate D2E/DX2                !
 ! D58   D(1,10,13,44)         180.0            estimate D2E/DX2                !
 ! D59   D(8,10,13,22)         180.0            estimate D2E/DX2                !
 ! D60   D(8,10,13,44)         -51.1032         estimate D2E/DX2                !
 ! D61   D(8,11,14,23)         180.0            estimate D2E/DX2                !
 ! D62   D(8,11,14,44)          51.1032         estimate D2E/DX2                !
 ! D63   D(9,11,14,23)         -51.1032         estimate D2E/DX2                !
 ! D64   D(9,11,14,44)         180.0            estimate D2E/DX2                !
 ! D65   D(9,12,15,23)          51.1032         estimate D2E/DX2                !
 ! D66   D(9,12,15,35)         180.0            estimate D2E/DX2                !
 ! D67   D(36,12,15,23)        180.0            estimate D2E/DX2                !
 ! D68   D(36,12,15,35)        -51.1032         estimate D2E/DX2                !
 ! D69   D(10,13,22,3)         -51.1032         estimate D2E/DX2                !
 ! D70   D(10,13,22,16)        180.0            estimate D2E/DX2                !
 ! D71   D(44,13,22,3)         180.0            estimate D2E/DX2                !
 ! D72   D(44,13,22,16)         51.1032         estimate D2E/DX2                !
 ! D73   D(10,13,44,14)         51.1032         estimate D2E/DX2                !
 ! D74   D(10,13,44,17)        180.0            estimate D2E/DX2                !
 ! D75   D(22,13,44,14)       -180.0            estimate D2E/DX2                !
 ! D76   D(22,13,44,17)        -51.1032         estimate D2E/DX2                !
 ! D77   D(11,14,23,15)         51.1032         estimate D2E/DX2                !
 ! D78   D(11,14,23,18)        180.0            estimate D2E/DX2                !
 ! D79   D(44,14,23,15)        180.0            estimate D2E/DX2                !
 ! D80   D(44,14,23,18)        -51.1032         estimate D2E/DX2                !
 ! D81   D(11,14,44,13)        -51.1032         estimate D2E/DX2                !
 ! D82   D(11,14,44,17)        180.0            estimate D2E/DX2                !
 ! D83   D(23,14,44,13)       -180.0            estimate D2E/DX2                !
 ! D84   D(23,14,44,17)         51.1032         estimate D2E/DX2                !
 ! D85   D(12,15,23,14)        -51.1032         estimate D2E/DX2                !
 ! D86   D(12,15,23,18)        180.0            estimate D2E/DX2                !
 ! D87   D(35,15,23,14)        180.0            estimate D2E/DX2                !
 ! D88   D(35,15,23,18)         51.1032         estimate D2E/DX2                !
 ! D89   D(24,16,22,3)          51.1032         estimate D2E/DX2                !
 ! D90   D(24,16,22,13)        180.0            estimate D2E/DX2                !
 ! D91   D(25,16,22,3)         180.0            estimate D2E/DX2                !
 ! D92   D(25,16,22,13)        -51.1032         estimate D2E/DX2                !
 ! D93   D(22,16,24,4)         -51.1032         estimate D2E/DX2                !
 ! D94   D(22,16,24,19)        180.0            estimate D2E/DX2                !
 ! D95   D(25,16,24,4)         180.0            estimate D2E/DX2                !
 ! D96   D(25,16,24,19)         51.1032         estimate D2E/DX2                !
 ! D97   D(22,16,25,17)         51.1032         estimate D2E/DX2                !
 ! D98   D(22,16,25,20)        180.0            estimate D2E/DX2                !
 ! D99   D(24,16,25,17)        180.0            estimate D2E/DX2                !
 ! D100  D(24,16,25,20)        -51.1032         estimate D2E/DX2                !
 ! D101  D(26,17,25,16)       -180.0            estimate D2E/DX2                !
 ! D102  D(26,17,25,20)         51.1032         estimate D2E/DX2                !
 ! D103  D(44,17,25,16)        -51.1032         estimate D2E/DX2                !
 ! D104  D(44,17,25,20)        180.0            estimate D2E/DX2                !
 ! D105  D(25,17,26,18)        180.0            estimate D2E/DX2                !
 ! D106  D(25,17,26,21)        -51.1032         estimate D2E/DX2                !
 ! D107  D(44,17,26,18)         51.1032         estimate D2E/DX2                !
 ! D108  D(44,17,26,21)        180.0            estimate D2E/DX2                !
 ! D109  D(25,17,44,13)         51.1032         estimate D2E/DX2                !
 ! D110  D(25,17,44,14)        180.0            estimate D2E/DX2                !
 ! D111  D(26,17,44,13)        180.0            estimate D2E/DX2                !
 ! D112  D(26,17,44,14)        -51.1032         estimate D2E/DX2                !
 ! D113  D(26,18,23,14)         51.1032         estimate D2E/DX2                !
 ! D114  D(26,18,23,15)        180.0            estimate D2E/DX2                !
 ! D115  D(34,18,23,14)        180.0            estimate D2E/DX2                !
 ! D116  D(34,18,23,15)        -51.1032         estimate D2E/DX2                !
 ! D117  D(23,18,26,17)        -51.1032         estimate D2E/DX2                !
 ! D118  D(23,18,26,21)        180.0            estimate D2E/DX2                !
 ! D119  D(34,18,26,17)        180.0            estimate D2E/DX2                !
 ! D120  D(34,18,26,21)         51.1032         estimate D2E/DX2                !
 ! D121  D(27,19,24,4)          51.1032         estimate D2E/DX2                !
 ! D122  D(27,19,24,16)        180.0            estimate D2E/DX2                !
 ! D123  D(28,19,24,4)         180.0            estimate D2E/DX2                !
 ! D124  D(28,19,24,16)        -51.1032         estimate D2E/DX2                !
 ! D125  D(24,19,27,5)         -51.1032         estimate D2E/DX2                !
 ! D126  D(24,19,27,30)        180.0            estimate D2E/DX2                !
 ! D127  D(28,19,27,5)         180.0            estimate D2E/DX2                !
 ! D128  D(28,19,27,30)         51.1032         estimate D2E/DX2                !
 ! D129  D(24,19,28,20)         51.1032         estimate D2E/DX2                !
 ! D130  D(24,19,28,31)        180.0            estimate D2E/DX2                !
 ! D131  D(27,19,28,20)        180.0            estimate D2E/DX2                !
 ! D132  D(27,19,28,31)        -51.1032         estimate D2E/DX2                !
 ! D133  D(28,20,25,16)         51.1032         estimate D2E/DX2                !
 ! D134  D(28,20,25,17)        180.0            estimate D2E/DX2                !
 ! D135  D(29,20,25,16)        180.0            estimate D2E/DX2                !
 ! D136  D(29,20,25,17)        -51.1032         estimate D2E/DX2                !
 ! D137  D(25,20,28,19)        -51.1032         estimate D2E/DX2                !
 ! D138  D(25,20,28,31)        180.0            estimate D2E/DX2                !
 ! D139  D(29,20,28,19)       -180.0            estimate D2E/DX2                !
 ! D140  D(29,20,28,31)         51.1032         estimate D2E/DX2                !
 ! D141  D(25,20,29,21)         51.1032         estimate D2E/DX2                !
 ! D142  D(25,20,29,32)        180.0            estimate D2E/DX2                !
 ! D143  D(28,20,29,21)        180.0            estimate D2E/DX2                !
 ! D144  D(28,20,29,32)        -51.1032         estimate D2E/DX2                !
 ! D145  D(29,21,26,17)         51.1032         estimate D2E/DX2                !
 ! D146  D(29,21,26,18)       -180.0            estimate D2E/DX2                !
 ! D147  D(33,21,26,17)        180.0            estimate D2E/DX2                !
 ! D148  D(33,21,26,18)        -51.1032         estimate D2E/DX2                !
 ! D149  D(26,21,29,20)        -51.1032         estimate D2E/DX2                !
 ! D150  D(26,21,29,32)        180.0            estimate D2E/DX2                !
 ! D151  D(33,21,29,20)        180.0            estimate D2E/DX2                !
 ! D152  D(33,21,29,32)         51.1032         estimate D2E/DX2                !
 --------------------------------------------------------------------------------
 Trust Radius=3.00D-01 FncErr=1.00D-07 GrdErr=1.00D-07
 Number of steps in this run=    264 maximum allowed number of steps=    264.
 GradGradGradGradGradGradGradGradGradGradGradGradGradGradGradGradGradGrad

                          Input orientation:                          
 ---------------------------------------------------------------------
 Center     Atomic      Atomic             Coordinates (Angstroms)
 Number     Number       Type             X           Y           Z
 ---------------------------------------------------------------------
      1          6           0        0.176948    1.023714    2.994967
      2          6           0        1.434948    0.297407    2.577810
      3          6           0        2.692948    1.023714    2.994967
      4          6           0        5.208948    1.023714    2.994967
      5          6           0        7.724948    1.023714    2.994967
      6          6           0        3.950948    0.297407    2.577810
      7          6           0        6.466948    0.297407    2.577810
      8          6           0       -1.081052    3.202634    2.994967
      9          6           0       -2.339052    5.381554    2.994967
     10          6           0        0.176948    2.476327    2.577810
     11          6           0       -1.081052    4.655247    2.577810
     12          6           0       -2.339052    6.834167    2.577810
     13          6           0        1.434948    3.202634    2.994967
     14          6           0        0.176948    5.381554    2.994967
     15          6           0       -1.081052    7.560474    2.994967
     16          6           0        3.950948    3.202634    2.994967
     17          6           0        2.692948    5.381554    2.994967
     18          6           0        1.434948    7.560474    2.994967
     19          6           0        6.466948    3.202634    2.994967
     20          6           0        5.208948    5.381554    2.994967
     21          6           0        3.950948    7.560474    2.994967
     22          6           0        2.692948    2.476327    2.577810
     23          6           0        0.176948    6.834167    2.577810
     24          6           0        5.208948    2.476327    2.577810
     25          6           0        3.950948    4.655247    2.577810
     26          6           0        2.692948    6.834167    2.577810
     27          6           0        7.724948    2.476327    2.577810
     28          6           0        6.466948    4.655247    2.577810
     29          6           0        5.208948    6.834167    2.577810
     30          1           0        8.615597    2.990544    2.873152
     31          1           0        7.357597    5.169464    2.873152
     32          1           0        6.099597    7.348383    2.873152
     33          1           0        3.950948    8.588906    2.699625
     34          1           0        1.434948    8.588906    2.699625
     35          1           0       -1.081052    8.588906    2.699625
     36          1           0       -3.229701    7.348383    2.873152
     37          1           0       -3.229701    4.867338    2.699625
     38          1           0       -1.971701    2.688418    2.699625
     39          1           0       -0.713701    0.509498    2.699625
     40          1           0        1.434948   -0.731025    2.873152
     41          1           0        3.950948   -0.731025    2.873152
     42          1           0        6.495217   -0.604546    3.152772
     43          1           0        8.373408    0.350713    3.515994
     44          7           0        1.434948    4.655247    2.577810
 ---------------------------------------------------------------------
                    Distance matrix (angstroms):
                    1          2          3          4          5
     1  C    0.000000
     2  C    1.511326   0.000000
     3  C    2.516000   1.511326   0.000000
     4  C    5.032000   3.865827   2.516000   0.000000
     5  C    7.548000   6.345521   5.032000   2.516000   0.000000
     6  C    3.865827   2.516000   1.511326   1.511326   3.865827
     7  C    6.345521   5.032000   3.865827   1.511326   1.511326
     8  C    2.516000   3.865827   4.357840   6.656710   9.071567
     9  C    5.032000   6.345521   6.656710   8.715680  10.966990
    10  C    1.511326   2.516000   2.935023   5.254058   7.697818
    11  C    3.865827   5.032000   5.254058   7.275036   9.534552
    12  C    6.345521   7.548000   7.697818   9.534552  11.628391
    13  C    2.516000   2.935023   2.516000   4.357840   6.656710
    14  C    4.357840   5.254058   5.032000   6.656710   8.715680
    15  C    6.656710   7.697818   7.548000   9.071567  10.966990
    16  C    4.357840   3.865827   2.516000   2.516000   4.357840
    17  C    5.032000   5.254058   4.357840   5.032000   6.656710
    18  C    6.656710   7.275036   6.656710   7.548000   9.071567
    19  C    6.656710   5.825409   4.357840   2.516000   2.516000
    20  C    6.656710   6.345521   5.032000   4.357840   5.032000
    21  C    7.548000   7.697818   6.656710   6.656710   7.548000
    22  C    2.935023   2.516000   1.511326   2.935023   5.254058
    23  C    5.825409   6.656710   6.345521   7.697818   9.534552
    24  C    5.254058   4.357840   2.935023   1.511326   2.935023
    25  C    5.254058   5.032000   3.865827   3.865827   5.254058
    26  C    6.345521   6.656710   5.825409   6.345521   7.697818
    27  C    7.697818   6.656710   5.254058   2.935023   1.511326
    28  C    7.275036   6.656710   5.254058   3.865827   3.865827
    29  C    7.697818   7.548000   6.345521   5.825409   6.345521
    30  H    8.665682   7.674759   6.241877   3.935545   2.162524
    31  H    8.292394   7.674759   6.241877   4.671056   4.163775
    32  H    8.665682   8.459458   7.184813   6.388234   6.531313
    33  H    8.459458   8.665682   7.674759   7.674759   8.459458
    34  H    7.674759   8.292394   7.674759   8.459458   9.842940
    35  H    7.674759   8.665682   8.459458   9.842940  11.613139
    36  H    7.184813   8.459458   8.665682  10.546425  12.649925
    37  H    5.144504   6.531313   7.066713   9.277471  11.613139
    38  H    2.734073   4.163775   4.961594   7.377003   9.842940
    39  H    1.070000   2.162524   3.457875   5.952261   8.459458
    40  H    2.162524   1.070000   2.162524   4.163775   6.531313
    41  H    4.163775   2.734073   2.162524   2.162524   4.163775
    42  H    6.526612   5.172082   4.139249   2.081015   2.046551
    43  H    8.240531   7.001804   5.743868   3.276920   1.070000
    44  N    3.865827   4.357840   3.865827   5.254058   7.275036
                    6          7          8          9         10
     6  C    0.000000
     7  C    2.516000   0.000000
     8  C    5.825409   8.098559   0.000000
     9  C    8.098559  10.176846   2.516000   0.000000
    10  C    4.357840   6.656710   1.511326   3.865827   0.000000
    11  C    6.656710   8.715680   1.511326   1.511326   2.516000
    12  C    9.071567  10.966990   3.865827   1.511326   5.032000
    13  C    3.865827   5.825409   2.516000   4.357840   1.511326
    14  C    6.345521   8.098559   2.516000   2.516000   2.935023
    15  C    8.845743  10.483246   4.357840   2.516000   5.254058
    16  C    2.935023   3.865827   5.032000   6.656710   3.865827
    17  C    5.254058   6.345521   4.357840   5.032000   3.865827
    18  C    7.697818   8.845743   5.032000   4.357840   5.254058
    19  C    3.865827   2.935023   7.548000   9.071567   6.345521
    20  C    5.254058   5.254058   6.656710   7.548000   5.825409
    21  C    7.275036   7.697818   6.656710   6.656710   6.345521
    22  C    2.516000   4.357840   3.865827   5.825409   2.516000
    23  C    7.548000   9.071567   3.865827   2.935023   4.357840
    24  C    2.516000   2.516000   6.345521   8.098559   5.032000
    25  C    4.357840   5.032000   5.254058   6.345521   4.357840
    26  C    6.656710   7.548000   5.254058   5.254058   5.032000
    27  C    4.357840   2.516000   8.845743  10.483246   7.548000
    28  C    5.032000   4.357840   7.697818   8.845743   6.656710
    29  C    6.656710   6.656710   7.275036   7.697818   6.656710
    30  H    5.394363   3.457875   9.699733  11.213211   8.459458
    31  H    5.952261   4.961594   8.665682   9.699733   7.674759
    32  H    7.377003   7.066713   8.292394   8.665682   7.674759
    33  H    8.292394   8.665682   7.377003   7.066713   7.184813
    34  H    8.665682   9.699733   5.952261   4.961594   6.241877
    35  H    9.699733  11.213211   5.394363   3.457875   6.241877
    36  H   10.068029  11.992851   4.671056   2.162524   5.952261
    37  H    8.512392  10.720266   2.734073   1.070000   4.163775
    38  H    6.388234   8.771691   1.070000   2.734073   2.162524
    39  H    4.671056   7.184813   2.734073   5.144504   2.162524
    40  H    2.734073   5.144504   4.671056   7.184813   3.457875
    41  H    1.070000   2.734073   6.388234   8.771691   4.961594
    42  H    2.759965   1.070000   8.480529  10.672516   7.052864
    43  H    4.521192   2.125469   9.888970  11.846418   8.519412
    44  N    5.032000   6.656710   2.935023   3.865827   2.516000
                   11         12         13         14         15
    11  C    0.000000
    12  C    2.516000   0.000000
    13  C    2.935023   5.254058   0.000000
    14  C    1.511326   2.935023   2.516000   0.000000
    15  C    2.935023   1.511326   5.032000   2.516000   0.000000
    16  C    5.254058   7.275036   2.516000   4.357840   6.656710
    17  C    3.865827   5.254058   2.516000   2.516000   4.357840
    18  C    3.865827   3.865827   4.357840   2.516000   2.516000
    19  C    7.697818   9.534552   5.032000   6.656710   8.715680
    20  C    6.345521   7.697818   4.357840   5.032000   6.656710
    21  C    5.825409   6.345521   5.032000   4.357840   5.032000
    22  C    4.357840   6.656710   1.511326   3.865827   6.345521
    23  C    2.516000   2.516000   3.865827   1.511326   1.511326
    24  C    6.656710   8.715680   3.865827   5.825409   8.098559
    25  C    5.032000   6.656710   2.935023   3.865827   5.825409
    26  C    4.357840   5.032000   3.865827   2.935023   3.865827
    27  C    9.071567  10.966990   6.345521   8.098559  10.176846
    28  C    7.548000   9.071567   5.254058   6.345521   8.098559
    29  C    6.656710   7.548000   5.254058   5.254058   6.345521
    30  H    9.842940  11.613139   7.184813   8.771691  10.720266
    31  H    8.459458   9.842940   6.241877   7.184813   8.771691
    32  H    7.674759   8.459458   6.241877   6.241877   7.184813
    33  H    6.388234   6.531313   5.952261   4.961594   5.144504
    34  H    4.671056   4.163775   5.394363   3.457875   2.734073
    35  H    3.935545   2.162524   5.952261   3.457875   1.070000
    36  H    3.457875   1.070000   6.241877   3.935545   2.162524
    37  H    2.162524   2.162524   4.961594   3.457875   3.457875
    38  H    2.162524   4.163775   3.457875   3.457875   4.961594
    39  H    4.163775   6.531313   3.457875   4.961594   7.066713
    40  H    5.952261   8.459458   3.935545   6.241877   8.665682
    41  H    7.377003   9.842940   4.671056   7.184813   9.699733
    42  H    9.240988  11.563276   6.334497   8.705103  11.139673
    43  H   10.430533  12.556757   7.519784   9.631344  11.901215
    44  N    2.516000   4.357840   1.511326   1.511326   3.865827
                   16         17         18         19         20
    16  C    0.000000
    17  C    2.516000   0.000000
    18  C    5.032000   2.516000   0.000000
    19  C    2.516000   4.357840   6.656710   0.000000
    20  C    2.516000   2.516000   4.357840   2.516000   0.000000
    21  C    4.357840   2.516000   2.516000   5.032000   2.516000
    22  C    1.511326   2.935023   5.254058   3.865827   3.865827
    23  C    5.254058   2.935023   1.511326   7.275036   5.254058
    24  C    1.511326   3.865827   6.345521   1.511326   2.935023
    25  C    1.511326   1.511326   3.865827   2.935023   1.511326
    26  C    3.865827   1.511326   1.511326   5.254058   2.935023
    27  C    3.865827   5.825409   8.098559   1.511326   3.865827
    28  C    2.935023   3.865827   5.825409   1.511326   1.511326
    29  C    3.865827   2.935023   3.865827   3.865827   1.511326
    30  H    4.671056   6.388234   8.512392   2.162524   4.163775
    31  H    3.935545   4.671056   6.388234   2.162524   2.162524
    32  H    4.671056   3.935545   4.671056   4.163775   2.162524
    33  H    5.394363   3.457875   2.734073   5.952261   3.457875
    34  H    5.952261   3.457875   1.070000   7.377003   4.961594
    35  H    7.377003   4.961594   2.734073   9.277471   7.066713
    36  H    8.292394   6.241877   4.671056  10.546425   8.665682
    37  H    7.377003   5.952261   5.394363   9.842940   8.459458
    38  H    5.952261   5.394363   5.952261   8.459458   7.674759
    39  H    5.394363   5.952261   7.377003   7.674759   7.674759
    40  H    4.671056   6.241877   8.292394   6.388234   7.184813
    41  H    3.935545   6.241877   8.665682   4.671056   6.241877
    42  H    4.581793   7.093345   9.607225   3.810554   6.124768
    43  H    5.288012   7.605817  10.019698   3.469800   5.966124
    44  N    2.935023   1.511326   2.935023   5.254058   3.865827
                   21         22         23         24         25
    21  C    0.000000
    22  C    5.254058   0.000000
    23  C    3.865827   5.032000   0.000000
    24  C    5.254058   2.516000   6.656710   0.000000
    25  C    2.935023   2.516000   4.357840   2.516000   0.000000
    26  C    1.511326   4.357840   2.516000   5.032000   2.516000
    27  C    6.345521   5.032000   8.715680   2.516000   4.357840
    28  C    3.865827   4.357840   6.656710   2.516000   2.516000
    29  C    1.511326   5.032000   5.032000   4.357840   2.516000
    30  H    6.531313   5.952261   9.277471   3.457875   4.961594
    31  H    4.163775   5.394363   7.377003   3.457875   3.457875
    32  H    2.162524   5.952261   5.952261   4.961594   3.457875
    33  H    1.070000   6.241877   4.163775   6.241877   3.935545
    34  H    2.734073   6.241877   2.162524   7.184813   4.671056
    35  H    5.144504   7.184813   2.162524   8.771691   6.388234
    36  H    7.184813   7.674759   3.457875   9.748587   7.674759
    37  H    7.674759   6.388234   3.935545   8.771691   7.184813
    38  H    7.674759   4.671056   4.671056   7.184813   6.241877
    39  H    8.459458   3.935545   6.388234   6.241877   6.241877
    40  H    8.665682   3.457875   7.674759   4.961594   5.952261
    41  H    8.292394   3.457875   8.459458   3.457875   5.394363
    42  H    8.553698   4.927435   9.776787   3.387750   5.871057
    43  H    8.474094   6.137267  10.492727   3.925841   6.242384
    44  N    3.865827   2.516000   2.516000   4.357840   2.516000
                   26         27         28         29         30
    26  C    0.000000
    27  C    6.656710   0.000000
    28  C    4.357840   2.516000   0.000000
    29  C    2.516000   5.032000   2.516000   0.000000
    30  H    7.066713   1.070000   2.734073   5.144504   0.000000
    31  H    4.961594   2.734073   1.070000   2.734073   2.516000
    32  H    3.457875   5.144504   2.734073   1.070000   5.032000
    33  H    2.162524   7.184813   4.671056   2.162524   7.289082
    34  H    2.162524   8.771691   6.388234   4.163775   9.106783
    35  H    4.163775  10.720266   8.512392   6.531313  11.198070
    36  H    5.952261  11.992851  10.068029   8.459458  12.621483
    37  H    6.241877  11.213211   9.699733   8.665682  11.994313
    38  H    6.241877   9.699733   8.665682   8.292394  10.593029
    39  H    7.184813   8.665682   8.292394   8.665682   9.655127
    40  H    7.674759   7.066713   7.377003   8.459458   8.087755
    41  H    7.674759   4.961594   5.952261   7.674759   5.967329
    42  H    8.373905   3.366689   5.291201   7.570966   4.183164
    43  H    8.670812   2.412245   4.800395   7.275244   2.727747
    44  N    2.516000   6.656710   5.032000   4.357840   7.377003
                   31         32         33         34         35
    31  H    0.000000
    32  H    2.516000   0.000000
    33  H    4.829902   2.487107   0.000000
    34  H    6.841087   4.829902   2.516000   0.000000
    35  H    9.106783   7.289082   5.032000   2.516000   0.000000
    36  H   10.809188   9.329297   7.289082   4.829902   2.487107
    37  H   10.593029   9.655127   8.087755   5.967329   4.297297
    38  H    9.655127   9.321547   8.360235   6.813297   5.967329
    39  H    9.321547   9.655127   9.329297   8.360235   8.087755
    40  H    8.360235   9.329297   9.655127   9.321547   9.655127
    41  H    6.813297   8.360235   9.321547   9.655127  10.593029
    42  H    5.844747   7.967671   9.549775  10.503867  11.921609
    43  H    4.966435   7.385855   9.385757  10.801690  12.566666
    44  N    5.952261   5.394363   4.671056   3.935545   4.671056
                   36         37         38         39         40
    36  H    0.000000
    37  H    2.487107   0.000000
    38  H    4.829902   2.516000   0.000000
    39  H    7.289082   5.032000   2.516000   0.000000
    40  H    9.329297   7.289082   4.829902   2.487107   0.000000
    41  H   10.809188   9.106783   6.841087   4.829902   2.516000
    42  H   12.565878  11.167850   9.096024   7.308552   5.069567
    43  H   13.565130  12.477920  10.637321   9.125087   7.051640
    44  N    5.394363   4.671056   3.935545   4.671056   5.394363
                   41         42         43         44
    41  H    0.000000
    42  H    2.562712   0.000000
    43  H    4.597995   2.138235   0.000000
    44  N    5.952261   7.321361   8.218967   0.000000
 Stoichiometry    C29H14N(2)
 Framework group  C1[X(C29H14N)]
 Deg. of freedom   126
 Full point group                 C1      NOp   1
 Largest Abelian subgroup         C1      NOp   1
 Largest concise Abelian subgroup C1      NOp   1
                         Standard orientation:                         
 ---------------------------------------------------------------------
 Center     Atomic      Atomic             Coordinates (Angstroms)
 Number     Number       Type             X           Y           Z
 ---------------------------------------------------------------------
      1          6           0       -0.714824   -3.774099    0.200493
      2          6           0        0.738034   -3.772490   -0.215807
      3          6           0        1.462999   -2.514203    0.202815
      4          6           0        3.640822   -1.254307    0.205137
      5          6           0        5.818646    0.005588    0.207458
      6          6           0        2.915857   -2.512594   -0.213485
      7          6           0        5.093681   -1.252699   -0.211163
      8          6           0       -2.894838   -2.517996    0.200245
      9          6           0       -5.074852   -1.261893    0.199998
     10          6           0       -1.441980   -2.516387   -0.216054
     11          6           0       -3.621994   -1.260285   -0.216302
     12          6           0       -5.802008   -0.004182   -0.216549
     13          6           0       -0.717015   -1.258100    0.202567
     14          6           0       -2.897029   -0.001998    0.202320
     15          6           0       -5.077043    1.254105    0.202073
     16          6           0        1.460808    0.001795    0.204889
     17          6           0       -0.719206    1.257898    0.204642
     18          6           0       -2.899220    2.514000    0.204394
     19          6           0        3.638631    1.261691    0.207211
     20          6           0        1.458617    2.517793    0.206964
     21          6           0       -0.721397    3.773896    0.206716
     22          6           0        0.735843   -1.256492   -0.213733
     23          6           0       -3.624185    1.255713   -0.214227
     24          6           0        2.913666    0.003404   -0.211411
     25          6           0        0.733652    1.259506   -0.211658
     26          6           0       -1.446362    2.515609   -0.211905
     27          6           0        5.091490    1.263299   -0.209089
     28          6           0        2.911475    2.519402   -0.209336
     29          6           0        0.731461    3.775505   -0.209583
     30          1           0        5.604756    2.154151    0.087290
     31          1           0        3.424742    3.410254    0.087043
     32          1           0        1.244727    4.666356    0.086796
     33          1           0       -1.236215    4.664340   -0.088194
     34          1           0       -3.414038    3.404445   -0.090516
     35          1           0       -5.591861    2.144549   -0.092838
     36          1           0       -6.830614   -0.005321    0.078186
     37          1           0       -5.588119   -2.152745   -0.096381
     38          1           0       -3.408104   -3.408848   -0.096134
     39          1           0       -1.228090   -4.664950   -0.095886
     40          1           0        1.252852   -4.662934    0.079103
     41          1           0        3.430675   -3.403039    0.081425
     42          1           0        5.569468   -2.019739    0.363446
     43          1           0        6.716647   -0.252666    0.728802
     44          7           0       -1.444171   -0.000389   -0.213980
 ---------------------------------------------------------------------
 Rotational constants (GHZ):      0.2993252      0.1334595      0.0928629
 Standard basis: VSTO-6G (5D, 7F)
 There are   134 symmetry adapted cartesian basis functions of A   symmetry.
 There are   134 symmetry adapted basis functions of A   symmetry.
   134 basis functions,   804 primitive gaussians,   134 cartesian basis functions
    68 alpha electrons       67 beta electrons
       nuclear repulsion energy      1261.6610540359 Hartrees.
 Integral buffers will be    262144 words long.
 Regular integral format.
 Two-electron integral symmetry is turned off.
 Do NDO integrals.
 One-electron integrals computed using PRISM.
 NBasis=   134 RedAO= F EigKep=  0.00D+00  NBF=   134
 NBsUse=   134 1.00D-04 EigRej=  0.00D+00 NBFU=   134
 Simple Huckel Guess.
 Initial guess <Sx>= 0.0000 <Sy>= 0.0000 <Sz>= 0.5000 <S**2>= 0.7500 S= 0.5000
 Keep J ints in memory in canonical form, NReq=1097150.
 Gradient too large for Newton-Raphson -- use scaled steepest descent instead.
     Minimum is close to point  6 DX= -2.77D-03 DF= -2.24D-06 DXR=  2.32D-03 DFR=  5.30D-06 which will be used.
 Gradient too large for Newton-Raphson -- use scaled steepest descent instead.
     Accept linear search using points  2 and  3.
 Gradient too large for Newton-Raphson -- use scaled steepest descent instead.
 Gradient too large for Newton-Raphson -- use scaled steepest descent instead.
     Accept linear search using points  1 and  2.
     Minimum is close to point  2 DX= -8.95D-02 DF= -6.55D-05 DXR=  7.40D-02 DFR=  7.98D-03 which will be used.
 Gradient too large for Newton-Raphson -- use scaled steepest descent instead.
     Accept linear search using points  1 and  2.
     Minimum is close to point  2 DX= -6.84D-02 DF= -2.80D-05 DXR=  4.47D-02 DFR=  3.90D-03 which will be used.
 Gradient too large for Newton-Raphson -- use scaled steepest descent instead.
     Accept linear search using points  1 and  2.
     Minimum is close to point  2 DX= -6.59D-02 DF= -3.05D-05 DXR=  4.94D-02 DFR=  4.00D-03 which will be used.
 Gradient too large for Newton-Raphson -- use scaled steepest descent instead.
     Minimum is close to point  2 DX=  2.08D-02 DF= -1.56D-06 DXR=  1.46D-02 DFR=  2.14D-04 which will be used.
 Gradient too large for Newton-Raphson -- use scaled steepest descent instead.
 Gradient too large for Newton-Raphson -- use scaled steepest descent instead.
     Accept linear search using points  1 and  2.
     Minimum is close to point  2 DX= -4.84D-02 DF= -1.26D-05 DXR=  3.33D-02 DFR=  2.04D-03 which will be used.
 Gradient too large for Newton-Raphson -- use scaled steepest descent instead.
     Accept linear search using points  1 and  2.
     Minimum is close to point  2 DX= -5.03D-02 DF= -1.19D-05 DXR=  3.47D-02 DFR=  2.21D-03 which will be used.
 Gradient too large for Newton-Raphson -- use scaled steepest descent instead.
     Accept linear search using points  1 and  2.
     Minimum is close to point  2 DX= -4.95D-02 DF= -9.75D-06 DXR=  3.42D-02 DFR=  2.14D-03 which will be used.
 Gradient too large for Newton-Raphson -- use scaled steepest descent instead.
     Accept linear search using points  1 and  2.
     Minimum is close to point  2 DX= -3.73D-02 DF= -4.71D-06 DXR=  2.55D-02 DFR=  1.22D-03 which will be used.
 Gradient too large for Newton-Raphson -- use scaled steepest descent instead.
     Accept linear search using points  1 and  2.
     Minimum is close to point  2 DX= -1.75D-02 DF= -8.83D-07 DXR=  1.18D-02 DFR=  2.68D-04 which will be used.
 Gradient too large for Newton-Raphson -- use scaled steepest descent instead.
     Minimum is close to point  2 DX=  3.59D-02 DF= -1.56D-06 DXR=  2.34D-02 DFR=  5.46D-04 which will be used.
 Gradient too large for Newton-Raphson -- use scaled steepest descent instead.
     Minimum is close to point  2 DX=  1.57D-01 DF= -2.30D-05 DXR=  9.50D-02 DFR=  9.10D-03 which will be used.
 Gradient too large for Newton-Raphson -- use scaled steepest descent instead.
 Gradient too large for Newton-Raphson -- use scaled steepest descent instead.
     Accept linear search using points  1 and  2.
     Minimum is close to point  2 DX= -1.47D-01 DF= -3.41D-05 DXR=  8.87D-02 DFR=  1.61D-02 which will be used.
 Gradient too large for Newton-Raphson -- use scaled steepest descent instead.
     Accept linear search using points  1 and  2.
 Gradient too large for Newton-Raphson -- use scaled steepest descent instead.
     Accept linear search using points  1 and  2.
     Minimum is close to point  2 DX= -3.30D-02 DF= -2.55D-06 DXR=  2.11D-02 DFR=  9.37D-04 which will be used.
 Gradient too large for Newton-Raphson -- use scaled steepest descent instead.
 Gradient too large for Newton-Raphson -- use scaled steepest descent instead.
     Minimum is close to point  2 DX=  7.44D-02 DF= -7.14D-06 DXR=  4.44D-02 DFR=  1.98D-03 which will be used.
 Gradient too large for Newton-Raphson -- use scaled steepest descent instead.
     Minimum is close to point  2 DX=  1.23D-01 DF= -1.79D-05 DXR=  6.76D-02 DFR=  4.58D-03 which will be used.
 Gradient too large for Newton-Raphson -- use scaled steepest descent instead.
     Minimum is close to point  2 DX= -2.35D-02 DF= -7.54D-07 DXR=  1.40D-02 DFR=  1.96D-04 which will be used.
 Gradient too large for Newton-Raphson -- use scaled steepest descent instead.
     Accept linear search using points  1 and  2.
     Minimum is close to point  2 DX= -4.96D-02 DF= -7.32D-06 DXR=  3.01D-02 DFR=  2.08D-03 which will be used.
 Gradient too large for Newton-Raphson -- use scaled steepest descent instead.
     Accept linear search using points  1 and  2.
     Minimum is close to point  2 DX= -1.31D-01 DF= -4.05D-05 DXR=  8.33D-02 DFR=  1.36D-02 which will be used.
 Gradient too large for Newton-Raphson -- use scaled steepest descent instead.
     Accept linear search using points  1 and  2.
 Gradient too large for Newton-Raphson -- use scaled steepest descent instead.
     Accept linear search using points  1 and  2.
     Minimum is close to point  2 DX= -1.00D-02 DF= -1.71D-07 DXR=  6.72D-03 DFR=  8.88D-05 which will be used.
 Gradient too large for Newton-Raphson -- use scaled steepest descent instead.
     Minimum is close to point  2 DX=  9.01D-02 DF= -4.59D-06 DXR=  5.67D-02 DFR=  3.22D-03 which will be used.
 Gradient too large for Newton-Raphson -- use scaled steepest descent instead.
 Gradient too large for Newton-Raphson -- use scaled steepest descent instead.
     Accept linear search using points  1 and  2.
     Minimum is close to point  2 DX= -8.74D-02 DF= -4.76D-06 DXR=  5.42D-02 DFR=  6.10D-03 which will be used.
 Gradient too large for Newton-Raphson -- use scaled steepest descent instead.
     Accept linear search using points  1 and  2.
 Gradient too large for Newton-Raphson -- use scaled steepest descent instead.
     Accept linear search using points  1 and  2.
     Minimum is close to point  2 DX= -2.74D-02 DF= -3.81D-07 DXR=  1.74D-02 DFR=  6.47D-04 which will be used.
 Gradient too large for Newton-Raphson -- use scaled steepest descent instead.
     Minimum is close to point  2 DX=  9.16D-02 DF= -1.70D-06 DXR=  5.42D-02 DFR=  2.94D-03 which will be used.
 Gradient too large for Newton-Raphson -- use scaled steepest descent instead.
 Gradient too large for Newton-Raphson -- use scaled steepest descent instead.
     Accept linear search using points  1 and  2.
     Minimum is close to point  2 DX= -7.86D-02 DF= -3.32D-06 DXR=  4.56D-02 DFR=  4.90D-03 which will be used.
 Gradient too large for Newton-Raphson -- use scaled steepest descent instead.
     Accept linear search using points  1 and  2.
     Minimum is close to point  2 DX= -1.64D-01 DF= -1.36D-05 DXR=  9.48D-02 DFR=  1.90D-02 which will be used.
 Gradient too large for Newton-Raphson -- use scaled steepest descent instead.
     Accept linear search using points  1 and  2.
 Gradient too large for Newton-Raphson -- use scaled steepest descent instead.
     Minimum is close to point  2 DX=  3.70D-02 DF= -4.47D-07 DXR=  2.26D-02 DFR=  5.11D-04 which will be used.
 Gradient too large for Newton-Raphson -- use scaled steepest descent instead.
 Gradient too large for Newton-Raphson -- use scaled steepest descent instead.
 Gradient too large for Newton-Raphson -- use scaled steepest descent instead.
     Minimum is close to point  2 DX=  1.16D-01 DF= -3.00D-06 DXR=  6.38D-02 DFR=  4.09D-03 which will be used.
 Gradient too large for Newton-Raphson -- use scaled steepest descent instead.
     Minimum is close to point  2 DX=  3.48D-02 DF= -2.48D-07 DXR=  2.01D-02 DFR=  4.03D-04 which will be used.
 Gradient too large for Newton-Raphson -- use scaled steepest descent instead.
 Gradient too large for Newton-Raphson -- use scaled steepest descent instead.
     Minimum is close to point  2 DX= -6.04D-02 DF= -4.90D-07 DXR=  3.68D-02 DFR=  1.36D-03 which will be used.
 LinEq1:  Iter=  0 NonCon=     1 RMS=2.41D-04 Max=1.18D-02 NDo=     1
 AX will form     1 AO Fock derivatives at one time.
 LinEq1:  Iter=  1 NonCon=     1 RMS=1.17D-04 Max=4.06D-03 NDo=     1
 LinEq1:  Iter=  2 NonCon=     1 RMS=7.40D-06 Max=1.46D-04 NDo=     1
 LinEq1:  Iter=  3 NonCon=     1 RMS=1.67D-06 Max=3.21D-05 NDo=     1
 LinEq1:  Iter=  4 NonCon=     1 RMS=4.43D-07 Max=6.94D-06 NDo=     1
 LinEq1:  Iter=  5 NonCon=     1 RMS=1.12D-07 Max=2.63D-06 NDo=     1
 LinEq1:  Iter=  6 NonCon=     1 RMS=2.41D-08 Max=4.04D-07 NDo=     1
 LinEq1:  Iter=  7 NonCon=     1 RMS=4.74D-09 Max=9.91D-08 NDo=     1
 LinEq1:  Iter=  8 NonCon=     0 RMS=9.76D-10 Max=2.01D-08 NDo=     1
 Linear equations converged to 9.475D-09 9.475D-08 after     8 iterations.
     Accept linear search using points  1 and  2.
 LinEq1:  Iter=  0 NonCon=     1 RMS=3.56D-05 Max=1.11D-03 NDo=     1
 LinEq1:  Iter=  1 NonCon=     1 RMS=9.17D-06 Max=3.73D-04 NDo=     1
 LinEq1:  Iter=  2 NonCon=     1 RMS=1.48D-06 Max=2.81D-05 NDo=     1
 LinEq1:  Iter=  3 NonCon=     1 RMS=3.24D-07 Max=5.01D-06 NDo=     1
 LinEq1:  Iter=  4 NonCon=     1 RMS=8.52D-08 Max=2.32D-06 NDo=     1
 LinEq1:  Iter=  5 NonCon=     1 RMS=2.00D-08 Max=3.18D-07 NDo=     1
 LinEq1:  Iter=  6 NonCon=     0 RMS=5.23D-09 Max=8.19D-08 NDo=     1
 Linear equations converged to 9.475D-09 9.475D-08 after     6 iterations.
     Accept linear search using points  1 and  2.
     Minimum is close to point  2 DX= -1.00D-03 DF= -5.77D-12 DXR=  1.00D-03 DFR=  1.01D-06 which will be used.
 LinEq1:  Iter=  0 NonCon=     1 RMS=1.65D-07 Max=3.51D-06 NDo=     1
 LinEq1:  Iter=  1 NonCon=     1 RMS=5.79D-08 Max=9.78D-07 NDo=     1
 LinEq1:  Iter=  2 NonCon=     1 RMS=1.44D-08 Max=3.38D-07 NDo=     1
 LinEq1:  Iter=  3 NonCon=     1 RMS=2.85D-09 Max=7.20D-08 NDo=     1
 LinEq1:  Iter=  4 NonCon=     1 RMS=7.47D-10 Max=1.14D-08 NDo=     1
 LinEq1:  Iter=  5 NonCon=     1 RMS=1.57D-10 Max=4.58D-09 NDo=     1
 LinEq1:  Iter=  6 NonCon=     1 RMS=4.75D-11 Max=1.36D-09 NDo=     1
 LinEq1:  Iter=  7 NonCon=     0 RMS=8.86D-12 Max=1.47D-10 NDo=     1
 Linear equations converged to 8.206D-11 8.206D-10 after     7 iterations.
 SCF Done:  E(UPM6) =   1.02793688661     a.u. after   48 cycles
            Convg  =    0.3478D-07                   112 Fock formations.
              S**2 =  6.3287                  -V/T =  1.0110
 <Sx>= 0.0000 <Sy>= 0.0000 <Sz>= 0.5000 <S**2>= 6.3287 S= 2.0649
 <L.S>= 0.000000000000E+00
 Annihilation of the first spin contaminant:
 S**2 before annihilation     6.3287,   after    22.3289

 **********************************************************************

            Population analysis using the SCF density.

 **********************************************************************

 Orbital symmetries:
 Alpha Orbitals:
       Occupied  (A) (A) (A) (A) (A) (A) (A) (A) (A) (A) (A) (A)
                 (A) (A) (A) (A) (A) (A) (A) (A) (A) (A) (A) (A)
                 (A) (A) (A) (A) (A) (A) (A) (A) (A) (A) (A) (A)
                 (A) (A) (A) (A) (A) (A) (A) (A) (A) (A) (A) (A)
                 (A) (A) (A) (A) (A) (A) (A) (A) (A) (A) (A) (A)
                 (A) (A) (A) (A) (A) (A) (A) (A)
       Virtual   (A) (A) (A) (A) (A) (A) (A) (A) (A) (A) (A) (A)
                 (A) (A) (A) (A) (A) (A) (A) (A) (A) (A) (A) (A)
                 (A) (A) (A) (A) (A) (A) (A) (A) (A) (A) (A) (A)
                 (A) (A) (A) (A) (A) (A) (A) (A) (A) (A) (A) (A)
                 (A) (A) (A) (A) (A) (A) (A) (A) (A) (A) (A) (A)
                 (A) (A) (A) (A) (A) (A)
 Beta  Orbitals:
       Occupied  (A) (A) (A) (A) (A) (A) (A) (A) (A) (A) (A) (A)
                 (A) (A) (A) (A) (A) (A) (A) (A) (A) (A) (A) (A)
                 (A) (A) (A) (A) (A) (A) (A) (A) (A) (A) (A) (A)
                 (A) (A) (A) (A) (A) (A) (A) (A) (A) (A) (A) (A)
                 (A) (A) (A) (A) (A) (A) (A) (A) (A) (A) (A) (A)
                 (A) (A) (A) (A) (A) (A) (A)
       Virtual   (A) (A) (A) (A) (A) (A) (A) (A) (A) (A) (A) (A)
                 (A) (A) (A) (A) (A) (A) (A) (A) (A) (A) (A) (A)
                 (A) (A) (A) (A) (A) (A) (A) (A) (A) (A) (A) (A)
                 (A) (A) (A) (A) (A) (A) (A) (A) (A) (A) (A) (A)
                 (A) (A) (A) (A) (A) (A) (A) (A) (A) (A) (A) (A)
                 (A) (A) (A) (A) (A) (A) (A)
 The electronic state is 2-A.
 Alpha  occ. eigenvalues --   -1.12592  -1.06572  -1.05088  -1.03903  -1.02566
 Alpha  occ. eigenvalues --   -1.01150  -0.99898  -0.96937  -0.94789  -0.94135
 Alpha  occ. eigenvalues --   -0.91505  -0.91380  -0.88770  -0.87381  -0.85529
 Alpha  occ. eigenvalues --   -0.80699  -0.80414  -0.79039  -0.78695  -0.78020
 Alpha  occ. eigenvalues --   -0.73734  -0.71705  -0.69413  -0.68010  -0.66031
 Alpha  occ. eigenvalues --   -0.65466  -0.62065  -0.61735  -0.60100  -0.57561
 Alpha  occ. eigenvalues --   -0.57311  -0.56064  -0.55317  -0.54176  -0.53954
 Alpha  occ. eigenvalues --   -0.53581  -0.52998  -0.51720  -0.50625  -0.50462
 Alpha  occ. eigenvalues --   -0.49651  -0.49325  -0.49176  -0.48482  -0.47737
 Alpha  occ. eigenvalues --   -0.47340  -0.47028  -0.46694  -0.46110  -0.45794
 Alpha  occ. eigenvalues --   -0.45028  -0.44316  -0.44010  -0.43584  -0.42645
 Alpha  occ. eigenvalues --   -0.42144  -0.41520  -0.41081  -0.40124  -0.40046
 Alpha  occ. eigenvalues --   -0.39758  -0.38235  -0.37972  -0.37791  -0.36442
 Alpha  occ. eigenvalues --   -0.35893  -0.35172  -0.31493
 Alpha virt. eigenvalues --   -0.04823  -0.02062  -0.01852  -0.01271  -0.00882
 Alpha virt. eigenvalues --   -0.00133   0.01058   0.01387   0.01812   0.03110
 Alpha virt. eigenvalues --    0.04117   0.04611   0.05893   0.06267   0.07244
 Alpha virt. eigenvalues --    0.10400   0.10840   0.11795   0.12015   0.12177
 Alpha virt. eigenvalues --    0.12725   0.12963   0.13320   0.13574   0.13707
 Alpha virt. eigenvalues --    0.13892   0.14027   0.14203   0.14358   0.14374
 Alpha virt. eigenvalues --    0.14570   0.14764   0.14875   0.14923   0.14994
 Alpha virt. eigenvalues --    0.15112   0.15446   0.15548   0.15752   0.15941
 Alpha virt. eigenvalues --    0.16132   0.16412   0.16520   0.16771   0.16908
 Alpha virt. eigenvalues --    0.17118   0.17472   0.17716   0.17844   0.18055
 Alpha virt. eigenvalues --    0.18552   0.18718   0.20862   0.21136   0.21259
 Alpha virt. eigenvalues --    0.21296   0.21328   0.21407   0.21423   0.21644
 Alpha virt. eigenvalues --    0.21777   0.21920   0.21963   0.22143   0.22180
 Alpha virt. eigenvalues --    0.22276
  Beta  occ. eigenvalues --   -1.12875  -1.06508  -1.05066  -1.03876  -1.02545
  Beta  occ. eigenvalues --   -1.01100  -0.99823  -0.96924  -0.94719  -0.93962
  Beta  occ. eigenvalues --   -0.91477  -0.91269  -0.88972  -0.87067  -0.84923
  Beta  occ. eigenvalues --   -0.80643  -0.80288  -0.79076  -0.78592  -0.78100
  Beta  occ. eigenvalues --   -0.73720  -0.71643  -0.69392  -0.68047  -0.65931
  Beta  occ. eigenvalues --   -0.65300  -0.62163  -0.61679  -0.59667  -0.57509
  Beta  occ. eigenvalues --   -0.57377  -0.55833  -0.55331  -0.54385  -0.54176
  Beta  occ. eigenvalues --   -0.53582  -0.52971  -0.51524  -0.50766  -0.50074
  Beta  occ. eigenvalues --   -0.49528  -0.49250  -0.48853  -0.48333  -0.47690
  Beta  occ. eigenvalues --   -0.47327  -0.46757  -0.46647  -0.46082  -0.45842
  Beta  occ. eigenvalues --   -0.44740  -0.44241  -0.43769  -0.43212  -0.42712
  Beta  occ. eigenvalues --   -0.41825  -0.41432  -0.40716  -0.40015  -0.39926
  Beta  occ. eigenvalues --   -0.38553  -0.38356  -0.38327  -0.37285  -0.36437
  Beta  occ. eigenvalues --   -0.34445  -0.30781
  Beta virt. eigenvalues --   -0.05128  -0.02215  -0.01674  -0.00903  -0.00607
  Beta virt. eigenvalues --   -0.00475  -0.00178   0.01155   0.01646   0.02081
  Beta virt. eigenvalues --    0.03707   0.04209   0.05015   0.05628   0.06295
  Beta virt. eigenvalues --    0.07158   0.10561   0.10588   0.11712   0.12041
  Beta virt. eigenvalues --    0.12206   0.12873   0.12983   0.13301   0.13600
  Beta virt. eigenvalues --    0.13705   0.13878   0.14061   0.14110   0.14207
  Beta virt. eigenvalues --    0.14389   0.14686   0.14828   0.14872   0.14935
  Beta virt. eigenvalues --    0.15079   0.15233   0.15404   0.15593   0.15731
  Beta virt. eigenvalues --    0.15964   0.16221   0.16369   0.16703   0.16828
  Beta virt. eigenvalues --    0.16881   0.17051   0.17638   0.17667   0.17963
  Beta virt. eigenvalues --    0.18127   0.18386   0.18680   0.20742   0.21300
  Beta virt. eigenvalues --    0.21527   0.21578   0.21640   0.21710   0.21735
  Beta virt. eigenvalues --    0.21771   0.21813   0.21835   0.21867   0.22232
  Beta virt. eigenvalues --    0.22323   0.22338
          Condensed to atoms (all electrons):
               1          2          3          4          5          6
     1  C    4.131564   0.000000   0.000000   0.000000   0.000000   0.000000
     2  C    0.000000   4.133780   0.000000   0.000000   0.000000   0.000000
     3  C    0.000000   0.000000   4.000722   0.000000   0.000000   0.000000
     4  C    0.000000   0.000000   0.000000   4.005629   0.000000   0.000000
     5  C    0.000000   0.000000   0.000000   0.000000   4.168483   0.000000
     6  C    0.000000   0.000000   0.000000   0.000000   0.000000   4.129113
     7  C    0.000000   0.000000   0.000000   0.000000   0.000000   0.000000
     8  C    0.000000   0.000000   0.000000   0.000000   0.000000   0.000000
     9  C    0.000000   0.000000   0.000000   0.000000   0.000000   0.000000
    10  C    0.000000   0.000000   0.000000   0.000000   0.000000   0.000000
    11  C    0.000000   0.000000   0.000000   0.000000   0.000000   0.000000
    12  C    0.000000   0.000000   0.000000   0.000000   0.000000   0.000000
    13  C    0.000000   0.000000   0.000000   0.000000   0.000000   0.000000
    14  C    0.000000   0.000000   0.000000   0.000000   0.000000   0.000000
    15  C    0.000000   0.000000   0.000000   0.000000   0.000000   0.000000
    16  C    0.000000   0.000000   0.000000   0.000000   0.000000   0.000000
    17  C    0.000000   0.000000   0.000000   0.000000   0.000000   0.000000
    18  C    0.000000   0.000000   0.000000   0.000000   0.000000   0.000000
    19  C    0.000000   0.000000   0.000000   0.000000   0.000000   0.000000
    20  C    0.000000   0.000000   0.000000   0.000000   0.000000   0.000000
    21  C    0.000000   0.000000   0.000000   0.000000   0.000000   0.000000
    22  C    0.000000   0.000000   0.000000   0.000000   0.000000   0.000000
    23  C    0.000000   0.000000   0.000000   0.000000   0.000000   0.000000
    24  C    0.000000   0.000000   0.000000   0.000000   0.000000   0.000000
    25  C    0.000000   0.000000   0.000000   0.000000   0.000000   0.000000
    26  C    0.000000   0.000000   0.000000   0.000000   0.000000   0.000000
    27  C    0.000000   0.000000   0.000000   0.000000   0.000000   0.000000
    28  C    0.000000   0.000000   0.000000   0.000000   0.000000   0.000000
    29  C    0.000000   0.000000   0.000000   0.000000   0.000000   0.000000
    30  H    0.000000   0.000000   0.000000   0.000000   0.000000   0.000000
    31  H    0.000000   0.000000   0.000000   0.000000   0.000000   0.000000
    32  H    0.000000   0.000000   0.000000   0.000000   0.000000   0.000000
    33  H    0.000000   0.000000   0.000000   0.000000   0.000000   0.000000
    34  H    0.000000   0.000000   0.000000   0.000000   0.000000   0.000000
    35  H    0.000000   0.000000   0.000000   0.000000   0.000000   0.000000
    36  H    0.000000   0.000000   0.000000   0.000000   0.000000   0.000000
    37  H    0.000000   0.000000   0.000000   0.000000   0.000000   0.000000
    38  H    0.000000   0.000000   0.000000   0.000000   0.000000   0.000000
    39  H    0.000000   0.000000   0.000000   0.000000   0.000000   0.000000
    40  H    0.000000   0.000000   0.000000   0.000000   0.000000   0.000000
    41  H    0.000000   0.000000   0.000000   0.000000   0.000000   0.000000
    42  H    0.000000   0.000000   0.000000   0.000000   0.000000   0.000000
    43  H    0.000000   0.000000   0.000000   0.000000   0.000000   0.000000
    44  N    0.000000   0.000000   0.000000   0.000000   0.000000   0.000000
               7          8          9         10         11         12
     1  C    0.000000   0.000000   0.000000   0.000000   0.000000   0.000000
     2  C    0.000000   0.000000   0.000000   0.000000   0.000000   0.000000
     3  C    0.000000   0.000000   0.000000   0.000000   0.000000   0.000000
     4  C    0.000000   0.000000   0.000000   0.000000   0.000000   0.000000
     5  C    0.000000   0.000000   0.000000   0.000000   0.000000   0.000000
     6  C    0.000000   0.000000   0.000000   0.000000   0.000000   0.000000
     7  C    4.131493   0.000000   0.000000   0.000000   0.000000   0.000000
     8  C    0.000000   4.167557   0.000000   0.000000   0.000000   0.000000
     9  C    0.000000   0.000000   4.124892   0.000000   0.000000   0.000000
    10  C    0.000000   0.000000   0.000000   4.018598   0.000000   0.000000
    11  C    0.000000   0.000000   0.000000   0.000000   3.991891   0.000000
    12  C    0.000000   0.000000   0.000000   0.000000   0.000000   4.135649
    13  C    0.000000   0.000000   0.000000   0.000000   0.000000   0.000000
    14  C    0.000000   0.000000   0.000000   0.000000   0.000000   0.000000
    15  C    0.000000   0.000000   0.000000   0.000000   0.000000   0.000000
    16  C    0.000000   0.000000   0.000000   0.000000   0.000000   0.000000
    17  C    0.000000   0.000000   0.000000   0.000000   0.000000   0.000000
    18  C    0.000000   0.000000   0.000000   0.000000   0.000000   0.000000
    19  C    0.000000   0.000000   0.000000   0.000000   0.000000   0.000000
    20  C    0.000000   0.000000   0.000000   0.000000   0.000000   0.000000
    21  C    0.000000   0.000000   0.000000   0.000000   0.000000   0.000000
    22  C    0.000000   0.000000   0.000000   0.000000   0.000000   0.000000
    23  C    0.000000   0.000000   0.000000   0.000000   0.000000   0.000000
    24  C    0.000000   0.000000   0.000000   0.000000   0.000000   0.000000
    25  C    0.000000   0.000000   0.000000   0.000000   0.000000   0.000000
    26  C    0.000000   0.000000   0.000000   0.000000   0.000000   0.000000
    27  C    0.000000   0.000000   0.000000   0.000000   0.000000   0.000000
    28  C    0.000000   0.000000   0.000000   0.000000   0.000000   0.000000
    29  C    0.000000   0.000000   0.000000   0.000000   0.000000   0.000000
    30  H    0.000000   0.000000   0.000000   0.000000   0.000000   0.000000
    31  H    0.000000   0.000000   0.000000   0.000000   0.000000   0.000000
    32  H    0.000000   0.000000   0.000000   0.000000   0.000000   0.000000
    33  H    0.000000   0.000000   0.000000   0.000000   0.000000   0.000000
    34  H    0.000000   0.000000   0.000000   0.000000   0.000000   0.000000
    35  H    0.000000   0.000000   0.000000   0.000000   0.000000   0.000000
    36  H    0.000000   0.000000   0.000000   0.000000   0.000000   0.000000
    37  H    0.000000   0.000000   0.000000   0.000000   0.000000   0.000000
    38  H    0.000000   0.000000   0.000000   0.000000   0.000000   0.000000
    39  H    0.000000   0.000000   0.000000   0.000000   0.000000   0.000000
    40  H    0.000000   0.000000   0.000000   0.000000   0.000000   0.000000
    41  H    0.000000   0.000000   0.000000   0.000000   0.000000   0.000000
    42  H    0.000000   0.000000   0.000000   0.000000   0.000000   0.000000
    43  H    0.000000   0.000000   0.000000   0.000000   0.000000   0.000000
    44  N    0.000000   0.000000   0.000000   0.000000   0.000000   0.000000
              13         14         15         16         17         18
     1  C    0.000000   0.000000   0.000000   0.000000   0.000000   0.000000
     2  C    0.000000   0.000000   0.000000   0.000000   0.000000   0.000000
     3  C    0.000000   0.000000   0.000000   0.000000   0.000000   0.000000
     4  C    0.000000   0.000000   0.000000   0.000000   0.000000   0.000000
     5  C    0.000000   0.000000   0.000000   0.000000   0.000000   0.000000
     6  C    0.000000   0.000000   0.000000   0.000000   0.000000   0.000000
     7  C    0.000000   0.000000   0.000000   0.000000   0.000000   0.000000
     8  C    0.000000   0.000000   0.000000   0.000000   0.000000   0.000000
     9  C    0.000000   0.000000   0.000000   0.000000   0.000000   0.000000
    10  C    0.000000   0.000000   0.000000   0.000000   0.000000   0.000000
    11  C    0.000000   0.000000   0.000000   0.000000   0.000000   0.000000
    12  C    0.000000   0.000000   0.000000   0.000000   0.000000   0.000000
    13  C    3.887456   0.000000   0.000000   0.000000   0.000000   0.000000
    14  C    0.000000   3.882743   0.000000   0.000000   0.000000   0.000000
    15  C    0.000000   0.000000   4.123634   0.000000   0.000000   0.000000
    16  C    0.000000   0.000000   0.000000   4.033992   0.000000   0.000000
    17  C    0.000000   0.000000   0.000000   0.000000   3.918656   0.000000
    18  C    0.000000   0.000000   0.000000   0.000000   0.000000   4.160594
    19  C    0.000000   0.000000   0.000000   0.000000   0.000000   0.000000
    20  C    0.000000   0.000000   0.000000   0.000000   0.000000   0.000000
    21  C    0.000000   0.000000   0.000000   0.000000   0.000000   0.000000
    22  C    0.000000   0.000000   0.000000   0.000000   0.000000   0.000000
    23  C    0.000000   0.000000   0.000000   0.000000   0.000000   0.000000
    24  C    0.000000   0.000000   0.000000   0.000000   0.000000   0.000000
    25  C    0.000000   0.000000   0.000000   0.000000   0.000000   0.000000
    26  C    0.000000   0.000000   0.000000   0.000000   0.000000   0.000000
    27  C    0.000000   0.000000   0.000000   0.000000   0.000000   0.000000
    28  C    0.000000   0.000000   0.000000   0.000000   0.000000   0.000000
    29  C    0.000000   0.000000   0.000000   0.000000   0.000000   0.000000
    30  H    0.000000   0.000000   0.000000   0.000000   0.000000   0.000000
    31  H    0.000000   0.000000   0.000000   0.000000   0.000000   0.000000
    32  H    0.000000   0.000000   0.000000   0.000000   0.000000   0.000000
    33  H    0.000000   0.000000   0.000000   0.000000   0.000000   0.000000
    34  H    0.000000   0.000000   0.000000   0.000000   0.000000   0.000000
    35  H    0.000000   0.000000   0.000000   0.000000   0.000000   0.000000
    36  H    0.000000   0.000000   0.000000   0.000000   0.000000   0.000000
[...]
 .00000050,-0.00000317,-0.00000023,0.00000014,-0.00000330,-0.00000051,-
 0.00000004,0.00000515,-0.00000173,0.00000128,0.00014775,0.00001567,-0.
 00001367,-0.00224644,0.00040126,-0.00212272,0.02288756,-0.00009276,0.0
 0027561,-0.00000283,-0.00096177,0.00097438,-0.00000457,-0.00691915,0.0
 2857620,-0.00038887,-0.00747847,-0.02894094,0.00009630,0.00003545,0.00
 000220,0.00000070,-0.03297842,-0.00187455,0.00006969,-0.00118365,-0.00
 091788,0.00000793,-0.00027604,0.00019438,-0.00000457,-0.00005057,0.000
 04655,-0.00000075,0.00040992,-0.00024876,0.00000660,0.00004195,-0.0001
 1309,0.00000128,-0.00003081,-0.00003320,-0.00000007,0.00008102,0.00033
 012,0.00000207,-0.00005735,0.00015927,-0.00000329,0.00004793,-0.000001
 04,0.00000078,0.00007553,0.00010891,-0.00000151,0.00012669,0.00006450,
 0.00000074,0.00007492,0.00004936,0.00000055,0.00008565,-0.00042293,0.0
 0000659,0.00002910,0.00004200,-0.00000005,-0.00003632,0.00000958,-0.00
 000041,-0.00255825,0.00089350,-0.00008056,-0.00011604,-0.00010300,-0.0
 0000049,-0.00240116,-0.00095206,-0.00006433,-0.00006489,-0.00005776,0.
 00000603,0.00002458,0.00000199,-0.00000035,0.00004617,0.00001982,0.000
 00080,-0.00012170,-0.00008570,0.00000012,0.00000550,-0.00001612,-0.000
 00007,-0.00001182,-0.00000026,-0.00000054,0.00000958,-0.00002439,0.000
 00016,0.00000379,0.00000035,-0.00000002,0.00000100,0.00000192,0.000000
 01,0.00000115,0.00000367,-0.00000005,-0.00000100,0.00000348,-0.0000001
 0,-0.00000118,0.00000046,-0.00000007,-0.00000126,0.00000167,-0.0000001
 0,0.00000269,0.00001299,-0.00000023,-0.00001973,-0.00000933,-0.0000015
 6,-0.00090224,-0.00009039,-0.00001306,0.05631645,-0.00035183,-0.000345
 52,-0.00000150,0.00068273,-0.00010872,-0.00000246,0.01512394,-0.025997
 96,0.00044210,-0.01587045,-0.02553349,0.00009286,0.00022623,-0.0001831
 2,0.00000392,-0.00144357,-0.22031335,0.00156401,-0.00053759,-0.0001676
 9,-0.00001507,-0.00002445,0.00020051,-0.00000224,-0.00013951,0.0001296
 8,-0.00000292,0.00021326,0.00032409,-0.00000015,-0.00002290,-0.0003949
 7,0.00000330,-0.00001730,-0.00009020,0.00000058,-0.00054417,-0.0002082
 4,-0.00000744,0.00031289,-0.00026991,0.00000686,0.00001751,0.00007367,
 -0.00000058,-0.00015732,0.00006270,-0.00000127,0.00000487,0.00041190,-
 0.00000309,-0.00035395,0.00006950,-0.00000472,-0.00002730,-0.00010181,
 -0.00000101,-0.00030223,-0.00002708,-0.00000312,-0.00006805,0.00004696
 ,-0.00000121,0.00154877,-0.00049985,0.00005631,0.00011045,0.00026530,-
 0.00000098,-0.00115277,-0.00035760,0.00002491,0.00038395,0.00005540,-0
 .00000107,0.00026009,-0.00026748,0.00000571,0.00015225,-0.00002663,0.0
 0000162,0.00013867,-0.00007969,0.00000159,0.00004325,-0.00001166,0.000
 00078,-0.00006493,-0.00003354,-0.00000014,-0.00004564,-0.00003252,-0.0
 0000010,-0.00002862,-0.00001781,-0.00000012,-0.00000331,-0.00004083,0.
 00000029,-0.00000219,-0.00003839,0.00000032,0.00000539,-0.00005301,0.0
 0000055,0.00003783,-0.00001937,0.00000065,0.00005766,0.00002394,0.0000
 0050,0.00007216,0.00005286,0.00000049,0.00004011,0.00010132,0.00000068
 ,0.00009799,0.00042342,0.00000029,0.00209093,0.27242200,0.00000293,0.0
 0000491,-0.00005500,-0.00000324,0.00000063,-0.00128169,-0.00027057,0.0
 0058885,0.00619967,-0.00001522,-0.00005222,0.00607663,-0.00000119,0.00
 000159,-0.00002582,0.00006339,0.00156296,-0.03781460,0.00000484,-0.000
 01974,-0.00122490,-0.00000231,-0.00000019,-0.00002471,0.00000099,-0.00
 000092,-0.00001949,0.00000219,-0.00000468,0.00002189,0.00000041,0.0000
 0256,0.00001414,-0.00000006,0.00000053,-0.00000043,0.00000936,0.000002
 21,-0.00035748,-0.00000478,0.00000499,0.00011362,0.00000042,-0.0000008
 0,-0.00001906,-0.00000011,0.00000157,0.00012887,0.00000110,-0.00000262
 ,0.00001636,0.00000365,-0.00000015,-0.00000985,0.00000335,-0.00000544,
 -0.00018260,0.00000275,0.00000071,0.00000214,0.00000018,-0.00000035,-0
 .00000738,-0.00008489,0.00004948,0.00404899,-0.00000205,-0.00000327,0.
 00000321,-0.00006313,0.00002614,0.00405983,0.00000233,-0.00000571,-0.0
 0056707,-0.00000235,0.00000273,0.00005614,-0.00000033,-0.00000001,-0.0
 0004040,-0.00000174,-0.00000088,-0.00006963,-0.00000057,0.00000008,0.0
 0002468,0.,0.00000059,0.00003583,0.00000032,0.00000011,0.00001427,0.00
 000022,0.00000020,0.00000577,0.00000005,0.00000034,-0.00000139,0.,0.00
 000040,0.00000287,-0.00000012,0.00000053,0.00000534,-0.00000039,0.0000
 0021,0.00000443,-0.00000057,-0.00000013,0.00000623,-0.00000073,-0.0000
 0016,0.00001403,-0.00000205,0.00000014,0.00012855,-0.00001466,-0.00000
 179,0.00032852,0.00038458,-0.00215151,0.02009027,0.00000756,0.00004379
 ,-0.00000020,0.00004826,-0.00003956,0.00000088,0.00005603,-0.00008591,
 0.00000144,-0.00745122,0.02856376,-0.00039764,-0.00675611,-0.02880553,
 0.00009377,-0.00121149,0.00093560,-0.00001156,-0.03343173,0.00152810,0
 .00004242,-0.00000747,-0.00007404,0.00000076,0.00002936,-0.00003432,0.
 00000071,-0.00004945,-0.00005566,-0.00000023,-0.00000861,0.00008189,-0
 .00000089,0.00001638,0.00002327,0.,0.00010229,0.00000102,0.00000100,-0
 .00005940,0.00002047,-0.00000084,-0.00002639,-0.00001016,-0.00000016,0
 .00005615,0.00051327,-0.00000124,0.00001330,-0.00001061,0.00000002,0.0
 0000011,-0.00000521,0.00000012,-0.00006654,0.00000879,-0.00000149,0.00
 001849,-0.00000614,0.00000005,-0.00000418,-0.00000517,0.00000009,-0.00
 001635,0.00005219,-0.00000074,0.00001335,-0.00001255,0.00000024,-0.002
 38172,0.00097502,-0.00007299,-0.00013390,0.00003119,-0.00000131,0.0000
 0125,0.00003210,-0.00000018,-0.00244938,-0.00118722,-0.00007340,-0.000
 00549,0.00001544,0.00000589,-0.00000528,0.00000265,-0.00000047,0.00006
 739,-0.00042835,0.00000883,0.00000202,0.00000866,-0.00000046,0.0000034
 4,0.00000297,-0.00000006,0.00000034,0.00000215,-0.00000002,0.00000133,
 0.00000747,-0.00000012,-0.00000016,0.00000653,-0.00000009,-0.00000475,
 0.00000315,-0.00000010,-0.00000477,-0.00000064,-0.00000009,-0.00000298
 ,-0.00000064,-0.00000010,-0.00000761,-0.00000369,-0.00000012,-0.000025
 91,0.00002583,-0.00000086,-0.00089039,-0.00007569,-0.00001275,0.054854
 14,-0.00015859,0.00012524,-0.00000296,0.00021049,-0.00005393,0.0000028
 6,-0.00035339,-0.00003801,-0.00000360,0.01515915,-0.02448646,0.0004318
 5,-0.01480601,-0.02724690,0.00011120,0.00059282,-0.00033907,0.00000198
 ,0.00112981,-0.22048864,0.00152002,-0.00027070,0.00025823,-0.00000548,
 -0.00010105,0.00010026,-0.00000209,0.00039246,-0.00007790,0.00000527,0
 .00004501,-0.00023341,0.00000261,-0.00003686,-0.00008208,0.00000029,-0
 .00021368,-0.00016776,-0.00000093,0.00002260,-0.00001960,0.00000041,0.
 00004189,0.00004765,0.00000004,0.00005717,-0.00013157,-0.00000008,0.00
 009398,0.00024763,-0.00000079,-0.00017747,0.00011135,-0.00000302,0.000
 11595,0.00043677,-0.00000202,-0.00004728,0.00014107,-0.00000155,-0.000
 13185,0.00005366,-0.00000198,-0.00009058,-0.00009747,-0.00000004,-0.00
 001347,0.00005392,-0.00000060,0.00103940,-0.00040333,0.00004234,0.0000
 9679,-0.00006914,0.00000135,0.00022994,-0.00014549,0.00000379,-0.00117
 191,-0.00027637,0.00002970,0.00010239,-0.00015222,-0.00000197,0.000059
 06,-0.00013695,0.00000207,-0.00012099,-0.00024889,-0.00000231,-0.00006
 454,-0.00004763,0.,-0.00002357,-0.00002347,0.,-0.00000577,-0.00004015,
 0.00000028,0.00000223,-0.00003407,0.00000036,0.00000463,-0.00003684,0.
 00000038,0.00002802,-0.00001432,0.00000046,0.00003942,0.00001618,0.000
 00033,0.00005252,0.00003299,0.00000037,0.00002801,0.00003550,0.0000000
 7,-0.00002156,0.00010419,-0.00000088,0.00008712,0.00046139,-0.00000032
 ,-0.00110197,0.27248853,0.00000148,-0.00000056,-0.00000924,-0.00000113
 ,0.00000004,-0.00000011,0.00000331,-0.00000012,-0.00001234,-0.00028999
 ,0.00058554,0.00630503,-0.00002250,-0.00004752,0.00619524,-0.00000673,
 0.00000660,-0.00088060,0.00004765,0.00152083,-0.03830532,0.00000235,-0
 .00000314,-0.00001874,0.00000124,-0.00000127,-0.00000634,-0.00000397,0
 .,0.00001316,-0.00000053,0.00000295,0.00000699,0.00000047,0.00000094,0
 .00000004,0.00000285,0.00000149,0.00001237,-0.00000085,0.00000040,-0.0
 0000118,-0.00000057,-0.00000056,-0.00000513,0.00000301,0.00000483,-0.0
 0022493,-0.00000071,-0.00000198,0.00001665,0.00000159,-0.00000101,-0.0
 0000628,-0.00000296,-0.00000200,0.00005546,0.00000004,-0.00000100,0.00
 001824,0.00000112,-0.00000058,-0.00000861,0.00000044,0.00000103,0.0000
 0701,0.00000021,-0.00000060,0.00000213,-0.00007402,0.00004263,0.003265
 04,-0.00000188,0.00000088,-0.00003508,-0.00000182,0.00000150,-0.000007
 25,-0.00007222,0.00002964,0.00489418,0.00000544,-0.00000382,-0.0005277
 4,-0.00000088,0.00000139,0.00003362,0.00000603,-0.00000610,-0.00037460
 ,0.00000017,0.00000082,0.00003496,0.00000016,0.00000028,0.00000630,0.0
 0000005,0.00000037,0.00000061,-0.00000008,0.00000041,0.00000623,-0.000
 00007,0.00000040,0.00000236,-0.00000030,0.00000017,0.00000163,-0.00000
 042,-0.00000011,0.00000315,-0.00000055,-0.00000023,0.00000660,-0.00000
 039,-0.00000028,0.00000678,-0.00000044,-0.00000034,0.00002960,-0.00001
 408,-0.00000217,0.00030605,0.00040359,-0.00210621,0.02038061,0.0001044
 1,-0.00009178,0.00000190,-0.00013168,0.00002890,-0.00000171,-0.0000105
 2,-0.00001427,0.00000305,-0.00198958,-0.00148364,-0.00006808,-0.172934
 86,0.07986688,-0.00211991,-0.00031081,0.00027156,-0.00000363,-0.041232
 60,0.00416871,-0.00055935,0.00008794,-0.00018265,0.00000273,0.00008084
 ,-0.00005676,0.00000147,-0.00011239,0.00004495,-0.00000172,-0.00002431
 ,0.00020468,-0.00000210,0.00000661,0.00002395,-0.00000014,0.00002152,0
 .00010742,-0.00000115,-0.00005707,0.00000515,-0.00000066,0.00002108,-0
 .00005108,0.00000071,-0.00010246,0.00006123,0.00000371,-0.00007067,-0.
 00012626,-0.00000017,0.00013147,-0.00005523,0.00000206,0.00001671,-0.0
 0019296,-0.00004945,0.00002022,-0.00004957,0.00000284,0.00005541,-0.00
 004167,0.00000094,0.00007966,-0.00006266,0.00000137,-0.00004372,-0.000
 02671,-0.00000030,0.00026396,-0.00021557,0.00000429,-0.00001876,-0.000
 00231,-0.00000023,-0.00011960,0.00009170,-0.00000216,-0.00264533,0.012
 26453,-0.00019615,0.00003282,-0.00003127,0.00000329,-0.00002703,0.0000
 5024,-0.00000076,0.00086327,-0.00021798,0.00002236,0.00008654,0.000053
 71,-0.00000041,0.00003163,0.00002290,0.00000007,0.00000740,0.00003610,
 -0.00000026,0.00000029,0.00003272,-0.00000031,-0.00000332,0.00003593,-
 0.00000036,-0.00002389,0.00001354,-0.00000041,-0.00003317,-0.00001174,
 -0.00000030,-0.00003822,-0.00002130,-0.00000030,-0.00002838,-0.0000231
 3,-0.00000016,-0.00000419,-0.00002914,0.00000012,-0.00000156,-0.000049
 33,-0.00000073,-0.00032428,-0.00052128,0.00001393,0.21819463,-0.000068
 30,0.00003285,-0.00000101,0.00004332,-0.00000439,0.00000056,-0.0000675
 8,-0.00005025,-0.00000255,-0.00116170,-0.00094473,0.00003793,0.0799416
 8,-0.07927723,0.00120162,-0.00037397,0.00012456,-0.00000714,-0.0099528
 6,0.00689384,-0.00012299,-0.00011589,0.00015377,-0.00000276,-0.0000692
 7,0.00004466,-0.00000122,0.00016857,-0.00003632,0.00000228,0.00002050,
 -0.00017376,0.00000177,-0.00000846,-0.00001531,0.00000004,-0.00008248,
 -0.00008589,0.00000016,0.00006998,0.00002735,0.00000054,-0.00000625,0.
 00003145,-0.00000037,0.00005769,-0.00002868,-0.00000318,0.00004372,0.0
 0008353,0.00000012,-0.00003234,0.00002428,-0.00000064,-0.00045393,-0.0
 0278973,0.00005840,-0.00005913,-0.00008450,-0.00000166,0.00000596,0.00
 000332,0.00000007,-0.00001887,0.00001277,-0.00000027,0.00001283,-0.000
 00332,0.00000019,-0.00019847,0.00003025,-0.00000209,0.00001282,0.00000
 263,0.00000015,0.00002166,-0.00003745,0.00000058,0.02629463,-0.0314921
 6,0.00060845,0.00049936,-0.00031249,0.00000654,0.00003538,-0.00002688,
 0.00000061,0.00019991,-0.00072809,-0.00000004,0.00000609,0.00001041,0.
 00000068,-0.00000999,-0.00000712,0.00000002,-0.00000113,-0.00001672,0.
 00000016,-0.00000117,-0.00001932,0.00000018,0.00000221,-0.00002027,0.0
 0000021,0.00001465,-0.00000821,0.00000025,0.00001955,0.00000779,0.0000
 0017,0.00002113,0.00001100,0.00000018,0.00001797,0.00001792,0.00000008
 ,0.00000256,0.00002692,-0.00000014,0.00000947,0.00009951,0.00000010,-0
 .00089021,0.00047236,-0.00002373,-0.09383217,0.10804465,0.00000165,-0.
 00000125,0.00000493,-0.00000174,0.00000035,-0.00000028,0.00000315,-0.0
 0000190,-0.00027310,-0.00007246,0.00003490,0.00523298,-0.00211470,0.00
 119835,-0.04042047,0.00000184,0.00000002,-0.00020003,-0.00044371,0.000
 03257,0.00562564,0.00000211,-0.00000339,-0.00001314,0.00000151,-0.0000
 0097,-0.00000375,-0.00000266,0.00000090,0.00000472,-0.00000045,0.00000
 370,0.00000412,0.00000011,0.00000032,0.00000002,0.00000024,0.00000236,
 0.00004632,-0.00000119,-0.00000027,-0.00000363,0.00000043,-0.00000087,
 -0.00000370,0.00000414,-0.00000315,-0.00049033,-0.00000155,-0.00000174
 ,0.00003672,0.00000179,-0.00000086,-0.00000769,-0.00004848,0.00006258,
 0.00467666,0.00000293,-0.00000137,-0.00020115,0.00000048,-0.00000046,0
 .00000223,0.00000094,-0.00000107,0.00000085,-0.00000068,-0.00000019,0.
 00000194,0.00000368,-0.00000204,0.00006001,-0.00000036,-0.00000003,0.0
 0000301,-0.00000148,0.00000134,0.00000194,-0.00031413,0.00045486,0.005
 70603,-0.00000116,0.00000036,-0.00023046,-0.00000058,0.00000073,0.0000
 0332,0.00001909,-0.00000487,-0.00099069,0.,0.00000120,0.00008213,0.000
 00035,0.00000038,0.00000773,0.00000006,0.00000057,0.00000312,-0.000000
 03,0.00000056,0.00000361,-0.00000008,0.00000059,0.00000186,-0.00000040
 ,0.00000023,0.00000112,-0.00000056,-0.00000018,0.00000201,-0.00000064,
 -0.00000029,0.00000384,-0.00000051,-0.00000038,0.00000345,-0.00000015,
 -0.00000049,0.00000739,-0.00000119,-0.00000055,0.00009946,0.00001742,-
 0.00001967,-0.00118691,0.00294404,-0.00175081,0.02239715,-0.00746001,0
 .00645651,-0.00018240,0.00896439,-0.00014906,0.00010218,-0.01448741,0.
 00554078,-0.00023967,-0.00338929,-0.00273031,-0.00001532,0.00006305,-0
 .00078200,0.00000778,0.00869038,-0.00066904,0.00010017,0.00091057,-0.0
 0071140,0.00001647,-0.01867019,0.01956802,-0.00037483,0.00250309,-0.01
 466591,0.00011229,0.02633670,-0.04131641,0.00063350,-0.08217980,-0.012
 04229,-0.00086575,0.00522637,0.01278679,-0.00005129,-0.09963088,-0.024
 15834,-0.00043738,-0.20799681,0.07956200,-0.00254138,-0.01309103,-0.00
 127227,-0.00017998,0.00320013,-0.00786493,0.00009895,-0.22130077,-0.07
 141561,-0.00151548,-0.03148635,-0.00126943,-0.00034851,0.00132797,0.00
 196927,-0.00000195,-0.00101084,0.00783230,-0.00010065,-0.00124392,-0.0
 0128108,-0.00003601,-0.00488054,0.02662861,-0.00030322,0.01600271,0.04
 694728,-0.00024128,-0.00559686,0.00343850,-0.00009065,-0.07407067,0.00
 695640,-0.00092447,0.00739321,-0.05410476,0.00052048,-0.00007631,0.000
 50154,-0.00000511,0.00091901,-0.00264046,0.00003055,-0.00018632,-0.003
 21108,0.00002503,0.00018232,0.00010354,0.00000111,-0.00005171,0.000190
 22,-0.00000165,0.00009889,-0.00001970,0.00000542,-0.00007101,0.0001001
 4,0.00000069,-0.00048571,-0.00065936,0.00000012,0.00029677,-0.00033585
 ,0.00000598,0.00071610,-0.00057735,0.00002075,0.00004242,0.00066194,-0
 .00000274,-0.00010215,0.00034976,-0.00000426,-0.00014536,-0.00077488,0
 .00000856,-0.00007271,-0.00008529,0.00000497,-0.00017604,-0.00039336,0
 .00000289,0.00005421,-0.00017485,0.00000198,0.00009896,-0.00007667,0.0
 0000166,0.70310355,0.00067391,-0.00199009,0.00005387,-0.00569789,-0.00
 109365,-0.00005308,0.00436855,0.00309258,0.00004406,-0.00032310,0.0007
 0930,-0.00000949,0.00009355,-0.00020395,0.00000291,-0.00020559,0.00036
 713,-0.00000423,0.00033334,0.00002412,0.00000356,0.01529207,-0.0322664
 7,0.00044876,0.00774026,-0.01961871,0.00029266,-0.06316138,-0.04669262
 ,-0.00029294,-0.00278502,0.04558864,-0.00040611,0.01230850,0.01895174,
 -0.00001921,0.00565278,-0.27605168,0.00212317,0.06586338,-0.11535476,0
 .00135377,-0.02528716,-0.00445783,-0.00022574,-0.00198479,-0.00776465,
 0.00004368,-0.08867322,-0.13778412,-0.00021071,-0.00570303,0.00064211,
 -0.00007405,-0.00010878,-0.00026432,0.00000103,0.00251066,0.00221753,0
 .00002737,-0.00292476,-0.00439659,0.00002956,0.03910843,-0.04848426,0.
 00087874,0.04781497,-0.06438203,0.00111781,0.00067051,-0.00107943,0.00
 001614,-0.00533560,0.01842642,-0.00020080,-0.02600052,-0.04653442,0.00
 010678,0.00004410,0.00033521,-0.00000238,0.00127800,-0.00032533,0.0000
 1873,0.00165596,-0.00278032,0.00004213,0.00002315,-0.00000662,0.000000
 33,0.00015570,0.00002945,0.00000106,0.00008390,0.00001008,-0.00000216,
 -0.00065419,-0.00013789,-0.00000808,0.00005536,0.00017756,-0.00000052,
 0.00071653,-0.00010452,0.00000856,-0.00024579,0.00004235,-0.00000832,-
 0.00030950,0.00035436,-0.00000760,0.00018349,-0.00041203,0.00000565,0.
 00026273,-0.00020015,0.00000235,0.00013665,0.00075950,-0.00000889,-0.0
 0009350,0.00002237,-0.00000217,-0.00003830,-0.00008447,0.00000029,0.00
 002581,-0.00000733,0.00000032,0.02307118,0.72131090,-0.00013402,0.0001
 2452,0.00373206,0.00015083,0.00000735,0.00000261,-0.00023610,0.0000660
 9,0.00270944,-0.00004052,-0.00003776,0.00000997,-0.00000093,-0.0000090
 7,-0.00000205,0.00010426,-0.00000899,0.00021711,0.00001020,-0.00000888
 ,-0.00000785,-0.00035329,0.00049674,-0.00076453,-0.00008133,0.00003503
 ,0.00379423,0.00084907,-0.00004966,0.00272202,-0.00093948,-0.00049357,
 0.00256961,-0.00005050,-0.00001816,-0.00001090,-0.00072039,0.00174495,
 -0.04315157,-0.00245009,0.00152010,-0.04535237,0.00003449,0.00005074,0
 .00341219,0.00005877,-0.00003366,0.00000902,-0.00132758,0.00000538,-0.
 04031410,-0.00030635,-0.00001169,-0.00032248,0.00001870,0.00002489,-0.
 00001069,-0.00005534,0.00009319,0.00221204,-0.00002939,0.00004945,0.00
 296906,-0.00040571,0.00072803,0.00153421,-0.00026784,0.00109735,0.0022
 2433,-0.00007419,0.00004916,-0.00006000,-0.00083076,-0.00005039,0.0017
 2626,0.00029365,-0.00021898,0.00198818,-0.00000213,0.00000454,-0.00000
 739,-0.00000107,-0.00002603,0.00019717,-0.00001301,-0.00001688,0.00001
 074,0.00000192,0.00000133,0.00000554,-0.00000142,0.00000156,-0.0000433
 8,0.00000431,-0.00000362,-0.00037352,0.00000749,0.00000027,-0.00022591
 ,-0.00000578,-0.00000890,-0.00001264,-0.00000321,-0.00000200,0.0000159
 5,0.00001756,-0.00001228,-0.00059440,0.00000415,0.00000298,-0.00016697
 ,-0.00000362,0.00000694,0.00000664,-0.00000022,-0.00001017,-0.00031689
 ,0.00000328,-0.00001118,-0.00047010,-0.00000003,-0.00000576,-0.0001066
 4,0.00000098,-0.00000136,0.00000029,0.00000092,-0.00000082,0.00000140,
 0.00674867,-0.00508499,0.10024727||0.00007255,-0.00005732,0.00000676,-
 0.00006570,0.00004817,0.00003972,-0.00002861,0.00001091,-0.00000106,0.
 00000890,0.00003755,-0.00001151,-0.00002490,-0.00000376,0.00004015,-0.
 00002160,0.00001651,-0.00003792,-0.00000215,-0.00005863,0.00002656,-0.
 00000874,0.00003317,-0.00000522,0.00005793,0.00002452,-0.00000005,0.00
 002480,0.00002928,-0.00001308,-0.00002782,0.00002475,0.00002096,0.0000
 3953,-0.00002993,-0.00004886,-0.00000605,-0.00000480,0.00002472,0.0000
 1498,-0.00003708,-0.00001282,-0.00001391,-0.00002270,0.00003401,0.0000
 0549,-0.00003799,-0.00001017,0.00000817,-0.00000829,0.00004968,-0.0000
 3594,-0.00000616,0.00000547,0.00000636,-0.00001915,0.00000274,0.000001
 24,-0.00001276,0.00002556,-0.00001559,0.00001879,0.00003586,-0.0000189
 5,0.00001403,0.00002276,0.00000073,0.00002279,-0.00001857,-0.00003306,
 -0.00001379,-0.00001969,-0.00002974,0.00001252,-0.00002639,-0.00002565
 ,-0.00001316,-0.00000503,0.00004640,0.00000474,0.00001532,0.00001797,0
 .00001511,-0.00002790,0.00002642,0.00001000,-0.00000458,-0.00003160,0.
 00000203,-0.00000972,-0.00000811,0.00000028,0.00000520,-0.00001064,-0.
 00001353,-0.00000711,-0.00000744,-0.00000743,-0.00001976,-0.00000570,-
 0.00000818,-0.00000157,0.00000277,-0.00003852,-0.00000081,0.00003611,-
 0.00002293,0.00001366,0.00002286,0.00000706,0.00000813,0.00002173,0.00
 000491,0.00000080,0.00003238,0.00000658,-0.00000815,-0.00000635,0.0000
 3040,-0.00001844,0.00000194,0.00000341,0.00001174,0.00000030,0.0000282
 7,-0.00001220,0.00001854,0.00000732,-0.00002492,-0.00003984,0.00000302
 ,-0.00004429|||@


 NATURE REVEALS EVERY SECRET ONCE.
                    - RALPH WALDO EMERSON
 Job cpu time:       0 days  0 hours  0 minutes 17.0 seconds.
 File lengths (MBytes):  RWF=    701 Int=      0 D2E=      0 Chk=      5 Scr=      1
 Normal termination of Gaussian 09 at Thu Jun 19 11:39:10 2025.
