 Entering Link 1 = C:\Gaussian\G09W\l1.exe PID=      4828.
  
 Copyright (c) 1988,1990,1992,1993,1995,1998,2003,2009,2013,
            Gaussian, Inc.  All Rights Reserved.
  
 This is part of the Gaussian(R) 09 program.  It is based on
 the Gaussian(R) 03 system (copyright 2003, Gaussian, Inc.),
 the Gaussian(R) 98 system (copyright 1998, Gaussian, Inc.),
 the Gaussian(R) 94 system (copyright 1995, Gaussian, Inc.),
 the Gaussian 92(TM) system (copyright 1992, Gaussian, Inc.),
 the Gaussian 90(TM) system (copyright 1990, Gaussian, Inc.),
 the Gaussian 88(TM) system (copyright 1988, Gaussian, Inc.),
 the Gaussian 86(TM) system (copyright 1986, Carnegie Mellon
 University), and the Gaussian 82(TM) system (copyright 1983,
 Carnegie Mellon University). Gaussian is a federally registered
 trademark of Gaussian, Inc.
  
 This software contains proprietary and confidential information,
 including trade secrets, belonging to Gaussian, Inc.
  
 This software is provided under written license and may be
 used, copied, transmitted, or stored only in accord with that
 written license.
  
 The following legend is applicable only to US Government
 contracts under FAR:
  
                    RESTRICTED RIGHTS LEGEND
  
 Use, reproduction and disclosure by the US Government is
 subject to restrictions as set forth in subparagraphs (a)
 and (c) of the Commercial Computer Software - Restricted
 Rights clause in FAR 52.227-19.
  
 Gaussian, Inc.
 340 Quinnipiac St., Bldg. 40, Wallingford CT 06492
  
  
 ---------------------------------------------------------------
 Warning -- This program may not be used in any manner that
 competes with the business of Gaussian, Inc. or will provide
 assistance to any competitor of Gaussian, Inc.  The licensee
 of this program is prohibited from giving any competitor of
 Gaussian, Inc. access to this program.  By using this program,
 the user acknowledges that Gaussian, Inc. is engaged in the
 business of creating and licensing software in the field of
 computational chemistry and represents and warrants to the
 licensee that it is not a competitor of Gaussian, Inc. and that
 it will not use this program in any manner prohibited above.
 ---------------------------------------------------------------
  

 Cite this work as:
 Gaussian 09, Revision D.01,
 M. J. Frisch, G. W. Trucks, H. B. Schlegel, G. E. Scuseria, 
 M. A. Robb, J. R. Cheeseman, G. Scalmani, V. Barone, B. Mennucci, 
 G. A. Petersson, H. Nakatsuji, M. Caricato, X. Li, H. P. Hratchian, 
 A. F. Izmaylov, J. Bloino, G. Zheng, J. L. Sonnenberg, M. Hada, 
 M. Ehara, K. Toyota, R. Fukuda, J. Hasegawa, M. Ishida, T. Nakajima, 
 Y. Honda, O. Kitao, H. Nakai, T. Vreven, J. A. Montgomery, Jr., 
 J. E. Peralta, F. Ogliaro, M. Bearpark, J. J. Heyd, E. Brothers, 
 K. N. Kudin, V. N. Staroverov, T. Keith, R. Kobayashi, J. Normand, 
 K. Raghavachari, A. Rendell, J. C. Burant, S. S. Iyengar, J. Tomasi, 
 M. Cossi, N. Rega, J. M. Millam, M. Klene, J. E. Knox, J. B. Cross, 
 V. Bakken, C. Adamo, J. Jaramillo, R. Gomperts, R. E. Stratmann, 
 O. Yazyev, A. J. Austin, R. Cammi, C. Pomelli, J. W. Ochterski, 
 R. L. Martin, K. Morokuma, V. G. Zakrzewski, G. A. Voth, 
 P. Salvador, J. J. Dannenberg, S. Dapprich, A. D. Daniels, 
 O. Farkas, J. B. Foresman, J. V. Ortiz, J. Cioslowski, 
 and D. J. Fox, Gaussian, Inc., Wallingford CT, 2013.
 
 ******************************************
 Gaussian 09:  IA32W-G09RevD.01 24-Apr-2013
                15-Mar-2026 
 ******************************************
 %chk=C:\Users\User\Desktop\IMRG\ECE+ML\N_Gr_NS_NO2.chk
 ---------------------------------------
 # opt freq pm6 scf=qc geom=connectivity
 ---------------------------------------
 1/14=-1,18=20,19=15,26=1,38=1,57=2/1,3;
 2/9=110,12=2,17=6,18=5,40=1/2;
 3/5=2,16=1,25=1,41=3900000,71=1/1,2,3;
 4/35=1/1;
 5/5=2,8=3,35=1,38=5/8;
 6/7=2,8=2,9=2,10=2,28=1/1;
 7//1,2,3,16;
 1/14=-1,18=20,19=15,26=1/3(2);
 2/9=110/2;
 99//99;
 2/9=110/2;
 3/5=2,16=1,25=1,41=3900000,71=1,135=20/1,2,3;
 4/5=5,16=3,35=1/1;
 5/5=2,8=3,35=1,38=5/8;
 7//1,2,3,16;
 1/14=-1,18=20,19=15,26=1/3(-5);
 2/9=110/2;
 6/7=2,8=2,9=2,10=2,19=2,28=1/1;
 99/9=1/99;
 -----------
 N_Gr_NS_NO2
 -----------
 Symbolic Z-matrix:
 Charge =  0 Multiplicity = 1
 C                     0.17695   1.02371   2.99497 
 C                     1.43495   0.29741   2.57781 
 C                     2.69295   1.02371   2.99497 
 C                     5.20895   1.02371   2.99497 
 C                     7.72495   1.02371   2.99497 
 C                     3.95095   0.29741   2.57781 
 C                     6.46695   0.29741   2.57781 
 C                    -1.08105   3.20263   2.99497 
 C                    -2.33905   5.38155   2.99497 
 C                     0.17695   2.47633   2.57781 
 C                    -1.08105   4.65525   2.57781 
 C                    -2.33905   6.83417   2.57781 
 C                     1.43495   3.20263   2.99497 
 C                     0.17695   5.38155   2.99497 
 C                    -1.08105   7.56047   2.99497 
 C                     3.95095   3.20263   2.99497 
 C                     2.69295   5.38155   2.99497 
 C                     1.43495   7.56047   2.99497 
 C                     6.46695   3.20263   2.99497 
 C                     5.20895   5.38155   2.99497 
 C                     3.95095   7.56047   2.99497 
 C                     2.69295   2.47633   2.57781 
 C                     0.17695   6.83417   2.57781 
 C                     5.20895   2.47633   2.57781 
 C                     3.95095   4.65525   2.57781 
 C                     2.69295   6.83417   2.57781 
 C                     7.72495   2.47633   2.57781 
 C                     6.46695   4.65525   2.57781 
 C                     5.20895   6.83417   2.57781 
 H                     8.6156    2.99054   2.87315 
 H                     7.3576    5.16946   2.87315 
 H                     6.0996    7.34838   2.87315 
 H                     3.95095   8.58891   2.69962 
 H                     1.43495   8.58891   2.69962 
 H                    -1.08105   8.58891   2.69962 
 H                    -3.2297    7.34838   2.87315 
 H                    -3.2297    4.86734   2.69962 
 H                    -1.9717    2.68842   2.69962 
 H                    -0.7137    0.5095    2.69962 
 H                     1.43495  -0.73103   2.87315 
 H                     3.95095  -0.73103   2.87315 
 H                     6.49522  -0.60455   3.15277 
 H                     8.37341   0.35071   3.51599 
 N                     1.43495   4.65525   2.57781 
 N                     2.18862   3.97068   5.69051 
 O                     1.01126   4.64278   5.3214 
 O                     3.03671   3.322     4.86 
 
 Add virtual bond connecting atoms O47        and C16        Dist= 3.93D+00.

 GradGradGradGradGradGradGradGradGradGradGradGradGradGradGradGradGradGrad
 Berny optimization.
 Initialization pass.
                           ----------------------------
                           !    Initial Parameters    !
                           ! (Angstroms and Degrees)  !
 --------------------------                            --------------------------
 ! Name  Definition              Value          Derivative Info.                !
 --------------------------------------------------------------------------------
 ! R1    R(1,2)                  1.5113         estimate D2E/DX2                !
 ! R2    R(1,10)                 1.5113         estimate D2E/DX2                !
 ! R3    R(1,39)                 1.07           estimate D2E/DX2                !
 ! R4    R(2,3)                  1.5113         estimate D2E/DX2                !
 ! R5    R(2,40)                 1.07           estimate D2E/DX2                !
 ! R6    R(3,6)                  1.5113         estimate D2E/DX2                !
 ! R7    R(3,22)                 1.5113         estimate D2E/DX2                !
 ! R8    R(4,6)                  1.5113         estimate D2E/DX2                !
 ! R9    R(4,7)                  1.5113         estimate D2E/DX2                !
 ! R10   R(4,24)                 1.5113         estimate D2E/DX2                !
 ! R11   R(5,7)                  1.5113         estimate D2E/DX2                !
 ! R12   R(5,27)                 1.5113         estimate D2E/DX2                !
 ! R13   R(5,43)                 1.07           estimate D2E/DX2                !
 ! R14   R(6,41)                 1.07           estimate D2E/DX2                !
 ! R15   R(7,42)                 1.07           estimate D2E/DX2                !
 ! R16   R(8,10)                 1.5113         estimate D2E/DX2                !
 ! R17   R(8,11)                 1.5113         estimate D2E/DX2                !
 ! R18   R(8,38)                 1.07           estimate D2E/DX2                !
 ! R19   R(9,11)                 1.5113         estimate D2E/DX2                !
 ! R20   R(9,12)                 1.5113         estimate D2E/DX2                !
 ! R21   R(9,37)                 1.07           estimate D2E/DX2                !
 ! R22   R(10,13)                1.5113         estimate D2E/DX2                !
 ! R23   R(11,14)                1.5113         estimate D2E/DX2                !
 ! R24   R(12,15)                1.5113         estimate D2E/DX2                !
 ! R25   R(12,36)                1.07           estimate D2E/DX2                !
 ! R26   R(13,22)                1.5113         estimate D2E/DX2                !
 ! R27   R(13,44)                1.5113         estimate D2E/DX2                !
 ! R28   R(14,23)                1.5113         estimate D2E/DX2                !
 ! R29   R(14,44)                1.5113         estimate D2E/DX2                !
 ! R30   R(15,23)                1.5113         estimate D2E/DX2                !
 ! R31   R(15,35)                1.07           estimate D2E/DX2                !
 ! R32   R(16,22)                1.5113         estimate D2E/DX2                !
 ! R33   R(16,24)                1.5113         estimate D2E/DX2                !
 ! R34   R(16,25)                1.5113         estimate D2E/DX2                !
 ! R35   R(16,47)                2.0805         estimate D2E/DX2                !
 ! R36   R(17,25)                1.5113         estimate D2E/DX2                !
 ! R37   R(17,26)                1.5113         estimate D2E/DX2                !
 ! R38   R(17,44)                1.5113         estimate D2E/DX2                !
 ! R39   R(18,23)                1.5113         estimate D2E/DX2                !
 ! R40   R(18,26)                1.5113         estimate D2E/DX2                !
 ! R41   R(18,34)                1.07           estimate D2E/DX2                !
 ! R42   R(19,24)                1.5113         estimate D2E/DX2                !
 ! R43   R(19,27)                1.5113         estimate D2E/DX2                !
 ! R44   R(19,28)                1.5113         estimate D2E/DX2                !
 ! R45   R(20,25)                1.5113         estimate D2E/DX2                !
 ! R46   R(20,28)                1.5113         estimate D2E/DX2                !
 ! R47   R(20,29)                1.5113         estimate D2E/DX2                !
 ! R48   R(21,26)                1.5113         estimate D2E/DX2                !
 ! R49   R(21,29)                1.5113         estimate D2E/DX2                !
 ! R50   R(21,33)                1.07           estimate D2E/DX2                !
 ! R51   R(27,30)                1.07           estimate D2E/DX2                !
 ! R52   R(28,31)                1.07           estimate D2E/DX2                !
 ! R53   R(29,32)                1.07           estimate D2E/DX2                !
 ! R54   R(45,46)                1.405          estimate D2E/DX2                !
 ! R55   R(45,47)                1.3527         estimate D2E/DX2                !
 ! A1    A(2,1,10)             112.6884         estimate D2E/DX2                !
 ! A2    A(2,1,39)             112.6884         estimate D2E/DX2                !
 ! A3    A(10,1,39)            112.6884         estimate D2E/DX2                !
 ! A4    A(1,2,3)              112.6884         estimate D2E/DX2                !
 ! A5    A(1,2,40)             112.6884         estimate D2E/DX2                !
 ! A6    A(3,2,40)             112.6884         estimate D2E/DX2                !
 ! A7    A(2,3,6)              112.6884         estimate D2E/DX2                !
 ! A8    A(2,3,22)             112.6884         estimate D2E/DX2                !
 ! A9    A(6,3,22)             112.6884         estimate D2E/DX2                !
 ! A10   A(6,4,7)              112.6884         estimate D2E/DX2                !
 ! A11   A(6,4,24)             112.6884         estimate D2E/DX2                !
 ! A12   A(7,4,24)             112.6884         estimate D2E/DX2                !
 ! A13   A(7,5,27)             112.6884         estimate D2E/DX2                !
 ! A14   A(7,5,43)             109.6693         estimate D2E/DX2                !
 ! A15   A(27,5,43)            137.6415         estimate D2E/DX2                !
 ! A16   A(3,6,4)              112.6884         estimate D2E/DX2                !
 ! A17   A(3,6,41)             112.6884         estimate D2E/DX2                !
 ! A18   A(4,6,41)             112.6884         estimate D2E/DX2                !
 ! A19   A(4,7,5)              112.6884         estimate D2E/DX2                !
 ! A20   A(4,7,42)             106.187          estimate D2E/DX2                !
 ! A21   A(5,7,42)             103.5792         estimate D2E/DX2                !
 ! A22   A(10,8,11)            112.6884         estimate D2E/DX2                !
 ! A23   A(10,8,38)            112.6884         estimate D2E/DX2                !
 ! A24   A(11,8,38)            112.6884         estimate D2E/DX2                !
 ! A25   A(11,9,12)            112.6884         estimate D2E/DX2                !
 ! A26   A(11,9,37)            112.6884         estimate D2E/DX2                !
 ! A27   A(12,9,37)            112.6884         estimate D2E/DX2                !
 ! A28   A(1,10,8)             112.6884         estimate D2E/DX2                !
 ! A29   A(1,10,13)            112.6884         estimate D2E/DX2                !
 ! A30   A(8,10,13)            112.6884         estimate D2E/DX2                !
 ! A31   A(8,11,9)             112.6884         estimate D2E/DX2                !
 ! A32   A(8,11,14)            112.6884         estimate D2E/DX2                !
 ! A33   A(9,11,14)            112.6884         estimate D2E/DX2                !
 ! A34   A(9,12,15)            112.6884         estimate D2E/DX2                !
 ! A35   A(9,12,36)            112.6884         estimate D2E/DX2                !
 ! A36   A(15,12,36)           112.6884         estimate D2E/DX2                !
 ! A37   A(10,13,22)           112.6884         estimate D2E/DX2                !
 ! A38   A(10,13,44)           112.6884         estimate D2E/DX2                !
 ! A39   A(22,13,44)           112.6884         estimate D2E/DX2                !
 ! A40   A(11,14,23)           112.6884         estimate D2E/DX2                !
 ! A41   A(11,14,44)           112.6884         estimate D2E/DX2                !
 ! A42   A(23,14,44)           112.6884         estimate D2E/DX2                !
 ! A43   A(12,15,23)           112.6884         estimate D2E/DX2                !
 ! A44   A(12,15,35)           112.6884         estimate D2E/DX2                !
 ! A45   A(23,15,35)           112.6884         estimate D2E/DX2                !
 ! A46   A(22,16,24)           112.6884         estimate D2E/DX2                !
 ! A47   A(22,16,25)           112.6884         estimate D2E/DX2                !
 ! A48   A(22,16,47)            84.7922         estimate D2E/DX2                !
 ! A49   A(24,16,25)           112.6884         estimate D2E/DX2                !
 ! A50   A(24,16,47)           129.8504         estimate D2E/DX2                !
 ! A51   A(25,16,47)           101.0865         estimate D2E/DX2                !
 ! A52   A(25,17,26)           112.6884         estimate D2E/DX2                !
 ! A53   A(25,17,44)           112.6884         estimate D2E/DX2                !
 ! A54   A(26,17,44)           112.6884         estimate D2E/DX2                !
 ! A55   A(23,18,26)           112.6884         estimate D2E/DX2                !
 ! A56   A(23,18,34)           112.6884         estimate D2E/DX2                !
 ! A57   A(26,18,34)           112.6884         estimate D2E/DX2                !
 ! A58   A(24,19,27)           112.6884         estimate D2E/DX2                !
 ! A59   A(24,19,28)           112.6884         estimate D2E/DX2                !
 ! A60   A(27,19,28)           112.6884         estimate D2E/DX2                !
 ! A61   A(25,20,28)           112.6884         estimate D2E/DX2                !
 ! A62   A(25,20,29)           112.6884         estimate D2E/DX2                !
 ! A63   A(28,20,29)           112.6884         estimate D2E/DX2                !
 ! A64   A(26,21,29)           112.6884         estimate D2E/DX2                !
 ! A65   A(26,21,33)           112.6884         estimate D2E/DX2                !
 ! A66   A(29,21,33)           112.6884         estimate D2E/DX2                !
 ! A67   A(3,22,13)            112.6884         estimate D2E/DX2                !
 ! A68   A(3,22,16)            112.6884         estimate D2E/DX2                !
 ! A69   A(13,22,16)           112.6884         estimate D2E/DX2                !
 ! A70   A(14,23,15)           112.6884         estimate D2E/DX2                !
 ! A71   A(14,23,18)           112.6884         estimate D2E/DX2                !
 ! A72   A(15,23,18)           112.6884         estimate D2E/DX2                !
 ! A73   A(4,24,16)            112.6884         estimate D2E/DX2                !
 ! A74   A(4,24,19)            112.6884         estimate D2E/DX2                !
 ! A75   A(16,24,19)           112.6884         estimate D2E/DX2                !
 ! A76   A(16,25,17)           112.6884         estimate D2E/DX2                !
 ! A77   A(16,25,20)           112.6884         estimate D2E/DX2                !
 ! A78   A(17,25,20)           112.6884         estimate D2E/DX2                !
 ! A79   A(17,26,18)           112.6884         estimate D2E/DX2                !
 ! A80   A(17,26,21)           112.6884         estimate D2E/DX2                !
 ! A81   A(18,26,21)           112.6884         estimate D2E/DX2                !
 ! A82   A(5,27,19)            112.6884         estimate D2E/DX2                !
 ! A83   A(5,27,30)            112.6884         estimate D2E/DX2                !
 ! A84   A(19,27,30)           112.6884         estimate D2E/DX2                !
 ! A85   A(19,28,20)           112.6884         estimate D2E/DX2                !
 ! A86   A(19,28,31)           112.6884         estimate D2E/DX2                !
 ! A87   A(20,28,31)           112.6884         estimate D2E/DX2                !
 ! A88   A(20,29,21)           112.6884         estimate D2E/DX2                !
 ! A89   A(20,29,32)           112.6884         estimate D2E/DX2                !
 ! A90   A(21,29,32)           112.6884         estimate D2E/DX2                !
 ! A91   A(13,44,14)           112.6884         estimate D2E/DX2                !
 ! A92   A(13,44,17)           112.6884         estimate D2E/DX2                !
 ! A93   A(14,44,17)           112.6884         estimate D2E/DX2                !
 ! A94   A(46,45,47)           126.403          estimate D2E/DX2                !
 ! A95   A(16,47,45)           148.5841         estimate D2E/DX2                !
 ! D1    D(10,1,2,3)            51.1032         estimate D2E/DX2                !
 ! D2    D(10,1,2,40)          180.0            estimate D2E/DX2                !
 ! D3    D(39,1,2,3)           180.0            estimate D2E/DX2                !
 ! D4    D(39,1,2,40)          -51.1032         estimate D2E/DX2                !
 ! D5    D(2,1,10,8)           180.0            estimate D2E/DX2                !
 ! D6    D(2,1,10,13)          -51.1032         estimate D2E/DX2                !
 ! D7    D(39,1,10,8)           51.1032         estimate D2E/DX2                !
 ! D8    D(39,1,10,13)         180.0            estimate D2E/DX2                !
 ! D9    D(1,2,3,6)            180.0            estimate D2E/DX2                !
 ! D10   D(1,2,3,22)           -51.1032         estimate D2E/DX2                !
 ! D11   D(40,2,3,6)            51.1032         estimate D2E/DX2                !
 ! D12   D(40,2,3,22)         -180.0            estimate D2E/DX2                !
 ! D13   D(2,3,6,4)            180.0            estimate D2E/DX2                !
 ! D14   D(2,3,6,41)           -51.1032         estimate D2E/DX2                !
 ! D15   D(22,3,6,4)            51.1032         estimate D2E/DX2                !
 ! D16   D(22,3,6,41)          180.0            estimate D2E/DX2                !
 ! D17   D(2,3,22,13)           51.1032         estimate D2E/DX2                !
 ! D18   D(2,3,22,16)          180.0            estimate D2E/DX2                !
 ! D19   D(6,3,22,13)          180.0            estimate D2E/DX2                !
 ! D20   D(6,3,22,16)          -51.1032         estimate D2E/DX2                !
 ! D21   D(7,4,6,3)            180.0            estimate D2E/DX2                !
 ! D22   D(7,4,6,41)            51.1032         estimate D2E/DX2                !
 ! D23   D(24,4,6,3)           -51.1032         estimate D2E/DX2                !
 ! D24   D(24,4,6,41)          180.0            estimate D2E/DX2                !
 ! D25   D(6,4,7,5)            180.0            estimate D2E/DX2                !
 ! D26   D(6,4,7,42)           -67.2727         estimate D2E/DX2                !
 ! D27   D(24,4,7,5)            51.1032         estimate D2E/DX2                !
 ! D28   D(24,4,7,42)          163.8304         estimate D2E/DX2                !
 ! D29   D(6,4,24,16)           51.1032         estimate D2E/DX2                !
 ! D30   D(6,4,24,19)          180.0            estimate D2E/DX2                !
 ! D31   D(7,4,24,16)          180.0            estimate D2E/DX2                !
 ! D32   D(7,4,24,19)          -51.1032         estimate D2E/DX2                !
 ! D33   D(27,5,7,4)           -51.1032         estimate D2E/DX2                !
 ! D34   D(27,5,7,42)         -165.4227         estimate D2E/DX2                !
 ! D35   D(43,5,7,4)           128.6399         estimate D2E/DX2                !
 ! D36   D(43,5,7,42)           14.3203         estimate D2E/DX2                !
 ! D37   D(7,5,27,19)           51.1032         estimate D2E/DX2                !
 ! D38   D(7,5,27,30)          180.0            estimate D2E/DX2                !
 ! D39   D(43,5,27,19)        -128.5377         estimate D2E/DX2                !
 ! D40   D(43,5,27,30)           0.3591         estimate D2E/DX2                !
 ! D41   D(11,8,10,1)          180.0            estimate D2E/DX2                !
 ! D42   D(11,8,10,13)          51.1032         estimate D2E/DX2                !
 ! D43   D(38,8,10,1)          -51.1032         estimate D2E/DX2                !
 ! D44   D(38,8,10,13)        -180.0            estimate D2E/DX2                !
 ! D45   D(10,8,11,9)          180.0            estimate D2E/DX2                !
 ! D46   D(10,8,11,14)         -51.1032         estimate D2E/DX2                !
 ! D47   D(38,8,11,9)           51.1032         estimate D2E/DX2                !
 ! D48   D(38,8,11,14)         180.0            estimate D2E/DX2                !
 ! D49   D(12,9,11,8)         -180.0            estimate D2E/DX2                !
 ! D50   D(12,9,11,14)          51.1032         estimate D2E/DX2                !
 ! D51   D(37,9,11,8)          -51.1032         estimate D2E/DX2                !
 ! D52   D(37,9,11,14)         180.0            estimate D2E/DX2                !
 ! D53   D(11,9,12,15)         -51.1032         estimate D2E/DX2                !
 ! D54   D(11,9,12,36)        -180.0            estimate D2E/DX2                !
 ! D55   D(37,9,12,15)         180.0            estimate D2E/DX2                !
 ! D56   D(37,9,12,36)          51.1032         estimate D2E/DX2                !
 ! D57   D(1,10,13,22)          51.1032         estimate D2E/DX2                !
 ! D58   D(1,10,13,44)         180.0            estimate D2E/DX2                !
 ! D59   D(8,10,13,22)         180.0            estimate D2E/DX2                !
 ! D60   D(8,10,13,44)         -51.1032         estimate D2E/DX2                !
 ! D61   D(8,11,14,23)         180.0            estimate D2E/DX2                !
 ! D62   D(8,11,14,44)          51.1032         estimate D2E/DX2                !
 ! D63   D(9,11,14,23)         -51.1032         estimate D2E/DX2                !
 ! D64   D(9,11,14,44)         180.0            estimate D2E/DX2                !
 ! D65   D(9,12,15,23)          51.1032         estimate D2E/DX2                !
 ! D66   D(9,12,15,35)         180.0            estimate D2E/DX2                !
 ! D67   D(36,12,15,23)        180.0            estimate D2E/DX2                !
 ! D68   D(36,12,15,35)        -51.1032         estimate D2E/DX2                !
 ! D69   D(10,13,22,3)         -51.1032         estimate D2E/DX2                !
 ! D70   D(10,13,22,16)        180.0            estimate D2E/DX2                !
 ! D71   D(44,13,22,3)         180.0            estimate D2E/DX2                !
 ! D72   D(44,13,22,16)         51.1032         estimate D2E/DX2                !
 ! D73   D(10,13,44,14)         51.1032         estimate D2E/DX2                !
 ! D74   D(10,13,44,17)        180.0            estimate D2E/DX2                !
 ! D75   D(22,13,44,14)       -180.0            estimate D2E/DX2                !
 ! D76   D(22,13,44,17)        -51.1032         estimate D2E/DX2                !
 ! D77   D(11,14,23,15)         51.1032         estimate D2E/DX2                !
 ! D78   D(11,14,23,18)        180.0            estimate D2E/DX2                !
 ! D79   D(44,14,23,15)        180.0            estimate D2E/DX2                !
 ! D80   D(44,14,23,18)        -51.1032         estimate D2E/DX2                !
 ! D81   D(11,14,44,13)        -51.1032         estimate D2E/DX2                !
 ! D82   D(11,14,44,17)        180.0            estimate D2E/DX2                !
 ! D83   D(23,14,44,13)       -180.0            estimate D2E/DX2                !
 ! D84   D(23,14,44,17)         51.1032         estimate D2E/DX2                !
 ! D85   D(12,15,23,14)        -51.1032         estimate D2E/DX2                !
 ! D86   D(12,15,23,18)        180.0            estimate D2E/DX2                !
 ! D87   D(35,15,23,14)        180.0            estimate D2E/DX2                !
 ! D88   D(35,15,23,18)         51.1032         estimate D2E/DX2                !
 ! D89   D(24,16,22,3)          51.1032         estimate D2E/DX2                !
 ! D90   D(24,16,22,13)        180.0            estimate D2E/DX2                !
 ! D91   D(25,16,22,3)         180.0            estimate D2E/DX2                !
 ! D92   D(25,16,22,13)        -51.1032         estimate D2E/DX2                !
 ! D93   D(47,16,22,3)         -80.1437         estimate D2E/DX2                !
 ! D94   D(47,16,22,13)         48.7532         estimate D2E/DX2                !
 ! D95   D(22,16,24,4)         -51.1032         estimate D2E/DX2                !
 ! D96   D(22,16,24,19)        180.0            estimate D2E/DX2                !
 ! D97   D(25,16,24,4)         180.0            estimate D2E/DX2                !
 ! D98   D(25,16,24,19)         51.1032         estimate D2E/DX2                !
 ! D99   D(47,16,24,4)          51.6528         estimate D2E/DX2                !
 ! D100  D(47,16,24,19)        -77.2441         estimate D2E/DX2                !
 ! D101  D(22,16,25,17)         51.1032         estimate D2E/DX2                !
 ! D102  D(22,16,25,20)        180.0            estimate D2E/DX2                !
 ! D103  D(24,16,25,17)        180.0            estimate D2E/DX2                !
 ! D104  D(24,16,25,20)        -51.1032         estimate D2E/DX2                !
 ! D105  D(47,16,25,17)        -37.8464         estimate D2E/DX2                !
 ! D106  D(47,16,25,20)         91.0504         estimate D2E/DX2                !
 ! D107  D(22,16,47,45)        -85.0841         estimate D2E/DX2                !
 ! D108  D(24,16,47,45)        159.548          estimate D2E/DX2                !
 ! D109  D(25,16,47,45)         27.053          estimate D2E/DX2                !
 ! D110  D(26,17,25,16)       -180.0            estimate D2E/DX2                !
 ! D111  D(26,17,25,20)         51.1032         estimate D2E/DX2                !
 ! D112  D(44,17,25,16)        -51.1032         estimate D2E/DX2                !
 ! D113  D(44,17,25,20)        180.0            estimate D2E/DX2                !
 ! D114  D(25,17,26,18)        180.0            estimate D2E/DX2                !
 ! D115  D(25,17,26,21)        -51.1032         estimate D2E/DX2                !
 ! D116  D(44,17,26,18)         51.1032         estimate D2E/DX2                !
 ! D117  D(44,17,26,21)        180.0            estimate D2E/DX2                !
 ! D118  D(25,17,44,13)         51.1032         estimate D2E/DX2                !
 ! D119  D(25,17,44,14)        180.0            estimate D2E/DX2                !
 ! D120  D(26,17,44,13)        180.0            estimate D2E/DX2                !
 ! D121  D(26,17,44,14)        -51.1032         estimate D2E/DX2                !
 ! D122  D(26,18,23,14)         51.1032         estimate D2E/DX2                !
 ! D123  D(26,18,23,15)        180.0            estimate D2E/DX2                !
 ! D124  D(34,18,23,14)        180.0            estimate D2E/DX2                !
 ! D125  D(34,18,23,15)        -51.1032         estimate D2E/DX2                !
 ! D126  D(23,18,26,17)        -51.1032         estimate D2E/DX2                !
 ! D127  D(23,18,26,21)        180.0            estimate D2E/DX2                !
 ! D128  D(34,18,26,17)        180.0            estimate D2E/DX2                !
 ! D129  D(34,18,26,21)         51.1032         estimate D2E/DX2                !
 ! D130  D(27,19,24,4)          51.1032         estimate D2E/DX2                !
 ! D131  D(27,19,24,16)        180.0            estimate D2E/DX2                !
 ! D132  D(28,19,24,4)         180.0            estimate D2E/DX2                !
 ! D133  D(28,19,24,16)        -51.1032         estimate D2E/DX2                !
 ! D134  D(24,19,27,5)         -51.1032         estimate D2E/DX2                !
 ! D135  D(24,19,27,30)        180.0            estimate D2E/DX2                !
 ! D136  D(28,19,27,5)         180.0            estimate D2E/DX2                !
 ! D137  D(28,19,27,30)         51.1032         estimate D2E/DX2                !
 ! D138  D(24,19,28,20)         51.1032         estimate D2E/DX2                !
 ! D139  D(24,19,28,31)        180.0            estimate D2E/DX2                !
 ! D140  D(27,19,28,20)        180.0            estimate D2E/DX2                !
 ! D141  D(27,19,28,31)        -51.1032         estimate D2E/DX2                !
 ! D142  D(28,20,25,16)         51.1032         estimate D2E/DX2                !
 ! D143  D(28,20,25,17)        180.0            estimate D2E/DX2                !
 ! D144  D(29,20,25,16)        180.0            estimate D2E/DX2                !
 ! D145  D(29,20,25,17)        -51.1032         estimate D2E/DX2                !
 ! D146  D(25,20,28,19)        -51.1032         estimate D2E/DX2                !
 ! D147  D(25,20,28,31)        180.0            estimate D2E/DX2                !
 ! D148  D(29,20,28,19)       -180.0            estimate D2E/DX2                !
 ! D149  D(29,20,28,31)         51.1032         estimate D2E/DX2                !
 ! D150  D(25,20,29,21)         51.1032         estimate D2E/DX2                !
 ! D151  D(25,20,29,32)        180.0            estimate D2E/DX2                !
 ! D152  D(28,20,29,21)        180.0            estimate D2E/DX2                !
 ! D153  D(28,20,29,32)        -51.1032         estimate D2E/DX2                !
 ! D154  D(29,21,26,17)         51.1032         estimate D2E/DX2                !
 ! D155  D(29,21,26,18)       -180.0            estimate D2E/DX2                !
 ! D156  D(33,21,26,17)        180.0            estimate D2E/DX2                !
 ! D157  D(33,21,26,18)        -51.1032         estimate D2E/DX2                !
 ! D158  D(26,21,29,20)        -51.1032         estimate D2E/DX2                !
 ! D159  D(26,21,29,32)        180.0            estimate D2E/DX2                !
 ! D160  D(33,21,29,20)        180.0            estimate D2E/DX2                !
 ! D161  D(33,21,29,32)         51.1032         estimate D2E/DX2                !
 ! D162  D(46,45,47,16)         34.3674         estimate D2E/DX2                !
 --------------------------------------------------------------------------------
 Trust Radius=3.00D-01 FncErr=1.00D-07 GrdErr=1.00D-07
 Number of steps in this run=    282 maximum allowed number of steps=    282.
 GradGradGradGradGradGradGradGradGradGradGradGradGradGradGradGradGradGrad

                          Input orientation:                          
 ---------------------------------------------------------------------
 Center     Atomic      Atomic             Coordinates (Angstroms)
 Number     Number       Type             X           Y           Z
 ---------------------------------------------------------------------
      1          6           0        0.176948    1.023714    2.994967
      2          6           0        1.434948    0.297407    2.577810
      3          6           0        2.692948    1.023714    2.994967
      4          6           0        5.208948    1.023714    2.994967
      5          6           0        7.724948    1.023714    2.994967
      6          6           0        3.950948    0.297407    2.577810
      7          6           0        6.466948    0.297407    2.577810
      8          6           0       -1.081052    3.202634    2.994967
      9          6           0       -2.339052    5.381554    2.994967
     10          6           0        0.176948    2.476327    2.577810
     11          6           0       -1.081052    4.655247    2.577810
     12          6           0       -2.339052    6.834167    2.577810
     13          6           0        1.434948    3.202634    2.994967
     14          6           0        0.176948    5.381554    2.994967
     15          6           0       -1.081052    7.560474    2.994967
     16          6           0        3.950948    3.202634    2.994967
     17          6           0        2.692948    5.381554    2.994967
     18          6           0        1.434948    7.560474    2.994967
     19          6           0        6.466948    3.202634    2.994967
     20          6           0        5.208948    5.381554    2.994967
     21          6           0        3.950948    7.560474    2.994967
     22          6           0        2.692948    2.476327    2.577810
     23          6           0        0.176948    6.834167    2.577810
     24          6           0        5.208948    2.476327    2.577810
     25          6           0        3.950948    4.655247    2.577810
     26          6           0        2.692948    6.834167    2.577810
     27          6           0        7.724948    2.476327    2.577810
     28          6           0        6.466948    4.655247    2.577810
     29          6           0        5.208948    6.834167    2.577810
     30          1           0        8.615597    2.990544    2.873152
     31          1           0        7.357597    5.169464    2.873152
     32          1           0        6.099597    7.348383    2.873152
     33          1           0        3.950948    8.588906    2.699625
     34          1           0        1.434948    8.588906    2.699625
     35          1           0       -1.081052    8.588906    2.699625
     36          1           0       -3.229701    7.348383    2.873152
     37          1           0       -3.229701    4.867338    2.699625
     38          1           0       -1.971701    2.688418    2.699625
     39          1           0       -0.713701    0.509498    2.699625
     40          1           0        1.434948   -0.731025    2.873152
     41          1           0        3.950948   -0.731025    2.873152
     42          1           0        6.495217   -0.604546    3.152772
     43          1           0        8.373408    0.350713    3.515994
     44          7           0        1.434948    4.655247    2.577810
     45          7           0        2.188623    3.970676    5.690513
     46          8           0        1.011262    4.642781    5.321398
     47          8           0        3.036709    3.321998    4.860004
 ---------------------------------------------------------------------
                    Distance matrix (angstroms):
                    1          2          3          4          5
     1  C    0.000000
     2  C    1.511326   0.000000
     3  C    2.516000   1.511326   0.000000
     4  C    5.032000   3.865827   2.516000   0.000000
     5  C    7.548000   6.345521   5.032000   2.516000   0.000000
     6  C    3.865827   2.516000   1.511326   1.511326   3.865827
     7  C    6.345521   5.032000   3.865827   1.511326   1.511326
     8  C    2.516000   3.865827   4.357840   6.656710   9.071567
     9  C    5.032000   6.345521   6.656710   8.715680  10.966990
    10  C    1.511326   2.516000   2.935023   5.254058   7.697818
    11  C    3.865827   5.032000   5.254058   7.275036   9.534552
    12  C    6.345521   7.548000   7.697818   9.534552  11.628391
    13  C    2.516000   2.935023   2.516000   4.357840   6.656710
    14  C    4.357840   5.254058   5.032000   6.656710   8.715680
    15  C    6.656710   7.697818   7.548000   9.071567  10.966990
    16  C    4.357840   3.865827   2.516000   2.516000   4.357840
    17  C    5.032000   5.254058   4.357840   5.032000   6.656710
    18  C    6.656710   7.275036   6.656710   7.548000   9.071567
    19  C    6.656710   5.825409   4.357840   2.516000   2.516000
    20  C    6.656710   6.345521   5.032000   4.357840   5.032000
    21  C    7.548000   7.697818   6.656710   6.656710   7.548000
    22  C    2.935023   2.516000   1.511326   2.935023   5.254058
    23  C    5.825409   6.656710   6.345521   7.697818   9.534552
    24  C    5.254058   4.357840   2.935023   1.511326   2.935023
    25  C    5.254058   5.032000   3.865827   3.865827   5.254058
    26  C    6.345521   6.656710   5.825409   6.345521   7.697818
    27  C    7.697818   6.656710   5.254058   2.935023   1.511326
    28  C    7.275036   6.656710   5.254058   3.865827   3.865827
    29  C    7.697818   7.548000   6.345521   5.825409   6.345521
    30  H    8.665682   7.674759   6.241877   3.935545   2.162524
    31  H    8.292394   7.674759   6.241877   4.671056   4.163775
    32  H    8.665682   8.459458   7.184813   6.388234   6.531313
    33  H    8.459458   8.665682   7.674759   7.674759   8.459458
    34  H    7.674759   8.292394   7.674759   8.459458   9.842940
    35  H    7.674759   8.665682   8.459458   9.842940  11.613139
    36  H    7.184813   8.459458   8.665682  10.546425  12.649925
    37  H    5.144504   6.531313   7.066713   9.277471  11.613139
    38  H    2.734073   4.163775   4.961594   7.377003   9.842940
    39  H    1.070000   2.162524   3.457875   5.952261   8.459458
    40  H    2.162524   1.070000   2.162524   4.163775   6.531313
    41  H    4.163775   2.734073   2.162524   2.162524   4.163775
    42  H    6.526612   5.172082   4.139249   2.081015   2.046551
    43  H    8.240531   7.001804   5.743868   3.276920   1.070000
    44  N    3.865827   4.357840   3.865827   5.254058   7.275036
    45  N    4.471845   4.873382   4.025531   5.007287   6.826525
    46  O    4.382466   5.156457   4.619307   6.010865   7.973927
    47  O    4.115667   4.113660   2.979706   3.671389   5.544372
                    6          7          8          9         10
     6  C    0.000000
     7  C    2.516000   0.000000
     8  C    5.825409   8.098559   0.000000
     9  C    8.098559  10.176846   2.516000   0.000000
    10  C    4.357840   6.656710   1.511326   3.865827   0.000000
    11  C    6.656710   8.715680   1.511326   1.511326   2.516000
    12  C    9.071567  10.966990   3.865827   1.511326   5.032000
    13  C    3.865827   5.825409   2.516000   4.357840   1.511326
    14  C    6.345521   8.098559   2.516000   2.516000   2.935023
    15  C    8.845743  10.483246   4.357840   2.516000   5.254058
    16  C    2.935023   3.865827   5.032000   6.656710   3.865827
    17  C    5.254058   6.345521   4.357840   5.032000   3.865827
    18  C    7.697818   8.845743   5.032000   4.357840   5.254058
    19  C    3.865827   2.935023   7.548000   9.071567   6.345521
    20  C    5.254058   5.254058   6.656710   7.548000   5.825409
    21  C    7.275036   7.697818   6.656710   6.656710   6.345521
    22  C    2.516000   4.357840   3.865827   5.825409   2.516000
    23  C    7.548000   9.071567   3.865827   2.935023   4.357840
    24  C    2.516000   2.516000   6.345521   8.098559   5.032000
    25  C    4.357840   5.032000   5.254058   6.345521   4.357840
    26  C    6.656710   7.548000   5.254058   5.254058   5.032000
    27  C    4.357840   2.516000   8.845743  10.483246   7.548000
    28  C    5.032000   4.357840   7.697818   8.845743   6.656710
    29  C    6.656710   6.656710   7.275036   7.697818   6.656710
    30  H    5.394363   3.457875   9.699733  11.213211   8.459458
    31  H    5.952261   4.961594   8.665682   9.699733   7.674759
    32  H    7.377003   7.066713   8.292394   8.665682   7.674759
    33  H    8.292394   8.665682   7.377003   7.066713   7.184813
    34  H    8.665682   9.699733   5.952261   4.961594   6.241877
    35  H    9.699733  11.213211   5.394363   3.457875   6.241877
    36  H   10.068029  11.992851   4.671056   2.162524   5.952261
    37  H    8.512392  10.720266   2.734073   1.070000   4.163775
    38  H    6.388234   8.771691   1.070000   2.734073   2.162524
    39  H    4.671056   7.184813   2.734073   5.144504   2.162524
    40  H    2.734073   5.144504   4.671056   7.184813   3.457875
    41  H    1.070000   2.734073   6.388234   8.771691   4.961594
    42  H    2.759965   1.070000   8.480529  10.672516   7.052864
    43  H    4.521192   2.125469   9.888970  11.846418   8.519412
    44  N    5.032000   6.656710   2.935023   3.865827   2.516000
    45  N    5.127145   6.440954   4.306581   5.454942   3.996103
    46  O    5.920414   7.494935   3.444428   4.145199   3.594005
    47  O    3.897742   5.111076   4.522010   6.051359   3.755237
                   11         12         13         14         15
    11  C    0.000000
    12  C    2.516000   0.000000
    13  C    2.935023   5.254058   0.000000
    14  C    1.511326   2.935023   2.516000   0.000000
    15  C    2.935023   1.511326   5.032000   2.516000   0.000000
    16  C    5.254058   7.275036   2.516000   4.357840   6.656710
    17  C    3.865827   5.254058   2.516000   2.516000   4.357840
    18  C    3.865827   3.865827   4.357840   2.516000   2.516000
    19  C    7.697818   9.534552   5.032000   6.656710   8.715680
    20  C    6.345521   7.697818   4.357840   5.032000   6.656710
    21  C    5.825409   6.345521   5.032000   4.357840   5.032000
    22  C    4.357840   6.656710   1.511326   3.865827   6.345521
    23  C    2.516000   2.516000   3.865827   1.511326   1.511326
    24  C    6.656710   8.715680   3.865827   5.825409   8.098559
    25  C    5.032000   6.656710   2.935023   3.865827   5.825409
    26  C    4.357840   5.032000   3.865827   2.935023   3.865827
    27  C    9.071567  10.966990   6.345521   8.098559  10.176846
    28  C    7.548000   9.071567   5.254058   6.345521   8.098559
    29  C    6.656710   7.548000   5.254058   5.254058   6.345521
    30  H    9.842940  11.613139   7.184813   8.771691  10.720266
    31  H    8.459458   9.842940   6.241877   7.184813   8.771691
    32  H    7.674759   8.459458   6.241877   6.241877   7.184813
    33  H    6.388234   6.531313   5.952261   4.961594   5.144504
    34  H    4.671056   4.163775   5.394363   3.457875   2.734073
    35  H    3.935545   2.162524   5.952261   3.457875   1.070000
    36  H    3.457875   1.070000   6.241877   3.935545   2.162524
    37  H    2.162524   2.162524   4.961594   3.457875   3.457875
    38  H    2.162524   4.163775   3.457875   3.457875   4.961594
    39  H    4.163775   6.531313   3.457875   4.961594   7.066713
    40  H    5.952261   8.459458   3.935545   6.241877   8.665682
    41  H    7.377003   9.842940   4.671056   7.184813   9.699733
    42  H    9.240988  11.563276   6.334497   8.705103  11.139673
    43  H   10.430533  12.556757   7.519784   9.631344  11.901215
    44  N    2.516000   4.357840   1.511326   1.511326   3.865827
    45  N    4.565998   6.195833   2.902393   3.647381   5.553683
    46  O    3.450392   4.853251   2.768721   2.579563   4.278200
    47  O    4.893048   6.814877   2.461352   3.987276   6.196692
                   16         17         18         19         20
    16  C    0.000000
    17  C    2.516000   0.000000
    18  C    5.032000   2.516000   0.000000
    19  C    2.516000   4.357840   6.656710   0.000000
    20  C    2.516000   2.516000   4.357840   2.516000   0.000000
    21  C    4.357840   2.516000   2.516000   5.032000   2.516000
    22  C    1.511326   2.935023   5.254058   3.865827   3.865827
    23  C    5.254058   2.935023   1.511326   7.275036   5.254058
    24  C    1.511326   3.865827   6.345521   1.511326   2.935023
    25  C    1.511326   1.511326   3.865827   2.935023   1.511326
    26  C    3.865827   1.511326   1.511326   5.254058   2.935023
    27  C    3.865827   5.825409   8.098559   1.511326   3.865827
    28  C    2.935023   3.865827   5.825409   1.511326   1.511326
    29  C    3.865827   2.935023   3.865827   3.865827   1.511326
    30  H    4.671056   6.388234   8.512392   2.162524   4.163775
    31  H    3.935545   4.671056   6.388234   2.162524   2.162524
    32  H    4.671056   3.935545   4.671056   4.163775   2.162524
    33  H    5.394363   3.457875   2.734073   5.952261   3.457875
    34  H    5.952261   3.457875   1.070000   7.377003   4.961594
    35  H    7.377003   4.961594   2.734073   9.277471   7.066713
    36  H    8.292394   6.241877   4.671056  10.546425   8.665682
    37  H    7.377003   5.952261   5.394363   9.842940   8.459458
    38  H    5.952261   5.394363   5.952261   8.459458   7.674759
    39  H    5.394363   5.952261   7.377003   7.674759   7.674759
    40  H    4.671056   6.241877   8.292394   6.388234   7.184813
    41  H    3.935545   6.241877   8.665682   4.671056   6.241877
    42  H    4.581793   7.093345   9.607225   3.810554   6.124768
    43  H    5.288012   7.605817  10.019698   3.469800   5.966124
    44  N    2.935023   1.511326   2.935023   5.254058   3.865827
    45  N    3.310838   3.083973   4.551993   5.114677   4.287063
    46  O    4.015975   2.964142   3.755626   6.103345   4.855784
    47  O    2.080492   2.799697   4.899865   3.906296   3.526862
                   21         22         23         24         25
    21  C    0.000000
    22  C    5.254058   0.000000
    23  C    3.865827   5.032000   0.000000
    24  C    5.254058   2.516000   6.656710   0.000000
    25  C    2.935023   2.516000   4.357840   2.516000   0.000000
    26  C    1.511326   4.357840   2.516000   5.032000   2.516000
    27  C    6.345521   5.032000   8.715680   2.516000   4.357840
    28  C    3.865827   4.357840   6.656710   2.516000   2.516000
    29  C    1.511326   5.032000   5.032000   4.357840   2.516000
    30  H    6.531313   5.952261   9.277471   3.457875   4.961594
    31  H    4.163775   5.394363   7.377003   3.457875   3.457875
    32  H    2.162524   5.952261   5.952261   4.961594   3.457875
    33  H    1.070000   6.241877   4.163775   6.241877   3.935545
    34  H    2.734073   6.241877   2.162524   7.184813   4.671056
    35  H    5.144504   7.184813   2.162524   8.771691   6.388234
    36  H    7.184813   7.674759   3.457875   9.748587   7.674759
    37  H    7.674759   6.388234   3.935545   8.771691   7.184813
    38  H    7.674759   4.671056   4.671056   7.184813   6.241877
    39  H    8.459458   3.935545   6.388234   6.241877   6.241877
    40  H    8.665682   3.457875   7.674759   4.961594   5.952261
    41  H    8.292394   3.457875   8.459458   3.457875   5.394363
    42  H    8.553698   4.927435   9.776787   3.387750   5.871057
    43  H    8.474094   6.137267  10.492727   3.925841   6.242384
    44  N    3.865827   2.516000   2.516000   4.357840   2.516000
    45  N    4.822697   3.489462   4.683518   4.587413   3.641888
    46  O    4.750470   3.879286   3.609089   5.462725   4.021092
    47  O    4.720050   2.457995   5.071684   3.262237   2.796747
                   26         27         28         29         30
    26  C    0.000000
    27  C    6.656710   0.000000
    28  C    4.357840   2.516000   0.000000
    29  C    2.516000   5.032000   2.516000   0.000000
    30  H    7.066713   1.070000   2.734073   5.144504   0.000000
    31  H    4.961594   2.734073   1.070000   2.734073   2.516000
    32  H    3.457875   5.144504   2.734073   1.070000   5.032000
    33  H    2.162524   7.184813   4.671056   2.162524   7.289082
    34  H    2.162524   8.771691   6.388234   4.163775   9.106783
    35  H    4.163775  10.720266   8.512392   6.531313  11.198070
    36  H    5.952261  11.992851  10.068029   8.459458  12.621483
    37  H    6.241877  11.213211   9.699733   8.665682  11.994313
    38  H    6.241877   9.699733   8.665682   8.292394  10.593029
    39  H    7.184813   8.665682   8.292394   8.665682   9.655127
    40  H    7.674759   7.066713   7.377003   8.459458   8.087755
    41  H    7.674759   4.961594   5.952261   7.674759   5.967329
    42  H    8.373905   3.366689   5.291201   7.570966   4.183164
    43  H    8.670812   2.412245   4.800395   7.275244   2.727747
    44  N    2.516000   6.656710   5.032000   4.357840   7.377003
    45  N    4.259442   6.524790   5.334943   5.197197   7.085490
    46  O    3.893265   7.569305   6.106713   5.472661   8.157800
    47  O    4.202608   5.282343   4.330416   4.718300   5.931393
                   31         32         33         34         35
    31  H    0.000000
    32  H    2.516000   0.000000
    33  H    4.829902   2.487107   0.000000
    34  H    6.841087   4.829902   2.516000   0.000000
    35  H    9.106783   7.289082   5.032000   2.516000   0.000000
    36  H   10.809188   9.329297   7.289082   4.829902   2.487107
    37  H   10.593029   9.655127   8.087755   5.967329   4.297297
    38  H    9.655127   9.321547   8.360235   6.813297   5.967329
    39  H    9.321547   9.655127   9.329297   8.360235   8.087755
    40  H    8.360235   9.329297   9.655127   9.321547   9.655127
    41  H    6.813297   8.360235   9.321547   9.655127  10.593029
    42  H    5.844747   7.967671   9.549775  10.503867  11.921609
    43  H    4.966435   7.385855   9.385757  10.801690  12.566666
    44  N    5.952261   5.394363   4.671056   3.935545   4.671056
    45  N    6.007737   5.885758   5.777478   5.553511   6.400331
    46  O    6.822556   6.261417   5.575603   4.756586   5.179129
    47  O    5.102036   5.435130   5.765708   5.913814   7.025917
                   36         37         38         39         40
    36  H    0.000000
    37  H    2.487107   0.000000
    38  H    4.829902   2.516000   0.000000
    39  H    7.289082   5.032000   2.516000   0.000000
    40  H    9.329297   7.289082   4.829902   2.487107   0.000000
    41  H   10.809188   9.106783   6.841087   4.829902   2.516000
    42  H   12.565878  11.167850   9.096024   7.308552   5.069567
    43  H   13.565130  12.477920  10.637321   9.125087   7.051640
    44  N    5.394363   4.671056   3.935545   4.671056   5.394363
    45  N    6.978873   6.253611   5.281846   5.417440   5.532770
    46  O    5.594636   4.990980   4.426205   5.189722   5.920406
    47  O    7.708907   6.806115   5.491160   5.161683   4.789595
                   41         42         43         44         45
    41  H    0.000000
    42  H    2.562712   0.000000
    43  H    4.597995   2.138235   0.000000
    44  N    5.952261   7.321361   8.218967   0.000000
    45  N    5.757544   6.776396   7.488940   3.274994   0.000000
    46  O    6.596473   7.893741   8.711057   2.776137   1.405045
    47  O    4.605476   5.503968   6.254218   3.090567   1.352693
                   46         47
    46  O    0.000000
    47  O    2.461664   0.000000
 Stoichiometry    C29H14N2O2
 Framework group  C1[X(C29H14N2O2)]
 Deg. of freedom   135
 Full point group                 C1      NOp   1
 Largest Abelian subgroup         C1      NOp   1
 Largest concise Abelian subgroup C1      NOp   1
                         Standard orientation:                         
 ---------------------------------------------------------------------
 Center     Atomic      Atomic             Coordinates (Angstroms)
 Number     Number       Type             X           Y           Z
 ---------------------------------------------------------------------
      1          6           0       -0.662142   -3.742831   -0.136184
      2          6           0        0.797546   -3.737233   -0.527827
      3          6           0        1.517640   -2.487784   -0.075669
      4          6           0        3.697423   -1.232738   -0.015154
      5          6           0        5.877206    0.022308    0.045361
      6          6           0        2.977329   -2.482187   -0.467312
      7          6           0        5.157111   -1.227141   -0.406797
      8          6           0       -2.839531   -2.482278   -0.151820
      9          6           0       -5.016919   -1.221726   -0.167456
     10          6           0       -1.379842   -2.476681   -0.543463
     11          6           0       -3.557231   -1.216129   -0.559099
     12          6           0       -5.734619    0.044424   -0.574735
     13          6           0       -0.659748   -1.227232   -0.091305
     14          6           0       -2.837136    0.033320   -0.106941
     15          6           0       -5.014524    1.293872   -0.122577
     16          6           0        1.520035    0.027814   -0.030790
     17          6           0       -0.657353    1.288366   -0.046426
     18          6           0       -2.834742    2.548919   -0.062062
     19          6           0        3.699818    1.282860    0.029725
     20          6           0        1.522429    2.543413    0.014089
     21          6           0       -0.654959    3.803965   -0.001547
     22          6           0        0.799940   -1.221635   -0.482948
     23          6           0       -3.554836    1.299470   -0.514220
     24          6           0        2.979723    0.033412   -0.422433
     25          6           0        0.802335    1.293964   -0.438069
     26          6           0       -1.375053    2.554516   -0.453705
     27          6           0        5.159506    1.288458   -0.361918
     28          6           0        2.982118    2.549010   -0.377554
     29          6           0        0.804729    3.809563   -0.393190
     30          1           0        5.669324    2.173052   -0.041796
     31          1           0        3.491936    3.433605   -0.057432
     32          1           0        1.314548    4.694157   -0.073068
     33          1           0       -1.163082    4.700384   -0.289896
     34          1           0       -3.342864    3.445337   -0.350411
     35          1           0       -5.522647    2.190291   -0.410926
     36          1           0       -6.768060    0.040461   -0.297457
     37          1           0       -5.526737   -2.106321   -0.487578
     38          1           0       -3.349349   -3.366873   -0.471942
     39          1           0       -1.171960   -4.627425   -0.456306
     40          1           0        1.305669   -4.633652   -0.239478
     41          1           0        3.485451   -3.378605   -0.178963
     42          1           0        5.621709   -2.004843    0.162613
     43          1           0        6.765790   -0.246675    0.577307
     44          7           0       -1.377448    0.038918   -0.498584
     45          7           0       -0.437273   -0.233785    2.626682
     46          8           0       -1.786291   -0.232116    2.233874
     47          8           0        0.635765   -0.358032    1.812477
 ---------------------------------------------------------------------
 Rotational constants (GHZ):      0.2594104      0.1231460      0.0917745
 Standard basis: VSTO-6G (5D, 7F)
 There are   146 symmetry adapted cartesian basis functions of A   symmetry.
 There are   146 symmetry adapted basis functions of A   symmetry.
   146 basis functions,   876 primitive gaussians,   146 cartesian basis functions
    76 alpha electrons       76 beta electrons
       nuclear repulsion energy      1586.0116601161 Hartrees.
 Integral buffers will be    262144 words long.
 Regular integral format.
 Two-electron integral symmetry is turned off.
 Do NDO integrals.
 One-electron integrals computed using PRISM.
 NBasis=   146 RedAO= F EigKep=  0.00D+00  NBF=   146
 NBsUse=   146 1.00D-04 EigRej=  0.00D+00 NBFU=   146
 Simple Huckel Guess.
 Keep J ints in memory in canonical form, NReq=1117905.
 Gradient too large for Newton-Raphson -- use scaled steepest descent instead.
 Gradient too large for Newton-Raphson -- use scaled steepest descent instead.
     Accept linear search using points  2 and  3.
 Gradient too large for Newton-Raphson -- use scaled steepest descent instead.
 Gradient too large for Newton-Raphson -- use scaled steepest descent instead.
     Accept linear search using points  1 and  2.
 Gradient too large for Newton-Raphson -- use scaled steepest descent instead.
 Gradient too large for Newton-Raphson -- use scaled steepest descent instead.
     Accept linear search using points  1 and  2.
     Minimum is close to point  2 DX= -7.48D-02 DF= -4.73D-06 DXR=  8.09D-02 DFR=  6.57D-03 which will be used.
 Gradient too large for Newton-Raphson -- use scaled steepest descent instead.
     Accept linear search using points  1 and  2.
     Minimum is close to point  2 DX= -2.14D-02 DF= -1.74D-07 DXR=  1.98D-02 DFR=  4.67D-04 which will be used.
 LinEq1:  Iter=  0 NonCon=     1 RMS=2.83D-04 Max=9.00D-03 NDo=     1
 AX will form     1 AO Fock derivatives at one time.
 LinEq1:  Iter=  1 NonCon=     1 RMS=1.99D-04 Max=5.37D-03 NDo=     1
 LinEq1:  Iter=  2 NonCon=     1 RMS=2.73D-05 Max=6.54D-04 NDo=     1
 LinEq1:  Iter=  3 NonCon=     1 RMS=7.85D-06 Max=1.98D-04 NDo=     1
 LinEq1:  Iter=  4 NonCon=     1 RMS=2.97D-06 Max=5.26D-05 NDo=     1
 LinEq1:  Iter=  5 NonCon=     1 RMS=8.56D-07 Max=1.36D-05 NDo=     1
 LinEq1:  Iter=  6 NonCon=     1 RMS=2.39D-07 Max=2.82D-06 NDo=     1
 LinEq1:  Iter=  7 NonCon=     1 RMS=5.59D-08 Max=1.16D-06 NDo=     1
 LinEq1:  Iter=  8 NonCon=     1 RMS=1.59D-08 Max=3.16D-07 NDo=     1
 LinEq1:  Iter=  9 NonCon=     1 RMS=6.21D-09 Max=1.33D-07 NDo=     1
 LinEq1:  Iter= 10 NonCon=     0 RMS=2.18D-09 Max=4.94D-08 NDo=     1
 Linear equations converged to 1.032D-08 1.032D-07 after    10 iterations.
     Accept linear search using points  1 and  2.
     Minimum is close to point  2 DX= -3.50D-02 DF= -8.01D-07 DXR=  3.63D-02 DFR=  1.35D-03 which will be used.
 LinEq1:  Iter=  0 NonCon=     1 RMS=1.56D-05 Max=4.44D-04 NDo=     1
 LinEq1:  Iter=  1 NonCon=     1 RMS=6.38D-06 Max=2.40D-04 NDo=     1
 LinEq1:  Iter=  2 NonCon=     1 RMS=2.47D-06 Max=4.44D-05 NDo=     1
 LinEq1:  Iter=  3 NonCon=     1 RMS=8.77D-07 Max=2.25D-05 NDo=     1
 LinEq1:  Iter=  4 NonCon=     1 RMS=4.01D-07 Max=1.00D-05 NDo=     1
 LinEq1:  Iter=  5 NonCon=     1 RMS=1.28D-07 Max=2.24D-06 NDo=     1
 LinEq1:  Iter=  6 NonCon=     1 RMS=4.01D-08 Max=7.65D-07 NDo=     1
 LinEq1:  Iter=  7 NonCon=     1 RMS=1.41D-08 Max=2.65D-07 NDo=     1
 LinEq1:  Iter=  8 NonCon=     1 RMS=4.18D-09 Max=1.27D-07 NDo=     1
 LinEq1:  Iter=  9 NonCon=     0 RMS=1.57D-09 Max=3.53D-08 NDo=     1
 Linear equations converged to 5.146D-09 5.146D-08 after     9 iterations.
     Minimum is close to point  2 DX=  5.33D-03 DF= -5.40D-11 DXR=  5.30D-03 DFR=  2.81D-05 which will be used.
 LinEq1:  Iter=  0 NonCon=     1 RMS=1.11D-07 Max=4.29D-06 NDo=     1
 LinEq1:  Iter=  1 NonCon=     1 RMS=5.49D-08 Max=1.74D-06 NDo=     1
 LinEq1:  Iter=  2 NonCon=     1 RMS=1.76D-08 Max=3.61D-07 NDo=     1
 LinEq1:  Iter=  3 NonCon=     1 RMS=8.43D-09 Max=3.03D-07 NDo=     1
 LinEq1:  Iter=  4 NonCon=     1 RMS=3.56D-09 Max=1.01D-07 NDo=     1
 LinEq1:  Iter=  5 NonCon=     1 RMS=1.37D-09 Max=3.74D-08 NDo=     1
 LinEq1:  Iter=  6 NonCon=     1 RMS=3.49D-10 Max=6.04D-09 NDo=     1
 LinEq1:  Iter=  7 NonCon=     1 RMS=1.30D-10 Max=2.36D-09 NDo=     1
 LinEq1:  Iter=  8 NonCon=     1 RMS=4.10D-11 Max=8.56D-10 NDo=     1
 LinEq1:  Iter=  9 NonCon=     0 RMS=1.57D-11 Max=3.56D-10 NDo=     1
 Linear equations converged to 4.124D-11 4.124D-10 after     9 iterations.
 SCF Done:  E(RPM6) =   1.24452918451     a.u. after   11 cycles
            Convg  =    0.3984D-07                    52 Fock formations.
              S**2 =  0.0000                  -V/T =  1.0117

 **********************************************************************

            Population analysis using the SCF density.

 **********************************************************************

 Orbital symmetries:
       Occupied  (A) (A) (A) (A) (A) (A) (A) (A) (A) (A) (A) (A)
                 (A) (A) (A) (A) (A) (A) (A) (A) (A) (A) (A) (A)
                 (A) (A) (A) (A) (A) (A) (A) (A) (A) (A) (A) (A)
                 (A) (A) (A) (A) (A) (A) (A) (A) (A) (A) (A) (A)
                 (A) (A) (A) (A) (A) (A) (A) (A) (A) (A) (A) (A)
                 (A) (A) (A) (A) (A) (A) (A) (A) (A) (A) (A) (A)
                 (A) (A) (A) (A)
       Virtual   (A) (A) (A) (A) (A) (A) (A) (A) (A) (A) (A) (A)
                 (A) (A) (A) (A) (A) (A) (A) (A) (A) (A) (A) (A)
                 (A) (A) (A) (A) (A) (A) (A) (A) (A) (A) (A) (A)
                 (A) (A) (A) (A) (A) (A) (A) (A) (A) (A) (A) (A)
                 (A) (A) (A) (A) (A) (A) (A) (A) (A) (A) (A) (A)
                 (A) (A) (A) (A) (A) (A) (A) (A) (A) (A)
 The electronic state is 1-A.
 Alpha  occ. eigenvalues --   -1.16752  -1.07942  -1.06981  -1.06340  -1.04050
 Alpha  occ. eigenvalues --   -1.02943  -1.02011  -1.01692  -0.98529  -0.96759
 Alpha  occ. eigenvalues --   -0.96015  -0.94980  -0.93717  -0.92648  -0.90615
 Alpha  occ. eigenvalues --   -0.88915  -0.87098  -0.83059  -0.82038  -0.81148
 Alpha  occ. eigenvalues --   -0.80458  -0.79174  -0.76553  -0.75297  -0.73297
 Alpha  occ. eigenvalues --   -0.70891  -0.69669  -0.67626  -0.67270  -0.64055
 Alpha  occ. eigenvalues --   -0.63709  -0.61207  -0.59657  -0.59188  -0.58925
 Alpha  occ. eigenvalues --   -0.57639  -0.57231  -0.56377  -0.55734  -0.55323
 Alpha  occ. eigenvalues --   -0.54505  -0.53045  -0.52611  -0.51403  -0.51258
 Alpha  occ. eigenvalues --   -0.50634  -0.50435  -0.50077  -0.49218  -0.48918
 Alpha  occ. eigenvalues --   -0.48302  -0.48141  -0.48008  -0.47597  -0.47296
 Alpha  occ. eigenvalues --   -0.46425  -0.45886  -0.45529  -0.45006  -0.44233
 Alpha  occ. eigenvalues --   -0.44209  -0.43497  -0.42075  -0.41149  -0.40924
 Alpha  occ. eigenvalues --   -0.40074  -0.39248  -0.37727  -0.37524  -0.35887
 Alpha  occ. eigenvalues --   -0.35039  -0.34811  -0.33893  -0.32852  -0.28555
 Alpha  occ. eigenvalues --   -0.27906
 Alpha virt. eigenvalues --   -0.11726  -0.09251  -0.07019  -0.05895  -0.04472
 Alpha virt. eigenvalues --   -0.04227  -0.03751  -0.02321  -0.01015   0.00064
 Alpha virt. eigenvalues --    0.00474   0.02083   0.02376   0.02545   0.03401
 Alpha virt. eigenvalues --    0.03750   0.05933   0.08320   0.08360   0.09975
 Alpha virt. eigenvalues --    0.10046   0.10191   0.10515   0.10844   0.11022
 Alpha virt. eigenvalues --    0.11070   0.11623   0.11787   0.11958   0.12010
 Alpha virt. eigenvalues --    0.12551   0.12758   0.12773   0.12829   0.13059
 Alpha virt. eigenvalues --    0.13156   0.13245   0.13509   0.13659   0.14113
 Alpha virt. eigenvalues --    0.14252   0.14318   0.14461   0.14664   0.14802
 Alpha virt. eigenvalues --    0.14850   0.15093   0.15163   0.15774   0.16018
 Alpha virt. eigenvalues --    0.16113   0.16560   0.16929   0.17240   0.17387
 Alpha virt. eigenvalues --    0.18728   0.18885   0.18941   0.19441   0.19992
 Alpha virt. eigenvalues --    0.20226   0.20345   0.20472   0.20607   0.20753
 Alpha virt. eigenvalues --    0.21061   0.21112   0.21223   0.21655   0.21956
          Condensed to atoms (all electrons):
               1          2          3          4          5          6
     1  C    4.115818   0.000000   0.000000   0.000000   0.000000   0.000000
     2  C    0.000000   4.134994   0.000000   0.000000   0.000000   0.000000
     3  C    0.000000   0.000000   3.927337   0.000000   0.000000   0.000000
     4  C    0.000000   0.000000   0.000000   3.930975   0.000000   0.000000
     5  C    0.000000   0.000000   0.000000   0.000000   4.107195   0.000000
     6  C    0.000000   0.000000   0.000000   0.000000   0.000000   4.170329
     7  C    0.000000   0.000000   0.000000   0.000000   0.000000   0.000000
     8  C    0.000000   0.000000   0.000000   0.000000   0.000000   0.000000
     9  C    0.000000   0.000000   0.000000   0.000000   0.000000   0.000000
    10  C    0.000000   0.000000   0.000000   0.000000   0.000000   0.000000
    11  C    0.000000   0.000000   0.000000   0.000000   0.000000   0.000000
    12  C    0.000000   0.000000   0.000000   0.000000   0.000000   0.000000
    13  C    0.000000   0.000000   0.000000   0.000000   0.000000   0.000000
    14  C    0.000000   0.000000   0.000000   0.000000   0.000000   0.000000
    15  C    0.000000   0.000000   0.000000   0.000000   0.000000   0.000000
    16  C    0.000000   0.000000   0.000000   0.000000   0.000000   0.000000
    17  C    0.000000   0.000000   0.000000   0.000000   0.000000   0.000000
    18  C    0.000000   0.000000   0.000000   0.000000   0.000000   0.000000
    19  C    0.000000   0.000000   0.000000   0.000000   0.000000   0.000000
    20  C    0.000000   0.000000   0.000000   0.000000   0.000000   0.000000
    21  C    0.000000   0.000000   0.000000   0.000000   0.000000   0.000000
    22  C    0.000000   0.000000   0.000000   0.000000   0.000000   0.000000
    23  C    0.000000   0.000000   0.000000   0.000000   0.000000   0.000000
    24  C    0.000000   0.000000   0.000000   0.000000   0.000000   0.000000
    25  C    0.000000   0.000000   0.000000   0.000000   0.000000   0.000000
    26  C    0.000000   0.000000   0.000000   0.000000   0.000000   0.000000
    27  C    0.000000   0.000000   0.000000   0.000000   0.000000   0.000000
    28  C    0.000000   0.000000   0.000000   0.000000   0.000000   0.000000
    29  C    0.000000   0.000000   0.000000   0.000000   0.000000   0.000000
    30  H    0.000000   0.000000   0.000000   0.000000   0.000000   0.000000
    31  H    0.000000   0.000000   0.000000   0.000000   0.000000   0.000000
    32  H    0.000000   0.000000   0.000000   0.000000   0.000000   0.000000
    33  H    0.000000   0.000000   0.000000   0.000000   0.000000   0.000000
    34  H    0.000000   0.000000   0.000000   0.000000   0.000000   0.000000
    35  H    0.000000   0.000000   0.000000   0.000000   0.000000   0.000000
    36  H    0.000000   0.000000   0.000000   0.000000   0.000000   0.000000
    37  H    0.000000   0.000000   0.000000   0.000000   0.000000   0.000000
    38  H    0.000000   0.000000   0.000000   0.000000   0.000000   0.000000
    39  H    0.000000   0.000000   0.000000   0.000000   0.000000   0.000000
    40  H    0.000000   0.000000   0.000000   0.000000   0.000000   0.000000
    41  H    0.000000   0.000000   0.000000   0.000000   0.000000   0.000000
    42  H    0.000000   0.000000   0.000000   0.000000   0.000000   0.000000
    43  H    0.000000   0.000000   0.000000   0.000000   0.000000   0.000000
    44  N    0.000000   0.000000   0.000000   0.000000   0.000000   0.000000
    45  N    0.000000   0.000000   0.000000   0.000000   0.000000   0.000000
    46  O    0.000000   0.000000   0.000000   0.000000   0.000000   0.000000
    47  O    0.000000   0.000000   0.000000   0.000000   0.000000   0.000000
               7          8          9         10         11         12
     1  C    0.000000   0.000000   0.000000   0.000000   0.000000   0.000000
     2  C    0.000000   0.000000   0.000000   0.000000   0.000000   0.000000
     3  C    0.000000   0.000000   0.000000   0.000000   0.000000   0.000000
     4  C    0.000000   0.000000   0.000000   0.000000   0.000000   0.000000
     5  C    0.000000   0.000000   0.000000   0.000000   0.000000   0.000000
     6  C    0.000000   0.000000   0.000000   0.000000   0.000000   0.000000
     7  C    4.171912   0.000000   0.000000   0.000000   0.000000   0.000000
     8  C    0.000000   4.014478   0.000000   0.000000   0.000000   0.000000
     9  C    0.000000   0.000000   4.052173   0.000000   0.000000   0.000000
    10  C    0.000000   0.000000   0.000000   4.089251   0.000000   0.000000
    11  C    0.000000   0.000000   0.000000   0.000000   4.102983   0.000000
    12  C    0.000000   0.000000   0.000000   0.000000   0.000000   4.161528
    13  C    0.000000   0.000000   0.000000   0.000000   0.000000   0.000000
    14  C    0.000000   0.000000   0.000000   0.000000   0.000000   0.000000
    15  C    0.000000   0.000000   0.000000   0.000000   0.000000   0.000000
    16  C    0.000000   0.000000   0.000000   0.000000   0.000000   0.000000
    17  C    0.000000   0.000000   0.000000   0.000000   0.000000   0.000000
    18  C    0.000000   0.000000   0.000000   0.000000   0.000000   0.000000
    19  C    0.000000   0.000000   0.000000   0.000000   0.000000   0.000000
    20  C    0.000000   0.000000   0.000000   0.000000   0.000000   0.000000
    21  C    0.000000   0.000000   0.000000   0.000000   0.000000   0.000000
    22  C    0.000000   0.000000   0.000000   0.000000   0.000000   0.000000
    23  C    0.000000   0.000000   0.000000   0.000000   0.000000   0.000000
    24  C    0.000000   0.000000   0.000000   0.000000   0.000000   0.000000
    25  C    0.000000   0.000000   0.000000   0.000000   0.000000   0.000000
    26  C    0.000000   0.000000   0.000000   0.000000   0.000000   0.000000
    27  C    0.000000   0.000000   0.000000   0.000000   0.000000   0.000000
    28  C    0.000000   0.000000   0.000000   0.000000   0.000000   0.000000
    29  C    0.000000   0.000000   0.000000   0.000000   0.000000   0.000000
    30  H    0.000000   0.000000   0.000000   0.000000   0.000000   0.000000
    31  H    0.000000   0.000000   0.000000   0.000000   0.000000   0.000000
    32  H    0.000000   0.000000   0.000000   0.000000   0.000000   0.000000
    33  H    0.000000   0.000000   0.000000   0.000000   0.000000   0.000000
    34  H    0.000000   0.000000   0.000000   0.000000   0.000000   0.000000
    35  H    0.000000   0.000000   0.000000   0.000000   0.000000   0.000000
    36  H    0.000000   0.000000   0.000000   0.000000   0.000000   0.000000
    37  H    0.000000   0.000000   0.000000   0.000000   0.000000   0.000000
    38  H    0.000000   0.000000   0.000000   0.000000   0.000000   0.000000
    39  H    0.000000   0.000000   0.000000   0.000000   0.000000   0.000000
    40  H    0.000000   0.000000   0.000000   0.000000   0.000000   0.000000
    41  H    0.000000   0.000000   0.000000   0.000000   0.000000   0.000000
    42  H    0.000000   0.000000   0.000000   0.000000   0.000000   0.000000
    43  H    0.000000   0.000000   0.000000   0.000000   0.000000   0.000000
    44  N    0.000000   0.000000   0.000000   0.000000   0.000000   0.000000
    45  N    0.000000   0.000000   0.000000   0.000000   0.000000   0.000000
    46  O    0.000000   0.000000   0.000000   0.000000   0.000000   0.000000
    47  O    0.000000   0.000000   0.000000   0.000000   0.000000   0.000000
              13         14         15         16         17         18
     1  C    0.000000   0.000000   0.000000   0.000000   0.000000   0.000000
     2  C    0.000000   0.000000   0.000000   0.000000   0.000000   0.000000
     3  C    0.000000   0.000000   0.000000   0.000000   0.000000   0.000000
     4  C    0.000000   0.000000   0.000000   0.000000   0.000000   0.000000
     5  C    0.000000   0.000000   0.000000   0.000000   0.000000   0.000000
     6  C    0.000000   0.000000   0.000000   0.000000   0.000000   0.000000
     7  C    0.000000   0.000000   0.000000   0.000000   0.000000   0.000000
     8  C    0.000000   0.000000   0.000000   0.000000   0.000000   0.000000
     9  C    0.000000   0.000000   0.000000   0.000000   0.000000   0.000000
    10  C    0.000000   0.000000   0.000000   0.000000   0.000000   0.000000
    11  C    0.000000   0.000000   0.000000   0.000000   0.000000   0.000000
    12  C    0.000000   0.000000   0.000000   0.000000   0.000000   0.000000
    13  C    3.689495   0.000000   0.000000   0.000000   0.000000   0.000000
    14  C    0.000000   3.700951   0.000000   0.000000   0.000000   0.000000
    15  C    0.000000   0.000000   4.055183   0.000000   0.000000   0.000000
    16  C    0.000000   0.000000   0.000000   3.750386   0.000000   0.000000
    17  C    0.000000   0.000000   0.000000   0.000000   3.753464   0.000000
    18  C    0.000000   0.000000   0.000000   0.000000   0.000000   4.045080
    19  C    0.000000   0.000000   0.000000   0.000000   0.000000   0.000000
    20  C    0.000000   0.000000   0.000000   0.000000   0.000000   0.000000
    21  C    0.000000   0.000000   0.000000   0.000000   0.000000   0.000000
    22  C    0.000000   0.000000   0.000000   0.000000   0.000000   0.000000
    23  C    0.000000   0.000000   0.000000   0.000000   0.000000   0.000000
    24  C    0.000000   0.000000   0.000000   0.000000   0.000000   0.000000
    25  C    0.000000   0.000000   0.000000   0.000000   0.000000   0.000000
    26  C    0.000000   0.000000   0.000000   0.000000   0.000000   0.000000
    27  C    0.000000   0.000000   0.000000   0.000000   0.000000   0.000000
    28  C    0.000000   0.000000   0.000000   0.000000   0.000000   0.000000
    29  C    0.000000   0.000000   0.000000   0.000000   0.000000   0.000000
    30  H    0.000000   0.000000   0.000000   0.000000   0.000000   0.000000
    31  H    0.000000   0.000000   0.000000   0.000000   0.000000   0.000000
    32  H    0.000000   0.000000   0.000000   0.000000   0.000000   0.000000
    33  H    0.000000   0.000000   0.000000   0.000000   0.000000   0.000000
    34  H    0.000000   0.000000   0.000000   0.000000   0.000000   0.000000
    35  H    0.000000   0.000000   0.000000   0.000000   0.000000   0.000000
    36  H    0.000000   0.000000   0.000000   0.000000   0.000000   0.000000
    37  H    0.000000   0.000000   0.000000   0.000000   0.000000   0.000000
    38  H    0.000000   0.000000   0.000000   0.000000   0.000000   0.000000
    39  H    0.000000   0.000000   0.000000   0.000000   0.000000   0.000000
    40  H    0.000000   0.000000   0.000000   0.000000   0.000000   0.000000
    41  H    0.000000   0.000000   0.000000   0.000000   0.000000   0.000000
    42  H    0.000000   0.000000   0.000000   0.000000   0.000000   0.000000
    43  H    0.000000   0.000000   0.000000   0.000000   0.000000   0.000000
    44  N    0.000000   0.000000   0.000000   0.000000   0.000000   0.000000
    45  N    0.000000   0.000000   0.000000   0.000000   0.000000   0.000000
    46  O    0.000000   0.000000   0.000000   0.000000   0.000000   0.000000
    47  O    0.000000   0.000000   0.000000   0.000000   0.000000   0.000000
              19         20         21         22         23         24
     1  C    0.000000   0.000000   0.000000   0.000000   0.000000   0.000000
     2  C    0.000000   0.000000   0.000000   0.000000   0.000000   0.000000
     3  C    0.000000   0.000000   0.000000   0.000000   0.000000   0.000000
     4  C    0.000000   0.000000   0.000000   0.000000   0.000000   0.000000
     5  C    0.000000   0.000000   0.000000   0.000000   0.000000   0.000000
     6  C    0.000000   0.000000   0.000000   0.000000   0.000000   0.000000
     7  C    0.000000   0.000000   0.000000   0.000000   0.000000   0.000000
     8  C    0.000000   0.000000   0.000000   0.000000   0.000000   0.000000
     9  C    0.000000   0.000000   0.000000   0.000000   0.000000   0.000000
    10  C    0.000000   0.000000   0.000000   0.000000   0.000000   0.000000
    11  C    0.000000   0.000000   0.000000   0.000000   0.000000   0.000000
    12  C    0.000000   0.000000   0.000000   0.000000   0.000000   0.000000
    13  C    0.000000   0.000000   0.000000   0.000000   0.000000   0.000000
    14  C    0.000000   0.000000   0.000000   0.000000   0.000000   0.000000
    15  C    0.000000   0.000000   0.000000   0.000000   0.000000   0.000000
    16  C    0.000000   0.000000   0.000000   0.000000   0.000000   0.000000
    17  C    0.000000   0.000000   0.000000   0.000000   0.000000   0.000000
    18  C    0.000000   0.000000   0.000000   0.000000   0.000000   0.000000
    19  C    3.950483   0.000000   0.000000   0.000000   0.000000   0.000000
    20  C    0.000000   3.963781   0.000000   0.000000   0.000000   0.000000
    21  C    0.000000   0.000000   4.129328   0.000000   0.000000   0.000000
    22  C    0.000000   0.000000   0.000000   4.099227   0.000000   0.000000
    23  C    0.000000   0.000000   0.000000   0.000000   4.097771   0.000000
    24  C    0.000000   0.000000   0.000000   0.000000   0.000000   4.064668
    25  C    0.000000   0.000000   0.000000   0.000000   0.000000   0.000000
    26  C    0.000000   0.000000   0.000000   0.000000   0.000000   0.000000
    27  C    0.000000   0.000000   0.000000   0.000000   0.000000   0.000000
    28  C    0.000000   0.000000   0.000000   0.000000   0.000000   0.000000
    29  C    0.000000   0.000000   0.000000   0.000000   0.000000   0.000000
    30  H    0.000000   0.000000   0.000000   0.000000   0.000000   0.000000
    31  H    0.000000   0.000000   0.000000   0.000000   0.000000   0.000000
    32  H    0.000000   0.000000   0.000000   0.000000   0.000000   0.000000
    33  H    0.000000   0.000000   0.000000   0.000000   0.000000   0.000000
    34  H    0.000000   0.000000   0.000000   0.000000   0.000000   0.000000
    35  H    0.000000   0.000000   0.000000   0.000000   0.000000   0.000000
    36  H    0.000000   0.000000   0.000000   0.000000   0.000000   0.000000
    37  H    0.000000   0.000000   0.000000   0.000000   0.000000   0.000000
    38  H    0.000000   0.000000   0.000000   0.000000   0.000000   0.000000
    39  H    0.000000   0.000000   0.000000   0.000000   0.000000   0.000000
    40  H    0.000000   0.000000   0.000000   0.000000   0.000000   0.000000
    41  H    0.000000   0.000000   0.000000   0.000000   0.000000   0.000000
    42  H    0.000000   0.000000   0.000000   0.000000   0.000000   0.000000
    43  H    0.000000   0.000000   0.000000   0.000000   0.000000   0.000000
    44  N    0.000000   0.000000   0.000000   0.000000   0.000000   0.000000
    45  N    0.000000   0.000000   0.000000   0.000000   0.000000   0.000000
    46  O    0.000000   0.000000   0.000000   0.000000   0.000000   0.000000
    47  O    0.000000   0.000000   0.000000   0.000000   0.000000   0.000000
              25         26         27         28         29         30
     1  C    0.000000   0.000000   0.000000   0.000000   0.000000   0.000000
     2  C    0.000000   0.000000   0.000000   0.000000   0.000000   0.000000
     3  C    0.000000   0.000000   0.000000   0.000000   0.000000   0.000000
     4  C    0.000000   0.000000   0.000000   0.000000   0.000000   0.000000
[...]
 03839,0.00014933,0.00048377,0.00006550,-0.00010292,0.00117865,0.000233
 04,-0.00020039,-0.00004967,0.00001185,0.00010827,-0.00001916,-0.000039
 52,0.68437190,-0.00288103,-0.00129418,-0.00042047,-0.00189654,-0.00041
 507,-0.00060248,0.00367697,0.01968347,0.00078194,-0.01021414,-0.002702
 24,0.00105756,-0.00212340,-0.00404464,-0.00009719,0.00702543,-0.004472
 04,-0.00068161,0.00614040,0.00133983,-0.00083569,-0.00072717,-0.003657
 71,-0.00002828,-0.00824530,0.00665670,-0.00124456,-0.02625694,-0.03855
 277,-0.00088449,0.01115474,0.01461277,0.00103867,-0.00229310,-0.008427
 46,0.00028130,-0.01915152,-0.24531607,0.01071944,0.07461764,-0.1312772
 0,0.01429616,0.00663340,-0.00297370,0.00101693,-0.01634800,-0.02484848
 ,-0.00310464,-0.06845469,-0.13923760,-0.00183741,0.01225594,-0.0020193
 0,0.00137785,0.00236424,-0.00903583,-0.00117567,0.01010700,0.00649165,
 0.00075799,0.00110312,-0.00388452,0.00054388,0.06159874,-0.06573880,0.
 00962632,0.02408896,-0.04580714,0.00655962,0.00117364,0.00252653,0.000
 61214,-0.01625709,0.02371817,-0.00258419,-0.03632614,-0.02899546,-0.00
 107129,-0.00172843,0.00579306,0.00079694,-0.00444652,0.00330351,0.0004
 3501,0.00073696,-0.00138316,0.00033577,0.00001367,-0.00032630,-0.00002
 611,0.00162242,0.00105965,-0.00032505,0.00023461,0.00015264,-0.0001014
 1,-0.00062569,-0.00006737,-0.00009969,-0.00000434,-0.00034338,0.000070
 51,0.00067769,-0.00036533,0.00010652,-0.00058798,0.00034659,-0.0001205
 9,-0.00011559,0.00031161,0.00000348,0.00004675,-0.00021478,-0.00011000
 ,0.00020158,-0.00022572,0.00012725,-0.00023093,-0.00028428,0.00010444,
 0.00039846,0.00182289,0.00030084,-0.00023274,-0.00021732,0.00002428,-0
 .00001966,0.00008582,0.00002368,-0.01002336,0.67414948,-0.00055846,-0.
 00003221,0.00232020,-0.00011946,-0.00002042,-0.00004826,-0.00107187,-0
 .00119147,0.00340265,0.00016804,0.00007261,0.00008108,-0.00011893,0.00
 002684,0.00002074,-0.00039429,0.00040802,0.00017026,0.00000902,-0.0000
 1232,0.00002366,-0.00107958,0.00167054,-0.00021381,-0.00021647,-0.0000
 7961,0.00304392,0.00190725,-0.00216519,0.00317065,-0.00880644,-0.00165
 412,0.00247418,-0.00045450,0.00018806,-0.00002050,-0.00566727,0.008739
 74,-0.03994700,-0.02876519,0.01627856,-0.04100605,0.00006732,0.0001365
 1,0.00306432,-0.00030089,-0.00008712,-0.00143712,-0.01228376,-0.001168
 73,-0.04012981,-0.00191302,0.00007060,-0.00021581,0.00006075,-0.000335
 31,0.00006042,0.00067688,0.00163713,0.00342510,-0.00025564,0.00041612,
 0.00233196,-0.00393892,0.00861794,0.00377585,-0.00271584,0.00819784,0.
 00260197,0.00018115,-0.00007901,-0.00005061,-0.01028766,-0.00056691,0.
 00360068,0.00235597,-0.00118209,0.00317702,-0.00001378,0.00009142,0.00
 003719,-0.00064523,0.00019338,0.00017680,-0.00003084,0.00008847,-0.000
 03961,-0.00002657,-0.00000150,-0.00000626,-0.00005843,0.00005422,-0.00
 028819,-0.00001391,-0.00003664,-0.00033403,0.00010951,0.00003470,-0.00
 018101,-0.00000067,0.00004039,-0.00016910,-0.00003247,0.00005382,-0.00
 020879,0.00018482,-0.00010299,-0.00048968,-0.00006751,0.00000956,-0.00
 020995,-0.00003609,-0.00002059,-0.00017100,0.00002930,-0.00011646,-0.0
 0018042,0.00002548,0.00003414,-0.00033169,-0.00007009,0.00005691,-0.00
 028342,-0.00001603,0.00002095,-0.00000569,0.00002734,-0.00001508,-0.00
 001924,0.07439106,-0.03846820,0.09089865,-0.00049540,0.00006550,0.0003
 1624,0.00038381,-0.00003255,0.00018733,0.00066396,-0.00129704,0.000465
 46,0.00204244,0.00277911,0.00040699,0.00067331,-0.00054613,-0.00023549
 ,-0.00241250,-0.00029129,-0.00050319,0.00013341,0.00010872,0.00017934,
 0.00030761,-0.00127179,0.00030786,-0.00012493,0.00018771,0.00012194,-0
 .00139225,0.00019112,0.00008748,0.00015228,0.00088682,0.00022793,-0.00
 056358,-0.00034540,0.00013751,0.00456979,-0.00510937,-0.00281234,0.000
 03168,-0.00032781,-0.00139901,0.00088211,-0.00004921,0.00024612,0.0234
 5488,-0.00439632,0.06191569,0.00999754,-0.00104415,-0.00274651,0.00199
 283,0.00057836,0.00037185,-0.00113049,-0.00339379,0.00028568,0.0015165
 3,0.00041172,0.00066774,-0.00028192,0.00043382,0.00026587,-0.01055903,
 0.00110367,-0.00215836,-0.00156515,-0.00011590,0.00010222,0.00490207,-
 0.00283946,-0.00831037,-0.00773018,0.00998579,-0.00489714,-0.00128677,
 0.00149134,0.00016018,-0.00016159,0.00010285,0.00023131,-0.00101291,0.
 00226234,-0.00041573,0.00033173,-0.00028745,0.00017053,-0.00002898,-0.
 00011181,0.00005327,0.00010551,0.00001464,0.00006373,-0.00006405,-0.00
 001843,-0.00011170,0.00002140,-0.00029540,-0.00020918,-0.00001322,-0.0
 0053097,-0.00028488,0.00005042,-0.00026656,-0.00013496,0.00023541,-0.0
 0013500,-0.00009551,0.00026321,0.00010675,-0.00013383,0.00037833,0.000
 21832,-0.00028832,0.00026397,0.00013762,-0.00022756,-0.00000705,0.0000
 4945,-0.00012739,0.00004389,-0.00006518,0.00009387,0.00008038,0.000073
 99,0.00006293,-0.00036332,0.00021010,0.00008314,-0.00542262,0.00107006
 ,0.00245042,0.68100462,0.00031181,0.00000994,-0.00012086,-0.00025636,0
 .00015001,-0.00009159,-0.00007738,0.00102884,-0.00047930,-0.00157835,-
 0.00148887,-0.00014192,-0.00055065,0.00004793,0.00013559,0.00146437,0.
 00011135,0.00020939,0.00027285,-0.00004038,-0.00017083,-0.00038907,0.0
 0160559,-0.00022932,-0.00062905,0.00096861,-0.00020775,0.00143528,-0.0
 0032029,-0.00012230,0.00087482,-0.00112534,0.00000011,-0.00034459,-0.0
 0096283,-0.00008851,-0.00419786,0.00644857,0.00162444,-0.00034482,-0.0
 0036804,0.00080208,0.00076937,-0.00004316,0.00000278,-0.00419847,0.019
 42589,-0.03534310,-0.00202980,0.00100184,0.00164767,-0.00030523,-0.000
 08641,-0.00015660,0.00096085,0.00171044,-0.00024046,-0.00081862,0.0001
 6355,-0.00015749,0.00018879,-0.00020335,-0.00021632,0.00833837,-0.0014
 3959,0.00447426,-0.00009678,0.00060192,-0.00019092,-0.00292524,0.00153
 843,0.00490839,0.00272867,-0.00422822,-0.00041527,0.00025494,-0.000425
 09,-0.00001706,-0.00005525,0.00025686,-0.00007890,0.00051656,-0.001297
 89,0.00031229,-0.00005997,0.00020245,-0.00011672,0.00001128,0.00005922
 ,-0.00003903,-0.00002883,0.00001627,-0.00007071,0.00001629,0.00000936,
 0.00008432,-0.00000367,0.00017005,0.00014686,-0.00000877,0.00019470,0.
 00017510,-0.00001645,0.00016978,0.00008042,-0.00013636,0.00007949,0.00
 005509,-0.00014542,-0.00004316,0.00007529,-0.00030885,-0.00019702,0.00
 015524,-0.00015767,-0.00007208,0.00010640,0.00001336,-0.00004853,0.000
 05544,-0.00002011,0.00007750,-0.00001746,-0.00004841,-0.00004926,-0.00
 002579,0.00021225,-0.00012148,-0.00004728,0.00110359,-0.00417834,-0.00
 144566,-0.37039485,0.25699038,0.00023713,-0.00016472,0.00003494,-0.000
 06608,0.00007656,0.00013087,0.00080482,-0.00137806,-0.00086865,0.00122
 664,0.00093937,-0.00122949,0.00045964,-0.00026743,-0.00015452,-0.00120
 864,0.00023701,0.00063274,-0.00007124,0.00040137,0.00089599,0.00024435
 ,-0.00046364,0.00004727,0.00014809,-0.00005202,-0.00001288,-0.00018564
 ,0.00021272,-0.00013368,0.00000811,0.00037915,-0.00005931,-0.00018360,
 0.00009768,-0.00005943,0.00121236,-0.00158632,-0.00133714,0.00024109,-
 0.00014825,0.00046212,0.00013387,-0.00010326,-0.00001164,0.03615857,-0
 .02041560,-0.04962706,0.00203302,-0.00024092,-0.00132664,0.00053340,0.
 00002134,0.00005189,-0.00019068,-0.00152068,-0.00125017,0.00160341,0.0
 0000325,-0.00085551,0.00026119,-0.00012344,0.00003438,-0.00118627,0.00
 121161,0.00216392,-0.00033603,-0.00018894,-0.00006546,0.00213798,-0.00
 114492,-0.01164097,-0.00167739,0.00041825,0.00212249,-0.00028187,0.000
 06185,-0.00013435,-0.00039215,-0.00014405,0.00089247,-0.00081306,0.000
 92369,0.00063914,-0.00009874,0.00001810,0.00013038,0.00006040,0.000057
 92,-0.00015866,-0.00001416,0.00000788,-0.00016027,-0.00006779,-0.00004
 598,-0.00007930,0.00000475,0.00003443,-0.00000458,-0.00000851,0.000002
 73,0.00002402,-0.00000642,0.00000990,0.00001898,0.00005940,-0.00003460
 ,0.00003094,-0.00001182,0.00000065,0.00001887,-0.00000783,0.00000491,0
 .00002385,-0.00002751,-0.00002114,-0.00000543,0.00000677,0.00008237,-0
 .00007852,-0.00001272,0.00001068,-0.00015994,-0.00001903,-0.00007943,-
 0.00015969,-0.00014110,0.00008258,-0.00011045,-0.00193645,0.00109604,-
 0.00031275,0.02570473,-0.01753868,0.36913082,0.00040822,-0.00004496,-0
 .00022974,-0.00034876,0.00008395,-0.00015355,-0.00027836,0.00110463,-0
 .00033196,-0.00150546,-0.00179783,-0.00023786,-0.00057997,0.00042982,0
 .00019266,0.00163403,0.00017978,0.00029689,-0.00003679,-0.00010389,-0.
 00013127,-0.00021726,0.00109223,-0.00023424,-0.00000376,0.00005251,-0.
 00011543,0.00102413,-0.00018531,0.00005070,0.00012448,-0.00075384,-0.0
 0014211,0.00034514,0.00008659,-0.00010430,-0.00318256,0.00377548,0.001
 35537,-0.00034932,0.00036426,0.00098791,-0.00048863,0.00002320,-0.0001
 6064,-0.01173856,0.00102007,-0.02329662,-0.00654811,0.00050276,0.00210
 752,-0.00134827,-0.00046166,-0.00024542,0.00061840,0.00218440,-0.00017
 136,-0.00095130,-0.00034481,-0.00032940,0.00019655,-0.00034029,-0.0001
 6381,0.00588835,-0.00121133,0.00063713,0.00103424,0.00008426,-0.000076
 51,-0.00215257,0.00150076,0.00525680,0.00433793,-0.00567558,0.00374843
 ,0.00088144,-0.00094216,-0.00000426,0.00017494,-0.00003978,-0.00015532
 ,0.00062281,-0.00148756,0.00020937,-0.00029416,0.00022261,-0.00013949,
 0.00002339,0.00007784,-0.00002736,-0.00004827,0.00000594,-0.00002765,0
 .00007525,0.00002151,0.00009223,-0.00001440,0.00022025,0.00013429,0.00
 001557,0.00040254,0.00017825,-0.00003948,0.00021393,0.00009606,-0.0001
 9142,0.00010919,0.00007006,-0.00021611,-0.00008963,0.00010270,-0.00031
 247,-0.00019104,0.00020645,-0.00020746,-0.00010179,0.00017121,0.000010
 76,-0.00005787,0.00010417,-0.00002977,0.00005743,-0.00003878,-0.000062
 08,-0.00005965,-0.00003589,0.00029445,-0.00016980,-0.00006740,0.003730
 70,-0.00129797,-0.00235376,-0.56372874,0.31577903,-0.13356106,0.670032
 59,-0.00022044,-0.00002717,0.00005413,0.00019137,-0.00012002,0.0000741
 4,0.00003996,-0.00052703,0.00017841,0.00096943,0.00084491,0.00009478,0
 .00043341,-0.00008745,-0.00011126,-0.00091159,-0.00012442,-0.00008689,
 -0.00016177,0.00009203,0.00010696,0.00018809,-0.00099534,0.00013273,0.
 00030229,-0.00044934,0.00011608,-0.00086525,0.00023521,0.00002826,-0.0
 0044086,0.00065279,0.00001591,0.00008544,0.00044528,0.00006450,0.00247
 275,-0.00408350,-0.00169652,0.00037504,0.00008566,-0.00057422,-0.00022
 707,0.00003778,0.00004196,0.00091594,-0.01093062,0.01347156,0.00187939
 ,-0.00071518,-0.00033155,0.00044662,0.00014255,0.00014311,-0.00058080,
 -0.00129830,0.00013728,0.00072446,0.00015527,0.00020628,-0.00016847,0.
 00018406,0.00017484,-0.00478308,0.00045329,-0.00399083,-0.00023563,-0.
 00026477,0.00011121,0.00155286,-0.00036252,-0.00307577,-0.00212908,0.0
 0196094,0.00145813,-0.00027076,0.00038070,-0.00005401,0.00001433,-0.00
 011994,0.00006309,-0.00040409,0.00089464,-0.00020545,0.00011430,-0.000
 17561,0.00009607,-0.00001057,-0.00005224,0.00002410,0.00004695,0.00000
 632,0.00002881,-0.00002022,-0.00000876,-0.00006845,0.00001061,-0.00013
 753,-0.00012420,-0.00000103,-0.00018906,-0.00014175,0.00001271,-0.0001
 4390,-0.00006659,0.00011037,-0.00006547,-0.00004073,0.00011372,0.00003
 335,-0.00004933,0.00021661,0.00014009,-0.00008195,0.00011089,0.0000557
 3,-0.00005393,-0.00001480,0.00005590,-0.00004602,0.00001629,-0.0000128
 8,0.00000910,0.00002869,0.00003310,0.00001194,-0.00017154,0.00009901,0
 .00003899,-0.00133221,0.00221962,0.00139230,0.31565040,-0.20423682,0.0
 7789575,-0.38207269,0.23328174,0.00001281,0.00002344,-0.00008115,-0.00
 009618,-0.00002336,-0.00007708,-0.00020367,0.00095525,-0.00007110,-0.0
 0088642,-0.00073781,0.00019506,-0.00034724,0.00020174,0.00011155,0.000
 86759,-0.00012625,-0.00005141,0.00007797,-0.00018676,-0.00030703,-0.00
 025205,0.00063228,-0.00010494,-0.00011660,0.00008382,-0.00006751,0.000
 54587,-0.00015619,-0.00008123,0.00003105,-0.00047570,-0.00003527,0.000
 12070,-0.00006676,-0.00001430,-0.00227405,0.00216066,0.00027325,-0.000
 01033,0.00000273,0.00059160,-0.00013489,0.00006068,-0.00006814,-0.0097
 1021,0.00559409,-0.00672430,-0.00302756,0.00088922,0.00027284,-0.00067
 646,-0.00009628,-0.00011061,0.00019406,0.00113391,0.00021043,-0.000927
 94,-0.00029845,-0.00008066,-0.00001404,-0.00002189,-0.00008073,0.00325
 344,-0.00225224,-0.00126746,0.00043159,0.00020869,-0.00002925,-0.00115
 116,0.00063609,0.00430559,0.00358858,-0.00169885,-0.00122615,0.0004104
 9,-0.00039631,-0.00008416,0.00020448,0.00002695,-0.00030566,0.00054186
 ,-0.00068901,-0.00005715,-0.00002759,0.00009540,-0.00007603,-0.0000432
 1,-0.00000260,0.00003353,-0.00005689,-0.00003850,0.00005035,0.00002217
 ,0.00001092,0.00004784,-0.00000687,0.00004487,0.00005625,0.00000230,0.
 00010574,0.00008260,-0.00001049,0.00004978,0.00002921,-0.00006474,0.00
 003732,0.00001795,-0.00004872,-0.00001624,0.00002878,-0.00009084,-0.00
 005538,0.00008170,-0.00004284,-0.00001711,0.00005623,0.00000114,-0.000
 02498,0.00004768,0.00000468,0.00006818,0.00005099,-0.00001958,0.000038
 39,0.00003377,0.00011585,-0.00006712,0.00000983,0.00185984,-0.00104999
 ,-0.00222149,-0.11735917,0.06850851,-0.08229378,0.06143658,-0.03608732
 ,0.07085293,0.00008159,-0.00004315,-0.00011964,-0.00012092,-0.00028627
 ,-0.00004582,-0.00106444,0.00020805,-0.00034524,-0.00128197,-0.0004153
 4,0.00063315,-0.00028228,0.00034955,0.00011840,0.00111540,-0.00019561,
 0.00021866,-0.00010834,-0.00004145,-0.00063970,0.00002646,-0.00056004,
 0.00000365,0.00067041,-0.00103999,0.00010313,-0.00020748,0.00036141,0.
 00077633,-0.00111188,0.00028310,-0.00019299,0.00060542,0.00114182,-0.0
 0005083,-0.00060759,-0.00270841,-0.00026263,0.00122380,-0.00008459,0.0
 0050028,-0.00125323,0.00006202,-0.00017040,-0.05267645,0.00991163,-0.0
 4422060,-0.00460247,0.00065724,0.00032296,-0.00119352,-0.00017402,-0.0
 0015238,-0.00091096,0.00204763,0.00091801,-0.00173815,-0.00083180,-0.0
 0012791,0.00007357,-0.00012119,-0.00005736,-0.00762119,-0.00550208,-0.
 02494976,0.00120854,-0.00019955,0.00003644,-0.00859414,0.00725326,0.02
 698600,0.00803691,-0.00173820,-0.00101157,0.00061951,-0.00105291,0.000
 00726,0.00014790,-0.00023156,-0.00062677,0.00076098,-0.00136546,0.0007
 0938,0.00003154,0.00031771,-0.00000533,-0.00005884,0.00003580,-0.00002
 999,-0.00018262,-0.00009374,-0.00008897,-0.00003882,-0.00000764,-0.000
 01291,0.00000347,0.00009364,0.00003968,-0.00001345,0.00017221,0.000072
 01,-0.00002320,0.00000972,0.00004105,0.00000477,-0.00000422,0.00003451
 ,-0.00003301,-0.00001719,0.00004040,0.00001873,0.00004811,0.00000195,-
 0.00005769,-0.00005887,0.00005668,-0.00001518,0.00003792,0.00002933,-0
 .00003196,0.00005145,-0.00008282,-0.00004209,0.00002750,-0.00000196,0.
 00014153,-0.00008526,0.00003878,0.00198359,0.00353455,-0.00033043,-0.1
 3611989,0.05485864,0.06922685,-0.09661138,0.06800757,0.06386915,0.2998
 4346,-0.00011418,-0.00002171,-0.00000528,0.00023042,0.00005136,-0.0000
 1730,-0.00044723,-0.00210170,-0.00007392,0.00183403,0.00002798,-0.0006
 7163,0.00035006,0.00011959,-0.00006608,-0.00114488,-0.00011698,-0.0007
 0213,-0.00038495,-0.00001511,0.00035241,0.00052315,-0.00160752,0.00016
 398,0.00116468,-0.00181653,0.00024546,-0.00151400,0.00022036,0.0004213
 7,-0.00153113,0.00125064,-0.00014689,0.00114403,0.00191562,0.00004960,
 0.00290384,-0.00571816,-0.00053552,-0.00008516,0.00113795,-0.00027464,
 -0.00214641,0.00011081,-0.00022702,0.00983995,-0.04209216,0.02582907,-
 0.00508577,-0.00177484,0.00046051,-0.00127060,-0.00039796,-0.00010166,
 -0.00019052,-0.00032506,-0.00021601,-0.00017595,-0.00142500,0.00032054
 ,-0.00004697,-0.00001688,0.00010412,-0.01044762,0.00394743,-0.01287721
 ,0.00162104,-0.00106522,0.00023798,0.00722109,0.00025122,-0.01533088,0
 .00336732,-0.01242108,0.02830154,0.00085157,-0.00060551,-0.00089408,0.
 00009706,-0.00027214,0.00037539,-0.00040112,0.00020901,0.00016531,-0.0
 0020076,-0.00010434,0.00004274,0.00001924,-0.00000503,-0.00001514,-0.0
 0003437,-0.00005623,0.00004471,0.00002517,0.00000283,-0.00003989,-0.00
 002344,-0.00003554,-0.00004260,0.00002977,0.00014762,0.00004195,-0.000
 01140,-0.00003547,-0.00002283,-0.00000554,0.00000129,-0.00001953,0.000
 00318,-0.00002749,-0.00002347,0.00018943,0.00011285,-0.00007752,0.0000
 5752,0.00002345,-0.00001043,0.00000595,-0.00002221,0.00003231,-0.00000
 826,-0.00020982,0.00005224,0.00004520,-0.00002459,0.00003331,-0.000083
 89,0.00004344,-0.00002243,0.00356945,0.00601941,0.00025036,0.05503396,
 -0.07206471,-0.03862749,0.06784014,-0.01736284,-0.03697980,-0.13260571
 ,0.14615256,-0.00036364,0.00001951,0.00015924,-0.00000434,-0.00023555,
 0.00024521,0.00005047,0.00051279,-0.00026478,0.00092442,0.00145712,-0.
 00032496,-0.00001606,0.00001150,0.00000710,-0.00134209,-0.00116673,-0.
 00046808,0.00028428,-0.00028292,0.00013413,0.00029310,-0.00123748,0.00
 028793,0.00017733,-0.00017546,0.00014214,-0.00176219,0.00027104,0.0007
 9817,-0.00024396,0.00078519,0.00008739,-0.00028505,0.00018622,0.000062
 32,0.00647899,-0.00767843,-0.00182659,0.00074843,-0.00041684,-0.000792
 53,0.00020342,-0.00006622,0.00013890,-0.03513528,0.02057270,-0.0628792
 7,0.00980309,-0.00179074,-0.00177304,0.00119302,0.00035247,0.00029831,
 -0.00080946,-0.00151266,-0.00034469,-0.00043274,-0.00031999,-0.0002685
 3,-0.00019939,0.00030253,0.00016271,-0.03694486,-0.01026221,-0.0314157
 4,-0.00077416,-0.00019576,0.00008315,0.03102296,-0.01766510,-0.0322416
 8,-0.00918845,0.03735612,-0.03069535,-0.00110361,0.00136887,0.00079663
 ,0.00038820,-0.00011200,0.00013575,0.00034682,0.00174307,-0.00043755,0
 .00019801,0.00011904,0.00024857,-0.00017599,-0.00009748,0.00002056,-0.
 00016447,-0.00014460,0.00000921,-0.00007518,-0.00002506,-0.00012374,0.
 00002077,-0.00017585,-0.00017124,-0.00001699,-0.00029009,-0.00027107,0
 .00002081,-0.00016993,-0.00008890,0.00020183,-0.00011641,-0.00005680,0
 .00015811,0.00006714,-0.00008694,0.00024754,0.00016420,-0.00026826,0.0
 0016432,0.00007155,-0.00016882,-0.00001488,0.00007917,-0.00012224,0.00
 004305,0.00021228,0.00001218,-0.00000303,0.00020079,0.00002334,-0.0001
 4200,0.00008220,-0.00001032,-0.00469154,0.00277724,0.00067286,0.047122
 28,-0.02581236,-0.22521012,0.08507216,-0.04926721,0.01807212,-0.091268
 95,0.05050274,0.36772617||0.00003718,-0.00003567,-0.00004914,-0.000033
 26,0.00002042,-0.00000711,-0.00003083,0.00002117,0.00001943,-0.0000014
 1,0.00001159,-0.00000705,0.00000648,0.00003730,-0.00003462,0.00002059,
 -0.00001989,0.00003381,-0.00000308,-0.00001121,0.00000124,-0.00004849,
 0.00002441,-0.00003474,-0.00002156,-0.00002997,0.00004840,0.00004742,-
 0.00003496,-0.00000242,-0.00001406,-0.00001675,-0.00002408,-0.00002322
 ,0.00002667,-0.00000150,0.00001822,-0.00001455,0.00006170,-0.00000023,
 0.00000551,-0.00000594,-0.00000948,0.00003436,0.00003765,0.00001551,-0
 .00001167,-0.00004857,0.00000844,-0.00000086,0.00005286,-0.00004247,0.
 00002798,-0.00006739,0.00001491,-0.00000449,0.00000357,-0.00004137,0.0
 0001664,-0.00000735,0.00004290,-0.00000788,-0.00003140,-0.00000363,-0.
 00000586,-0.00001190,0.00001951,0.00000857,0.00000181,-0.00001978,-0.0
 0000750,-0.00000525,0.00000874,0.00000183,-0.00000999,0.00005132,-0.00
 003200,-0.00002246,0.00000695,-0.00002344,0.00001161,0.00003184,-0.000
 00579,0.00001144,-0.00003272,0.00001377,0.00006310,-0.00000781,-0.0000
 0280,-0.00000970,-0.00000102,-0.00000126,-0.00000503,-0.00000416,-0.00
 000182,-0.00002742,0.00000334,-0.00000456,0.00001298,-0.00000606,0.000
 00335,0.00003103,0.00000414,0.00000013,-0.00001710,-0.00000044,-0.0000
 0237,-0.00001164,0.00000091,-0.00000025,-0.00002227,-0.00000531,0.0000
 0463,0.00001883,0.00000414,-0.00000069,0.00002213,-0.00000377,0.000006
 69,0.00000290,0.00000053,-0.00000035,-0.00001208,-0.00000091,0.0000028
 6,-0.00000140,0.00000233,0.00000142,0.00002119,0.00002545,-0.00000141,
 0.00000350,-0.00001590,0.00000092,0.00000259,0.00004582,-0.00002065,-0
 .00000780,-0.00004567,0.00002842,0.00002361|||@


 IF AT FIRST YOU DON'T SUCCEED, TRY, TRY AGAIN.
 THEN GIVE UP;
 THERE'S NO USE BEING A DAMN FOOL ABOUT IT.

                                 -- W. C. FIELDS
 Job cpu time:       0 days  0 hours  0 minutes 21.0 seconds.
 File lengths (MBytes):  RWF=    434 Int=      0 D2E=      0 Chk=      5 Scr=      1
 Normal termination of Gaussian 09 at Sun Mar 15 20:19:18 2026.
