 Entering Link 1 = C:\Gaussian\G09W\l1.exe PID=      8544.
  
 Copyright (c) 1988,1990,1992,1993,1995,1998,2003,2009,2013,
            Gaussian, Inc.  All Rights Reserved.
  
 This is part of the Gaussian(R) 09 program.  It is based on
 the Gaussian(R) 03 system (copyright 2003, Gaussian, Inc.),
 the Gaussian(R) 98 system (copyright 1998, Gaussian, Inc.),
 the Gaussian(R) 94 system (copyright 1995, Gaussian, Inc.),
 the Gaussian 92(TM) system (copyright 1992, Gaussian, Inc.),
 the Gaussian 90(TM) system (copyright 1990, Gaussian, Inc.),
 the Gaussian 88(TM) system (copyright 1988, Gaussian, Inc.),
 the Gaussian 86(TM) system (copyright 1986, Carnegie Mellon
 University), and the Gaussian 82(TM) system (copyright 1983,
 Carnegie Mellon University). Gaussian is a federally registered
 trademark of Gaussian, Inc.
  
 This software contains proprietary and confidential information,
 including trade secrets, belonging to Gaussian, Inc.
  
 This software is provided under written license and may be
 used, copied, transmitted, or stored only in accord with that
 written license.
  
 The following legend is applicable only to US Government
 contracts under FAR:
  
                    RESTRICTED RIGHTS LEGEND
  
 Use, reproduction and disclosure by the US Government is
 subject to restrictions as set forth in subparagraphs (a)
 and (c) of the Commercial Computer Software - Restricted
 Rights clause in FAR 52.227-19.
  
 Gaussian, Inc.
 340 Quinnipiac St., Bldg. 40, Wallingford CT 06492
  
  
 ---------------------------------------------------------------
 Warning -- This program may not be used in any manner that
 competes with the business of Gaussian, Inc. or will provide
 assistance to any competitor of Gaussian, Inc.  The licensee
 of this program is prohibited from giving any competitor of
 Gaussian, Inc. access to this program.  By using this program,
 the user acknowledges that Gaussian, Inc. is engaged in the
 business of creating and licensing software in the field of
 computational chemistry and represents and warrants to the
 licensee that it is not a competitor of Gaussian, Inc. and that
 it will not use this program in any manner prohibited above.
 ---------------------------------------------------------------
  

 Cite this work as:
 Gaussian 09, Revision D.01,
 M. J. Frisch, G. W. Trucks, H. B. Schlegel, G. E. Scuseria, 
 M. A. Robb, J. R. Cheeseman, G. Scalmani, V. Barone, B. Mennucci, 
 G. A. Petersson, H. Nakatsuji, M. Caricato, X. Li, H. P. Hratchian, 
 A. F. Izmaylov, J. Bloino, G. Zheng, J. L. Sonnenberg, M. Hada, 
 M. Ehara, K. Toyota, R. Fukuda, J. Hasegawa, M. Ishida, T. Nakajima, 
 Y. Honda, O. Kitao, H. Nakai, T. Vreven, J. A. Montgomery, Jr., 
 J. E. Peralta, F. Ogliaro, M. Bearpark, J. J. Heyd, E. Brothers, 
 K. N. Kudin, V. N. Staroverov, T. Keith, R. Kobayashi, J. Normand, 
 K. Raghavachari, A. Rendell, J. C. Burant, S. S. Iyengar, J. Tomasi, 
 M. Cossi, N. Rega, J. M. Millam, M. Klene, J. E. Knox, J. B. Cross, 
 V. Bakken, C. Adamo, J. Jaramillo, R. Gomperts, R. E. Stratmann, 
 O. Yazyev, A. J. Austin, R. Cammi, C. Pomelli, J. W. Ochterski, 
 R. L. Martin, K. Morokuma, V. G. Zakrzewski, G. A. Voth, 
 P. Salvador, J. J. Dannenberg, S. Dapprich, A. D. Daniels, 
 O. Farkas, J. B. Foresman, J. V. Ortiz, J. Cioslowski, 
 and D. J. Fox, Gaussian, Inc., Wallingford CT, 2013.
 
 ******************************************
 Gaussian 09:  IA32W-G09RevD.01 24-Apr-2013
                14-Mar-2026 
 ******************************************
 %chk=C:\Users\User\Desktop\IMRG\ECE+ML\N_Gr_NS_NO.chk
 ---------------------------------------
 # opt freq pm6 scf=qc geom=connectivity
 ---------------------------------------
 1/14=-1,18=20,19=15,26=1,38=1,57=2/1,3;
 2/9=110,12=2,17=6,18=5,40=1/2;
 3/5=2,16=1,25=1,41=3900000,71=1/1,2,3;
 4/35=1/1;
 5/5=2,8=3,35=1,38=5/8;
 6/7=2,8=2,9=2,10=2,28=1/1;
 7//1,2,3,16;
 1/14=-1,18=20,19=15,26=1/3(2);
 2/9=110/2;
 99//99;
 2/9=110/2;
 3/5=2,16=1,25=1,41=3900000,71=1,135=20/1,2,3;
 4/5=5,16=3,35=1/1;
 5/5=2,8=3,35=1,38=5/8;
 7//1,2,3,16;
 1/14=-1,18=20,19=15,26=1/3(-5);
 2/9=110/2;
 6/7=2,8=2,9=2,10=2,19=2,28=1/1;
 99/9=1/99;
 ----------
 N_Gr_NS_NO
 ----------
 Symbolic Z-matrix:
 Charge =  0 Multiplicity = 1
 C                     0.17695   1.02371   2.99497 
 C                     1.43495   0.29741   2.57781 
 C                     2.69295   1.02371   2.99497 
 C                     5.20895   1.02371   2.99497 
 C                     7.72495   1.02371   2.99497 
 C                     3.95095   0.29741   2.57781 
 C                     6.46695   0.29741   2.57781 
 C                    -1.08105   3.20263   2.99497 
 C                    -2.33905   5.38155   2.99497 
 C                     0.17695   2.47633   2.57781 
 C                    -1.08105   4.65525   2.57781 
 C                    -2.33905   6.83417   2.57781 
 C                     1.43495   3.20263   2.99497 
 C                     0.17695   5.38155   2.99497 
 C                    -1.08105   7.56047   2.99497 
 C                     3.95095   3.20263   2.99497 
 C                     2.69295   5.38155   2.99497 
 C                     1.43495   7.56047   2.99497 
 C                     6.46695   3.20263   2.99497 
 C                     5.20895   5.38155   2.99497 
 C                     3.95095   7.56047   2.99497 
 C                     2.69295   2.47633   2.57781 
 C                     0.17695   6.83417   2.57781 
 C                     5.20895   2.47633   2.57781 
 C                     3.95095   4.65525   2.57781 
 C                     2.69295   6.83417   2.57781 
 C                     7.72495   2.47633   2.57781 
 C                     6.46695   4.65525   2.57781 
 C                     5.20895   6.83417   2.57781 
 H                     8.6156    2.99054   2.87315 
 H                     7.3576    5.16946   2.87315 
 H                     6.0996    7.34838   2.87315 
 H                     3.95095   8.58891   2.69962 
 H                     1.43495   8.58891   2.69962 
 H                    -1.08105   8.58891   2.69962 
 H                    -3.2297    7.34838   2.87315 
 H                    -3.2297    4.86734   2.69962 
 H                    -1.9717    2.68842   2.69962 
 H                    -0.7137    0.5095    2.69962 
 H                     1.43495  -0.73103   2.87315 
 H                     3.95095  -0.73103   2.87315 
 H                     6.49522  -0.60455   3.15277 
 H                     8.37341   0.35071   3.51599 
 N                     1.43495   4.65525   2.57781 
 N                     3.14437   3.73069   3.45055 
 O                     2.19385   4.32223   3.2656 
 
 Add virtual bond connecting atoms N45        and C16        Dist= 2.01D+00.
 Add virtual bond connecting atoms O46        and C17        Dist= 2.27D+00.
 Add virtual bond connecting atoms O46        and N44        Dist= 2.04D+00.

 GradGradGradGradGradGradGradGradGradGradGradGradGradGradGradGradGradGrad
 Berny optimization.
 Initialization pass.
                           ----------------------------
                           !    Initial Parameters    !
                           ! (Angstroms and Degrees)  !
 --------------------------                            --------------------------
 ! Name  Definition              Value          Derivative Info.                !
 --------------------------------------------------------------------------------
 ! R1    R(1,2)                  1.5113         estimate D2E/DX2                !
 ! R2    R(1,10)                 1.5113         estimate D2E/DX2                !
 ! R3    R(1,39)                 1.07           estimate D2E/DX2                !
 ! R4    R(2,3)                  1.5113         estimate D2E/DX2                !
 ! R5    R(2,40)                 1.07           estimate D2E/DX2                !
 ! R6    R(3,6)                  1.5113         estimate D2E/DX2                !
 ! R7    R(3,22)                 1.5113         estimate D2E/DX2                !
 ! R8    R(4,6)                  1.5113         estimate D2E/DX2                !
 ! R9    R(4,7)                  1.5113         estimate D2E/DX2                !
 ! R10   R(4,24)                 1.5113         estimate D2E/DX2                !
 ! R11   R(5,7)                  1.5113         estimate D2E/DX2                !
 ! R12   R(5,27)                 1.5113         estimate D2E/DX2                !
 ! R13   R(5,43)                 1.07           estimate D2E/DX2                !
 ! R14   R(6,41)                 1.07           estimate D2E/DX2                !
 ! R15   R(7,42)                 1.07           estimate D2E/DX2                !
 ! R16   R(8,10)                 1.5113         estimate D2E/DX2                !
 ! R17   R(8,11)                 1.5113         estimate D2E/DX2                !
 ! R18   R(8,38)                 1.07           estimate D2E/DX2                !
 ! R19   R(9,11)                 1.5113         estimate D2E/DX2                !
 ! R20   R(9,12)                 1.5113         estimate D2E/DX2                !
 ! R21   R(9,37)                 1.07           estimate D2E/DX2                !
 ! R22   R(10,13)                1.5113         estimate D2E/DX2                !
 ! R23   R(11,14)                1.5113         estimate D2E/DX2                !
 ! R24   R(12,15)                1.5113         estimate D2E/DX2                !
 ! R25   R(12,36)                1.07           estimate D2E/DX2                !
 ! R26   R(13,22)                1.5113         estimate D2E/DX2                !
 ! R27   R(13,44)                1.5113         estimate D2E/DX2                !
 ! R28   R(14,23)                1.5113         estimate D2E/DX2                !
 ! R29   R(14,44)                1.5113         estimate D2E/DX2                !
 ! R30   R(15,23)                1.5113         estimate D2E/DX2                !
 ! R31   R(15,35)                1.07           estimate D2E/DX2                !
 ! R32   R(16,22)                1.5113         estimate D2E/DX2                !
 ! R33   R(16,24)                1.5113         estimate D2E/DX2                !
 ! R34   R(16,25)                1.5113         estimate D2E/DX2                !
 ! R35   R(16,45)                1.0663         estimate D2E/DX2                !
 ! R36   R(17,25)                1.5113         estimate D2E/DX2                !
 ! R37   R(17,26)                1.5113         estimate D2E/DX2                !
 ! R38   R(17,44)                1.5113         estimate D2E/DX2                !
 ! R39   R(17,46)                1.2019         estimate D2E/DX2                !
 ! R40   R(18,23)                1.5113         estimate D2E/DX2                !
 ! R41   R(18,26)                1.5113         estimate D2E/DX2                !
 ! R42   R(18,34)                1.07           estimate D2E/DX2                !
 ! R43   R(19,24)                1.5113         estimate D2E/DX2                !
 ! R44   R(19,27)                1.5113         estimate D2E/DX2                !
 ! R45   R(19,28)                1.5113         estimate D2E/DX2                !
 ! R46   R(20,25)                1.5113         estimate D2E/DX2                !
 ! R47   R(20,28)                1.5113         estimate D2E/DX2                !
 ! R48   R(20,29)                1.5113         estimate D2E/DX2                !
 ! R49   R(21,26)                1.5113         estimate D2E/DX2                !
 ! R50   R(21,29)                1.5113         estimate D2E/DX2                !
 ! R51   R(21,33)                1.07           estimate D2E/DX2                !
 ! R52   R(27,30)                1.07           estimate D2E/DX2                !
 ! R53   R(28,31)                1.07           estimate D2E/DX2                !
 ! R54   R(29,32)                1.07           estimate D2E/DX2                !
 ! R55   R(44,46)                1.077          estimate D2E/DX2                !
 ! R56   R(45,46)                1.1347         estimate D2E/DX2                !
 ! A1    A(2,1,10)             112.6884         estimate D2E/DX2                !
 ! A2    A(2,1,39)             112.6884         estimate D2E/DX2                !
 ! A3    A(10,1,39)            112.6884         estimate D2E/DX2                !
 ! A4    A(1,2,3)              112.6884         estimate D2E/DX2                !
 ! A5    A(1,2,40)             112.6884         estimate D2E/DX2                !
 ! A6    A(3,2,40)             112.6884         estimate D2E/DX2                !
 ! A7    A(2,3,6)              112.6884         estimate D2E/DX2                !
 ! A8    A(2,3,22)             112.6884         estimate D2E/DX2                !
 ! A9    A(6,3,22)             112.6884         estimate D2E/DX2                !
 ! A10   A(6,4,7)              112.6884         estimate D2E/DX2                !
 ! A11   A(6,4,24)             112.6884         estimate D2E/DX2                !
 ! A12   A(7,4,24)             112.6884         estimate D2E/DX2                !
 ! A13   A(7,5,27)             112.6884         estimate D2E/DX2                !
 ! A14   A(7,5,43)             109.6693         estimate D2E/DX2                !
 ! A15   A(27,5,43)            137.6415         estimate D2E/DX2                !
 ! A16   A(3,6,4)              112.6884         estimate D2E/DX2                !
 ! A17   A(3,6,41)             112.6884         estimate D2E/DX2                !
 ! A18   A(4,6,41)             112.6884         estimate D2E/DX2                !
 ! A19   A(4,7,5)              112.6884         estimate D2E/DX2                !
 ! A20   A(4,7,42)             106.187          estimate D2E/DX2                !
 ! A21   A(5,7,42)             103.5792         estimate D2E/DX2                !
 ! A22   A(10,8,11)            112.6884         estimate D2E/DX2                !
 ! A23   A(10,8,38)            112.6884         estimate D2E/DX2                !
 ! A24   A(11,8,38)            112.6884         estimate D2E/DX2                !
 ! A25   A(11,9,12)            112.6884         estimate D2E/DX2                !
 ! A26   A(11,9,37)            112.6884         estimate D2E/DX2                !
 ! A27   A(12,9,37)            112.6884         estimate D2E/DX2                !
 ! A28   A(1,10,8)             112.6884         estimate D2E/DX2                !
 ! A29   A(1,10,13)            112.6884         estimate D2E/DX2                !
 ! A30   A(8,10,13)            112.6884         estimate D2E/DX2                !
 ! A31   A(8,11,9)             112.6884         estimate D2E/DX2                !
 ! A32   A(8,11,14)            112.6884         estimate D2E/DX2                !
 ! A33   A(9,11,14)            112.6884         estimate D2E/DX2                !
 ! A34   A(9,12,15)            112.6884         estimate D2E/DX2                !
 ! A35   A(9,12,36)            112.6884         estimate D2E/DX2                !
 ! A36   A(15,12,36)           112.6884         estimate D2E/DX2                !
 ! A37   A(10,13,22)           112.6884         estimate D2E/DX2                !
 ! A38   A(10,13,44)           112.6884         estimate D2E/DX2                !
 ! A39   A(22,13,44)           112.6884         estimate D2E/DX2                !
 ! A40   A(11,14,23)           112.6884         estimate D2E/DX2                !
 ! A41   A(11,14,44)           112.6884         estimate D2E/DX2                !
 ! A42   A(23,14,44)           112.6884         estimate D2E/DX2                !
 ! A43   A(12,15,23)           112.6884         estimate D2E/DX2                !
 ! A44   A(12,15,35)           112.6884         estimate D2E/DX2                !
 ! A45   A(23,15,35)           112.6884         estimate D2E/DX2                !
 ! A46   A(22,16,24)           112.6884         estimate D2E/DX2                !
 ! A47   A(22,16,25)           112.6884         estimate D2E/DX2                !
 ! A48   A(22,16,45)            74.1142         estimate D2E/DX2                !
 ! A49   A(24,16,25)           112.6884         estimate D2E/DX2                !
 ! A50   A(25,16,45)            69.0192         estimate D2E/DX2                !
 ! A51   A(25,17,26)           112.6884         estimate D2E/DX2                !
 ! A52   A(25,17,44)           112.6884         estimate D2E/DX2                !
 ! A53   A(25,17,46)            89.0969         estimate D2E/DX2                !
 ! A54   A(26,17,44)           112.6884         estimate D2E/DX2                !
 ! A55   A(26,17,46)           155.4093         estimate D2E/DX2                !
 ! A56   A(23,18,26)           112.6884         estimate D2E/DX2                !
 ! A57   A(23,18,34)           112.6884         estimate D2E/DX2                !
 ! A58   A(26,18,34)           112.6884         estimate D2E/DX2                !
 ! A59   A(24,19,27)           112.6884         estimate D2E/DX2                !
 ! A60   A(24,19,28)           112.6884         estimate D2E/DX2                !
 ! A61   A(27,19,28)           112.6884         estimate D2E/DX2                !
 ! A62   A(25,20,28)           112.6884         estimate D2E/DX2                !
 ! A63   A(25,20,29)           112.6884         estimate D2E/DX2                !
 ! A64   A(28,20,29)           112.6884         estimate D2E/DX2                !
 ! A65   A(26,21,29)           112.6884         estimate D2E/DX2                !
 ! A66   A(26,21,33)           112.6884         estimate D2E/DX2                !
 ! A67   A(29,21,33)           112.6884         estimate D2E/DX2                !
 ! A68   A(3,22,13)            112.6884         estimate D2E/DX2                !
 ! A69   A(3,22,16)            112.6884         estimate D2E/DX2                !
 ! A70   A(13,22,16)           112.6884         estimate D2E/DX2                !
 ! A71   A(14,23,15)           112.6884         estimate D2E/DX2                !
 ! A72   A(14,23,18)           112.6884         estimate D2E/DX2                !
 ! A73   A(15,23,18)           112.6884         estimate D2E/DX2                !
 ! A74   A(4,24,16)            112.6884         estimate D2E/DX2                !
 ! A75   A(4,24,19)            112.6884         estimate D2E/DX2                !
 ! A76   A(16,24,19)           112.6884         estimate D2E/DX2                !
 ! A77   A(16,25,17)           112.6884         estimate D2E/DX2                !
 ! A78   A(16,25,20)           112.6884         estimate D2E/DX2                !
 ! A79   A(17,25,20)           112.6884         estimate D2E/DX2                !
 ! A80   A(17,26,18)           112.6884         estimate D2E/DX2                !
 ! A81   A(17,26,21)           112.6884         estimate D2E/DX2                !
 ! A82   A(18,26,21)           112.6884         estimate D2E/DX2                !
 ! A83   A(5,27,19)            112.6884         estimate D2E/DX2                !
 ! A84   A(5,27,30)            112.6884         estimate D2E/DX2                !
 ! A85   A(19,27,30)           112.6884         estimate D2E/DX2                !
 ! A86   A(19,28,20)           112.6884         estimate D2E/DX2                !
 ! A87   A(19,28,31)           112.6884         estimate D2E/DX2                !
 ! A88   A(20,28,31)           112.6884         estimate D2E/DX2                !
 ! A89   A(20,29,21)           112.6884         estimate D2E/DX2                !
 ! A90   A(20,29,32)           112.6884         estimate D2E/DX2                !
 ! A91   A(21,29,32)           112.6884         estimate D2E/DX2                !
 ! A92   A(13,44,14)           112.6884         estimate D2E/DX2                !
 ! A93   A(13,44,17)           112.6884         estimate D2E/DX2                !
 ! A94   A(13,44,46)            61.7397         estimate D2E/DX2                !
 ! A95   A(14,44,17)           112.6884         estimate D2E/DX2                !
 ! A96   A(14,44,46)           123.9775         estimate D2E/DX2                !
 ! A97   A(16,45,46)           145.3024         estimate D2E/DX2                !
 ! A98   A(17,46,45)            98.5297         estimate D2E/DX2                !
 ! A99   A(44,46,45)           148.8198         estimate D2E/DX2                !
 ! A100  L(24,16,45,22,-1)     186.8026         estimate D2E/DX2                !
 ! A101  L(24,16,45,22,-2)     172.6016         estimate D2E/DX2                !
 ! D1    D(10,1,2,3)            51.1032         estimate D2E/DX2                !
 ! D2    D(10,1,2,40)          180.0            estimate D2E/DX2                !
 ! D3    D(39,1,2,3)           180.0            estimate D2E/DX2                !
 ! D4    D(39,1,2,40)          -51.1032         estimate D2E/DX2                !
 ! D5    D(2,1,10,8)           180.0            estimate D2E/DX2                !
 ! D6    D(2,1,10,13)          -51.1032         estimate D2E/DX2                !
 ! D7    D(39,1,10,8)           51.1032         estimate D2E/DX2                !
 ! D8    D(39,1,10,13)         180.0            estimate D2E/DX2                !
 ! D9    D(1,2,3,6)            180.0            estimate D2E/DX2                !
 ! D10   D(1,2,3,22)           -51.1032         estimate D2E/DX2                !
 ! D11   D(40,2,3,6)            51.1032         estimate D2E/DX2                !
 ! D12   D(40,2,3,22)         -180.0            estimate D2E/DX2                !
 ! D13   D(2,3,6,4)            180.0            estimate D2E/DX2                !
 ! D14   D(2,3,6,41)           -51.1032         estimate D2E/DX2                !
 ! D15   D(22,3,6,4)            51.1032         estimate D2E/DX2                !
 ! D16   D(22,3,6,41)          180.0            estimate D2E/DX2                !
 ! D17   D(2,3,22,13)           51.1032         estimate D2E/DX2                !
 ! D18   D(2,3,22,16)          180.0            estimate D2E/DX2                !
 ! D19   D(6,3,22,13)          180.0            estimate D2E/DX2                !
 ! D20   D(6,3,22,16)          -51.1032         estimate D2E/DX2                !
 ! D21   D(7,4,6,3)            180.0            estimate D2E/DX2                !
 ! D22   D(7,4,6,41)            51.1032         estimate D2E/DX2                !
 ! D23   D(24,4,6,3)           -51.1032         estimate D2E/DX2                !
 ! D24   D(24,4,6,41)          180.0            estimate D2E/DX2                !
 ! D25   D(6,4,7,5)            180.0            estimate D2E/DX2                !
 ! D26   D(6,4,7,42)           -67.2727         estimate D2E/DX2                !
 ! D27   D(24,4,7,5)            51.1032         estimate D2E/DX2                !
 ! D28   D(24,4,7,42)          163.8304         estimate D2E/DX2                !
 ! D29   D(6,4,24,16)           51.1032         estimate D2E/DX2                !
 ! D30   D(6,4,24,19)          180.0            estimate D2E/DX2                !
 ! D31   D(7,4,24,16)          180.0            estimate D2E/DX2                !
 ! D32   D(7,4,24,19)          -51.1032         estimate D2E/DX2                !
 ! D33   D(27,5,7,4)           -51.1032         estimate D2E/DX2                !
 ! D34   D(27,5,7,42)         -165.4227         estimate D2E/DX2                !
 ! D35   D(43,5,7,4)           128.6399         estimate D2E/DX2                !
 ! D36   D(43,5,7,42)           14.3203         estimate D2E/DX2                !
 ! D37   D(7,5,27,19)           51.1032         estimate D2E/DX2                !
 ! D38   D(7,5,27,30)          180.0            estimate D2E/DX2                !
 ! D39   D(43,5,27,19)        -128.5377         estimate D2E/DX2                !
 ! D40   D(43,5,27,30)           0.3591         estimate D2E/DX2                !
 ! D41   D(11,8,10,1)          180.0            estimate D2E/DX2                !
 ! D42   D(11,8,10,13)          51.1032         estimate D2E/DX2                !
 ! D43   D(38,8,10,1)          -51.1032         estimate D2E/DX2                !
 ! D44   D(38,8,10,13)        -180.0            estimate D2E/DX2                !
 ! D45   D(10,8,11,9)          180.0            estimate D2E/DX2                !
 ! D46   D(10,8,11,14)         -51.1032         estimate D2E/DX2                !
 ! D47   D(38,8,11,9)           51.1032         estimate D2E/DX2                !
 ! D48   D(38,8,11,14)         180.0            estimate D2E/DX2                !
 ! D49   D(12,9,11,8)         -180.0            estimate D2E/DX2                !
 ! D50   D(12,9,11,14)          51.1032         estimate D2E/DX2                !
 ! D51   D(37,9,11,8)          -51.1032         estimate D2E/DX2                !
 ! D52   D(37,9,11,14)         180.0            estimate D2E/DX2                !
 ! D53   D(11,9,12,15)         -51.1032         estimate D2E/DX2                !
 ! D54   D(11,9,12,36)        -180.0            estimate D2E/DX2                !
 ! D55   D(37,9,12,15)         180.0            estimate D2E/DX2                !
 ! D56   D(37,9,12,36)          51.1032         estimate D2E/DX2                !
 ! D57   D(1,10,13,22)          51.1032         estimate D2E/DX2                !
 ! D58   D(1,10,13,44)         180.0            estimate D2E/DX2                !
 ! D59   D(8,10,13,22)         180.0            estimate D2E/DX2                !
 ! D60   D(8,10,13,44)         -51.1032         estimate D2E/DX2                !
 ! D61   D(8,11,14,23)         180.0            estimate D2E/DX2                !
 ! D62   D(8,11,14,44)          51.1032         estimate D2E/DX2                !
 ! D63   D(9,11,14,23)         -51.1032         estimate D2E/DX2                !
 ! D64   D(9,11,14,44)         180.0            estimate D2E/DX2                !
 ! D65   D(9,12,15,23)          51.1032         estimate D2E/DX2                !
 ! D66   D(9,12,15,35)         180.0            estimate D2E/DX2                !
 ! D67   D(36,12,15,23)        180.0            estimate D2E/DX2                !
 ! D68   D(36,12,15,35)        -51.1032         estimate D2E/DX2                !
 ! D69   D(10,13,22,3)         -51.1032         estimate D2E/DX2                !
 ! D70   D(10,13,22,16)        180.0            estimate D2E/DX2                !
 ! D71   D(44,13,22,3)         180.0            estimate D2E/DX2                !
 ! D72   D(44,13,22,16)         51.1032         estimate D2E/DX2                !
 ! D73   D(10,13,44,14)         51.1032         estimate D2E/DX2                !
 ! D74   D(10,13,44,17)        180.0            estimate D2E/DX2                !
 ! D75   D(10,13,44,46)        168.6826         estimate D2E/DX2                !
 ! D76   D(22,13,44,14)       -180.0            estimate D2E/DX2                !
 ! D77   D(22,13,44,17)        -51.1032         estimate D2E/DX2                !
 ! D78   D(22,13,44,46)        -62.4205         estimate D2E/DX2                !
 ! D79   D(11,14,23,15)         51.1032         estimate D2E/DX2                !
 ! D80   D(11,14,23,18)        180.0            estimate D2E/DX2                !
 ! D81   D(44,14,23,15)        180.0            estimate D2E/DX2                !
 ! D82   D(44,14,23,18)        -51.1032         estimate D2E/DX2                !
 ! D83   D(11,14,44,13)        -51.1032         estimate D2E/DX2                !
 ! D84   D(11,14,44,17)        180.0            estimate D2E/DX2                !
 ! D85   D(11,14,44,46)       -121.4028         estimate D2E/DX2                !
 ! D86   D(23,14,44,13)       -180.0            estimate D2E/DX2                !
 ! D87   D(23,14,44,17)         51.1032         estimate D2E/DX2                !
 ! D88   D(23,14,44,46)        109.7004         estimate D2E/DX2                !
 ! D89   D(12,15,23,14)        -51.1032         estimate D2E/DX2                !
 ! D90   D(12,15,23,18)        180.0            estimate D2E/DX2                !
 ! D91   D(35,15,23,14)        180.0            estimate D2E/DX2                !
 ! D92   D(35,15,23,18)         51.1032         estimate D2E/DX2                !
 ! D93   D(24,16,22,3)          51.1032         estimate D2E/DX2                !
 ! D94   D(24,16,22,13)        180.0            estimate D2E/DX2                !
 ! D95   D(25,16,22,3)         180.0            estimate D2E/DX2                !
 ! D96   D(25,16,22,13)        -51.1032         estimate D2E/DX2                !
 ! D97   D(45,16,22,3)        -121.4984         estimate D2E/DX2                !
 ! D98   D(45,16,22,13)          7.3984         estimate D2E/DX2                !
 ! D99   D(22,16,24,4)         -51.1032         estimate D2E/DX2                !
 ! D100  D(22,16,24,19)        180.0            estimate D2E/DX2                !
 ! D101  D(25,16,24,4)         180.0            estimate D2E/DX2                !
 ! D102  D(25,16,24,19)         51.1032         estimate D2E/DX2                !
 ! D103  D(4,24,45,46)        -118.8258         estimate D2E/DX2                !
 ! D104  D(19,24,45,46)        115.0557         estimate D2E/DX2                !
 ! D105  D(22,16,25,17)         51.1032         estimate D2E/DX2                !
 ! D106  D(22,16,25,20)        180.0            estimate D2E/DX2                !
 ! D107  D(24,16,25,17)        180.0            estimate D2E/DX2                !
 ! D108  D(24,16,25,20)        -51.1032         estimate D2E/DX2                !
 ! D109  D(45,16,25,17)        -10.3377         estimate D2E/DX2                !
 ! D110  D(45,16,25,20)        118.5592         estimate D2E/DX2                !
 ! D111  D(22,16,45,46)        -60.8522         estimate D2E/DX2                !
 ! D112  D(25,16,45,46)         61.7393         estimate D2E/DX2                !
 ! D113  D(26,17,25,16)       -180.0            estimate D2E/DX2                !
 ! D114  D(26,17,25,20)         51.1032         estimate D2E/DX2                !
 ! D115  D(44,17,25,16)        -51.1032         estimate D2E/DX2                !
 ! D116  D(44,17,25,20)        180.0            estimate D2E/DX2                !
 ! D117  D(46,17,25,16)        -11.7337         estimate D2E/DX2                !
 ! D118  D(46,17,25,20)       -140.6306         estimate D2E/DX2                !
 ! D119  D(25,17,26,18)        180.0            estimate D2E/DX2                !
 ! D120  D(25,17,26,21)        -51.1032         estimate D2E/DX2                !
 ! D121  D(44,17,26,18)         51.1032         estimate D2E/DX2                !
 ! D122  D(44,17,26,21)        180.0            estimate D2E/DX2                !
 ! D123  D(46,17,26,18)         29.2511         estimate D2E/DX2                !
 ! D124  D(46,17,26,21)        158.1479         estimate D2E/DX2                !
 ! D125  D(25,17,44,13)         51.1032         estimate D2E/DX2                !
 ! D126  D(25,17,44,14)        180.0            estimate D2E/DX2                !
 ! D127  D(26,17,44,13)        180.0            estimate D2E/DX2                !
 ! D128  D(26,17,44,14)        -51.1032         estimate D2E/DX2                !
 ! D129  D(25,17,46,45)         24.4059         estimate D2E/DX2                !
 ! D130  D(26,17,46,45)        177.6057         estimate D2E/DX2                !
 ! D131  D(26,18,23,14)         51.1032         estimate D2E/DX2                !
 ! D132  D(26,18,23,15)        180.0            estimate D2E/DX2                !
 ! D133  D(34,18,23,14)        180.0            estimate D2E/DX2                !
 ! D134  D(34,18,23,15)        -51.1032         estimate D2E/DX2                !
 ! D135  D(23,18,26,17)        -51.1032         estimate D2E/DX2                !
 ! D136  D(23,18,26,21)        180.0            estimate D2E/DX2                !
 ! D137  D(34,18,26,17)        180.0            estimate D2E/DX2                !
 ! D138  D(34,18,26,21)         51.1032         estimate D2E/DX2                !
 ! D139  D(27,19,24,4)          51.1032         estimate D2E/DX2                !
 ! D140  D(27,19,24,16)        180.0            estimate D2E/DX2                !
 ! D141  D(28,19,24,4)         180.0            estimate D2E/DX2                !
 ! D142  D(28,19,24,16)        -51.1032         estimate D2E/DX2                !
 ! D143  D(24,19,27,5)         -51.1032         estimate D2E/DX2                !
 ! D144  D(24,19,27,30)        180.0            estimate D2E/DX2                !
 ! D145  D(28,19,27,5)         180.0            estimate D2E/DX2                !
 ! D146  D(28,19,27,30)         51.1032         estimate D2E/DX2                !
 ! D147  D(24,19,28,20)         51.1032         estimate D2E/DX2                !
 ! D148  D(24,19,28,31)        180.0            estimate D2E/DX2                !
 ! D149  D(27,19,28,20)        180.0            estimate D2E/DX2                !
 ! D150  D(27,19,28,31)        -51.1032         estimate D2E/DX2                !
 ! D151  D(28,20,25,16)         51.1032         estimate D2E/DX2                !
 ! D152  D(28,20,25,17)        180.0            estimate D2E/DX2                !
 ! D153  D(29,20,25,16)        180.0            estimate D2E/DX2                !
 ! D154  D(29,20,25,17)        -51.1032         estimate D2E/DX2                !
 ! D155  D(25,20,28,19)        -51.1032         estimate D2E/DX2                !
 ! D156  D(25,20,28,31)        180.0            estimate D2E/DX2                !
 ! D157  D(29,20,28,19)       -180.0            estimate D2E/DX2                !
 ! D158  D(29,20,28,31)         51.1032         estimate D2E/DX2                !
 ! D159  D(25,20,29,21)         51.1032         estimate D2E/DX2                !
 ! D160  D(25,20,29,32)        180.0            estimate D2E/DX2                !
 ! D161  D(28,20,29,21)        180.0            estimate D2E/DX2                !
 ! D162  D(28,20,29,32)        -51.1032         estimate D2E/DX2                !
 ! D163  D(29,21,26,17)         51.1032         estimate D2E/DX2                !
 ! D164  D(29,21,26,18)       -180.0            estimate D2E/DX2                !
 ! D165  D(33,21,26,17)        180.0            estimate D2E/DX2                !
 ! D166  D(33,21,26,18)        -51.1032         estimate D2E/DX2                !
 ! D167  D(26,21,29,20)        -51.1032         estimate D2E/DX2                !
 ! D168  D(26,21,29,32)        180.0            estimate D2E/DX2                !
 ! D169  D(33,21,29,20)        180.0            estimate D2E/DX2                !
 ! D170  D(33,21,29,32)         51.1032         estimate D2E/DX2                !
 ! D171  D(13,44,46,45)         71.9945         estimate D2E/DX2                !
 ! D172  D(14,44,46,45)        171.5386         estimate D2E/DX2                !
 ! D173  D(16,45,46,17)        -80.2029         estimate D2E/DX2                !
 ! D174  D(16,45,46,44)         10.1517         estimate D2E/DX2                !
 --------------------------------------------------------------------------------
 Trust Radius=3.00D-01 FncErr=1.00D-07 GrdErr=1.00D-07
 Number of steps in this run=    276 maximum allowed number of steps=    276.
 GradGradGradGradGradGradGradGradGradGradGradGradGradGradGradGradGradGrad

                          Input orientation:                          
 ---------------------------------------------------------------------
 Center     Atomic      Atomic             Coordinates (Angstroms)
 Number     Number       Type             X           Y           Z
 ---------------------------------------------------------------------
      1          6           0        0.176948    1.023714    2.994967
      2          6           0        1.434948    0.297407    2.577810
      3          6           0        2.692948    1.023714    2.994967
      4          6           0        5.208948    1.023714    2.994967
      5          6           0        7.724948    1.023714    2.994967
      6          6           0        3.950948    0.297407    2.577810
      7          6           0        6.466948    0.297407    2.577810
      8          6           0       -1.081052    3.202634    2.994967
      9          6           0       -2.339052    5.381554    2.994967
     10          6           0        0.176948    2.476327    2.577810
     11          6           0       -1.081052    4.655247    2.577810
     12          6           0       -2.339052    6.834167    2.577810
     13          6           0        1.434948    3.202634    2.994967
     14          6           0        0.176948    5.381554    2.994967
     15          6           0       -1.081052    7.560474    2.994967
     16          6           0        3.950948    3.202634    2.994967
     17          6           0        2.692948    5.381554    2.994967
     18          6           0        1.434948    7.560474    2.994967
     19          6           0        6.466948    3.202634    2.994967
     20          6           0        5.208948    5.381554    2.994967
     21          6           0        3.950948    7.560474    2.994967
     22          6           0        2.692948    2.476327    2.577810
     23          6           0        0.176948    6.834167    2.577810
     24          6           0        5.208948    2.476327    2.577810
     25          6           0        3.950948    4.655247    2.577810
     26          6           0        2.692948    6.834167    2.577810
     27          6           0        7.724948    2.476327    2.577810
     28          6           0        6.466948    4.655247    2.577810
     29          6           0        5.208948    6.834167    2.577810
     30          1           0        8.615597    2.990544    2.873152
     31          1           0        7.357597    5.169464    2.873152
     32          1           0        6.099597    7.348383    2.873152
     33          1           0        3.950948    8.588906    2.699625
     34          1           0        1.434948    8.588906    2.699625
     35          1           0       -1.081052    8.588906    2.699625
     36          1           0       -3.229701    7.348383    2.873152
     37          1           0       -3.229701    4.867338    2.699625
     38          1           0       -1.971701    2.688418    2.699625
     39          1           0       -0.713701    0.509498    2.699625
     40          1           0        1.434948   -0.731025    2.873152
     41          1           0        3.950948   -0.731025    2.873152
     42          1           0        6.495217   -0.604546    3.152772
     43          1           0        8.373408    0.350713    3.515994
     44          7           0        1.434948    4.655247    2.577810
     45          7           0        3.144368    3.730687    3.450548
     46          8           0        2.193847    4.322228    3.265605
 ---------------------------------------------------------------------
                    Distance matrix (angstroms):
                    1          2          3          4          5
     1  C    0.000000
     2  C    1.511326   0.000000
     3  C    2.516000   1.511326   0.000000
     4  C    5.032000   3.865827   2.516000   0.000000
     5  C    7.548000   6.345521   5.032000   2.516000   0.000000
     6  C    3.865827   2.516000   1.511326   1.511326   3.865827
     7  C    6.345521   5.032000   3.865827   1.511326   1.511326
     8  C    2.516000   3.865827   4.357840   6.656710   9.071567
     9  C    5.032000   6.345521   6.656710   8.715680  10.966990
    10  C    1.511326   2.516000   2.935023   5.254058   7.697818
    11  C    3.865827   5.032000   5.254058   7.275036   9.534552
    12  C    6.345521   7.548000   7.697818   9.534552  11.628391
    13  C    2.516000   2.935023   2.516000   4.357840   6.656710
    14  C    4.357840   5.254058   5.032000   6.656710   8.715680
    15  C    6.656710   7.697818   7.548000   9.071567  10.966990
    16  C    4.357840   3.865827   2.516000   2.516000   4.357840
    17  C    5.032000   5.254058   4.357840   5.032000   6.656710
    18  C    6.656710   7.275036   6.656710   7.548000   9.071567
    19  C    6.656710   5.825409   4.357840   2.516000   2.516000
    20  C    6.656710   6.345521   5.032000   4.357840   5.032000
    21  C    7.548000   7.697818   6.656710   6.656710   7.548000
    22  C    2.935023   2.516000   1.511326   2.935023   5.254058
    23  C    5.825409   6.656710   6.345521   7.697818   9.534552
    24  C    5.254058   4.357840   2.935023   1.511326   2.935023
    25  C    5.254058   5.032000   3.865827   3.865827   5.254058
    26  C    6.345521   6.656710   5.825409   6.345521   7.697818
    27  C    7.697818   6.656710   5.254058   2.935023   1.511326
    28  C    7.275036   6.656710   5.254058   3.865827   3.865827
    29  C    7.697818   7.548000   6.345521   5.825409   6.345521
    30  H    8.665682   7.674759   6.241877   3.935545   2.162524
    31  H    8.292394   7.674759   6.241877   4.671056   4.163775
    32  H    8.665682   8.459458   7.184813   6.388234   6.531313
    33  H    8.459458   8.665682   7.674759   7.674759   8.459458
    34  H    7.674759   8.292394   7.674759   8.459458   9.842940
    35  H    7.674759   8.665682   8.459458   9.842940  11.613139
    36  H    7.184813   8.459458   8.665682  10.546425  12.649925
    37  H    5.144504   6.531313   7.066713   9.277471  11.613139
    38  H    2.734073   4.163775   4.961594   7.377003   9.842940
    39  H    1.070000   2.162524   3.457875   5.952261   8.459458
    40  H    2.162524   1.070000   2.162524   4.163775   6.531313
    41  H    4.163775   2.734073   2.162524   2.162524   4.163775
    42  H    6.526612   5.172082   4.139249   2.081015   2.046551
    43  H    8.240531   7.001804   5.743868   3.276920   1.070000
    44  N    3.865827   4.357840   3.865827   5.254058   7.275036
    45  N    4.042380   3.933344   2.781912   3.434785   5.340128
    46  O    3.875735   4.153092   3.347020   4.477083   6.445658
                    6          7          8          9         10
     6  C    0.000000
     7  C    2.516000   0.000000
     8  C    5.825409   8.098559   0.000000
     9  C    8.098559  10.176846   2.516000   0.000000
    10  C    4.357840   6.656710   1.511326   3.865827   0.000000
    11  C    6.656710   8.715680   1.511326   1.511326   2.516000
    12  C    9.071567  10.966990   3.865827   1.511326   5.032000
    13  C    3.865827   5.825409   2.516000   4.357840   1.511326
    14  C    6.345521   8.098559   2.516000   2.516000   2.935023
    15  C    8.845743  10.483246   4.357840   2.516000   5.254058
    16  C    2.935023   3.865827   5.032000   6.656710   3.865827
    17  C    5.254058   6.345521   4.357840   5.032000   3.865827
    18  C    7.697818   8.845743   5.032000   4.357840   5.254058
    19  C    3.865827   2.935023   7.548000   9.071567   6.345521
    20  C    5.254058   5.254058   6.656710   7.548000   5.825409
    21  C    7.275036   7.697818   6.656710   6.656710   6.345521
    22  C    2.516000   4.357840   3.865827   5.825409   2.516000
    23  C    7.548000   9.071567   3.865827   2.935023   4.357840
    24  C    2.516000   2.516000   6.345521   8.098559   5.032000
    25  C    4.357840   5.032000   5.254058   6.345521   4.357840
    26  C    6.656710   7.548000   5.254058   5.254058   5.032000
    27  C    4.357840   2.516000   8.845743  10.483246   7.548000
    28  C    5.032000   4.357840   7.697818   8.845743   6.656710
    29  C    6.656710   6.656710   7.275036   7.697818   6.656710
    30  H    5.394363   3.457875   9.699733  11.213211   8.459458
    31  H    5.952261   4.961594   8.665682   9.699733   7.674759
    32  H    7.377003   7.066713   8.292394   8.665682   7.674759
    33  H    8.292394   8.665682   7.377003   7.066713   7.184813
    34  H    8.665682   9.699733   5.952261   4.961594   6.241877
    35  H    9.699733  11.213211   5.394363   3.457875   6.241877
    36  H   10.068029  11.992851   4.671056   2.162524   5.952261
    37  H    8.512392  10.720266   2.734073   1.070000   4.163775
    38  H    6.388234   8.771691   1.070000   2.734073   2.162524
    39  H    4.671056   7.184813   2.734073   5.144504   2.162524
    40  H    2.734073   5.144504   4.671056   7.184813   3.457875
    41  H    1.070000   2.734073   6.388234   8.771691   4.961594
    42  H    2.759965   1.070000   8.480529  10.672516   7.052864
    43  H    4.521192   2.125469   9.888970  11.846418   8.519412
    44  N    5.032000   6.656710   2.935023   3.865827   2.516000
    45  N    3.633132   4.856812   4.282589   5.744633   3.337764
    46  O    4.445182   5.910299   3.471556   4.662896   2.819272
                   11         12         13         14         15
    11  C    0.000000
    12  C    2.516000   0.000000
    13  C    2.935023   5.254058   0.000000
    14  C    1.511326   2.935023   2.516000   0.000000
    15  C    2.935023   1.511326   5.032000   2.516000   0.000000
    16  C    5.254058   7.275036   2.516000   4.357840   6.656710
    17  C    3.865827   5.254058   2.516000   2.516000   4.357840
    18  C    3.865827   3.865827   4.357840   2.516000   2.516000
    19  C    7.697818   9.534552   5.032000   6.656710   8.715680
    20  C    6.345521   7.697818   4.357840   5.032000   6.656710
    21  C    5.825409   6.345521   5.032000   4.357840   5.032000
    22  C    4.357840   6.656710   1.511326   3.865827   6.345521
    23  C    2.516000   2.516000   3.865827   1.511326   1.511326
    24  C    6.656710   8.715680   3.865827   5.825409   8.098559
    25  C    5.032000   6.656710   2.935023   3.865827   5.825409
    26  C    4.357840   5.032000   3.865827   2.935023   3.865827
    27  C    9.071567  10.966990   6.345521   8.098559  10.176846
    28  C    7.548000   9.071567   5.254058   6.345521   8.098559
    29  C    6.656710   7.548000   5.254058   5.254058   6.345521
    30  H    9.842940  11.613139   7.184813   8.771691  10.720266
    31  H    8.459458   9.842940   6.241877   7.184813   8.771691
    32  H    7.674759   8.459458   6.241877   6.241877   7.184813
    33  H    6.388234   6.531313   5.952261   4.961594   5.144504
    34  H    4.671056   4.163775   5.394363   3.457875   2.734073
    35  H    3.935545   2.162524   5.952261   3.457875   1.070000
    36  H    3.457875   1.070000   6.241877   3.935545   2.162524
    37  H    2.162524   2.162524   4.961594   3.457875   3.457875
    38  H    2.162524   4.163775   3.457875   3.457875   4.961594
    39  H    4.163775   6.531313   3.457875   4.961594   7.066713
    40  H    5.952261   8.459458   3.935545   6.241877   8.665682
    41  H    7.377003   9.842940   4.671056   7.184813   9.699733
    42  H    9.240988  11.563276   6.334497   8.705103  11.139673
    43  H   10.430533  12.556757   7.519784   9.631344  11.901215
    44  N    2.516000   4.357840   1.511326   1.511326   3.865827
    45  N    4.412556   6.360908   1.846215   3.426149   5.720926
    46  O    3.362875   5.227818   1.379371   2.294188   4.613507
                   16         17         18         19         20
    16  C    0.000000
    17  C    2.516000   0.000000
    18  C    5.032000   2.516000   0.000000
    19  C    2.516000   4.357840   6.656710   0.000000
    20  C    2.516000   2.516000   4.357840   2.516000   0.000000
    21  C    4.357840   2.516000   2.516000   5.032000   2.516000
    22  C    1.511326   2.935023   5.254058   3.865827   3.865827
    23  C    5.254058   2.935023   1.511326   7.275036   5.254058
    24  C    1.511326   3.865827   6.345521   1.511326   2.935023
    25  C    1.511326   1.511326   3.865827   2.935023   1.511326
    26  C    3.865827   1.511326   1.511326   5.254058   2.935023
    27  C    3.865827   5.825409   8.098559   1.511326   3.865827
    28  C    2.935023   3.865827   5.825409   1.511326   1.511326
    29  C    3.865827   2.935023   3.865827   3.865827   1.511326
    30  H    4.671056   6.388234   8.512392   2.162524   4.163775
    31  H    3.935545   4.671056   6.388234   2.162524   2.162524
    32  H    4.671056   3.935545   4.671056   4.163775   2.162524
    33  H    5.394363   3.457875   2.734073   5.952261   3.457875
    34  H    5.952261   3.457875   1.070000   7.377003   4.961594
    35  H    7.377003   4.961594   2.734073   9.277471   7.066713
    36  H    8.292394   6.241877   4.671056  10.546425   8.665682
    37  H    7.377003   5.952261   5.394363   9.842940   8.459458
    38  H    5.952261   5.394363   5.952261   8.459458   7.674759
    39  H    5.394363   5.952261   7.377003   7.674759   7.674759
    40  H    4.671056   6.241877   8.292394   6.388234   7.184813
    41  H    3.935545   6.241877   8.665682   4.671056   6.241877
    42  H    4.581793   7.093345   9.607225   3.810554   6.124768
    43  H    5.288012   7.605817  10.019698   3.469800   5.966124
    44  N    2.935023   1.511326   2.935023   5.254058   3.865827
    45  N    1.066286   1.771072   4.218642   3.394987   2.682426
    46  O    2.100985   1.201881   3.336976   4.425621   3.207218
                   21         22         23         24         25
    21  C    0.000000
    22  C    5.254058   0.000000
    23  C    3.865827   5.032000   0.000000
    24  C    5.254058   2.516000   6.656710   0.000000
    25  C    2.935023   2.516000   4.357840   2.516000   0.000000
    26  C    1.511326   4.357840   2.516000   5.032000   2.516000
    27  C    6.345521   5.032000   8.715680   2.516000   4.357840
    28  C    3.865827   4.357840   6.656710   2.516000   2.516000
    29  C    1.511326   5.032000   5.032000   4.357840   2.516000
    30  H    6.531313   5.952261   9.277471   3.457875   4.961594
    31  H    4.163775   5.394363   7.377003   3.457875   3.457875
    32  H    2.162524   5.952261   5.952261   4.961594   3.457875
    33  H    1.070000   6.241877   4.163775   6.241877   3.935545
    34  H    2.734073   6.241877   2.162524   7.184813   4.671056
    35  H    5.144504   7.184813   2.162524   8.771691   6.388234
    36  H    7.184813   7.674759   3.457875   9.748587   7.674759
    37  H    7.674759   6.388234   3.935545   8.771691   7.184813
    38  H    7.674759   4.671056   4.671056   7.184813   6.241877
    39  H    8.459458   3.935545   6.388234   6.241877   6.241877
    40  H    8.665682   3.457875   7.674759   4.961594   5.952261
    41  H    8.292394   3.457875   8.459458   3.457875   5.394363
    42  H    8.553698   4.927435   9.776787   3.387750   5.871057
    43  H    8.474094   6.137267  10.492727   3.925841   6.242384
    44  N    3.865827   2.516000   2.516000   4.357840   2.516000
    45  N    3.940228   1.593383   4.381648   2.568576   1.505674
    46  O    3.694169   2.032120   3.294053   3.601561   1.916081
                   26         27         28         29         30
    26  C    0.000000
    27  C    6.656710   0.000000
    28  C    4.357840   2.516000   0.000000
    29  C    2.516000   5.032000   2.516000   0.000000
    30  H    7.066713   1.070000   2.734073   5.144504   0.000000
    31  H    4.961594   2.734073   1.070000   2.734073   2.516000
    32  H    3.457875   5.144504   2.734073   1.070000   5.032000
    33  H    2.162524   7.184813   4.671056   2.162524   7.289082
    34  H    2.162524   8.771691   6.388234   4.163775   9.106783
    35  H    4.163775  10.720266   8.512392   6.531313  11.198070
    36  H    5.952261  11.992851  10.068029   8.459458  12.621483
    37  H    6.241877  11.213211   9.699733   8.665682  11.994313
    38  H    6.241877   9.699733   8.665682   8.292394  10.593029
    39  H    7.184813   8.665682   8.292394   8.665682   9.655127
    40  H    7.674759   7.066713   7.377003   8.459458   8.087755
    41  H    7.674759   4.961594   5.952261   7.674759   5.967329
    42  H    8.373905   3.366689   5.291201   7.570966   4.183164
    43  H    8.670812   2.412245   4.800395   7.275244   2.727747
    44  N    2.516000   6.656710   5.032000   4.357840   7.377003
    45  N    3.255310   4.828748   3.557530   3.828283   5.551175
    46  O    2.651792   5.871412   4.340893   3.984185   6.570104
                   31         32         33         34         35
    31  H    0.000000
    32  H    2.516000   0.000000
    33  H    4.829902   2.487107   0.000000
    34  H    6.841087   4.829902   2.516000   0.000000
    35  H    9.106783   7.289082   5.032000   2.516000   0.000000
    36  H   10.809188   9.329297   7.289082   4.829902   2.487107
    37  H   10.593029   9.655127   8.087755   5.967329   4.297297
    38  H    9.655127   9.321547   8.360235   6.813297   5.967329
    39  H    9.321547   9.655127   9.329297   8.360235   8.087755
    40  H    8.360235   9.329297   9.655127   9.321547   9.655127
    41  H    6.813297   8.360235   9.321547   9.655127  10.593029
    42  H    5.844747   7.967671   9.549775  10.503867  11.921609
    43  H    4.966435   7.385855   9.385757  10.801690  12.566666
    44  N    5.952261   5.394363   4.671056   3.935545   4.671056
    45  N    4.489406   4.706856   4.981642   5.204642   6.482311
    46  O    5.247488   4.956462   4.648901   4.370447   5.408313
                   36         37         38         39         40
    36  H    0.000000
    37  H    2.487107   0.000000
    38  H    4.829902   2.516000   0.000000
    39  H    7.289082   5.032000   2.516000   0.000000
    40  H    9.329297   7.289082   4.829902   2.487107   0.000000
    41  H   10.809188   9.106783   6.841087   4.829902   2.516000
    42  H   12.565878  11.167850   9.096024   7.308552   5.069567
    43  H   13.565130  12.477920  10.637321   9.125087   7.051640
    44  N    5.394363   4.671056   3.935545   4.671056   5.394363
    45  N    7.351861   6.518022   5.274880   5.081794   4.812730
    46  O    6.223063   5.480178   4.510151   4.828155   5.124970
                   41         42         43         44         45
    41  H    0.000000
    42  H    2.562712   0.000000
    43  H    4.597995   2.138235   0.000000
    44  N    5.952261   7.321361   8.218967   0.000000
    45  N    4.570649   5.487359   6.226666   2.130399   0.000000
    46  O    5.364400   6.541224   7.350006   1.076983   1.134730
                   46
    46  O    0.000000
 Stoichiometry    C29H14N2O
 Framework group  C1[X(C29H14N2O)]
 Deg. of freedom   132
 Full point group                 C1      NOp   1
 Largest Abelian subgroup         C1      NOp   1
 Largest concise Abelian subgroup C1      NOp   1
                         Standard orientation:                         
 ---------------------------------------------------------------------
 Center     Atomic      Atomic             Coordinates (Angstroms)
 Number     Number       Type             X           Y           Z
 ---------------------------------------------------------------------
      1          6           0        0.706908    3.779439    0.162749
      2          6           0       -0.745949    3.777756   -0.253554
      3          6           0       -1.470628    2.519047    0.164292
      4          6           0       -3.648165    1.258655    0.165835
      5          6           0       -5.825702   -0.001736    0.167379
      6          6           0       -2.923485    2.517365   -0.252011
      7          6           0       -5.101022    1.256973   -0.250468
      8          6           0        2.887208    2.523833    0.161733
      9          6           0        5.067508    1.268226    0.160716
     10          6           0        1.434351    2.522150   -0.254570
     11          6           0        3.614651    1.266543   -0.255587
     12          6           0        5.794951    0.010937   -0.256603
     13          6           0        0.709672    1.263441    0.163276
     14          6           0        2.889971    0.007834    0.162260
     15          6           0        5.070271   -1.247772    0.161243
     16          6           0       -1.467865    0.003049    0.164819
     17          6           0        0.712435   -1.252558    0.163803
     18          6           0        2.892734   -2.508164    0.162787
     19          6           0       -3.645402   -1.257343    0.166362
     20          6           0       -1.465102   -2.512950    0.165346
     21          6           0        0.715198   -3.768556    0.164330
     22          6           0       -0.743185    1.261758   -0.253027
     23          6           0        3.617414   -1.249455   -0.255060
     24          6           0       -2.920722    0.001366   -0.251484
     25          6           0       -0.740422   -1.254240   -0.252500
     26          6           0        1.439877   -2.509847   -0.253517
     27          6           0       -5.098259   -1.259026   -0.249941
     28          6           0       -2.917959   -2.514632   -0.250957
     29          6           0       -0.737659   -3.770239   -0.251973
     30          1           0       -5.611323   -2.150176    0.045889
     31          1           0       -3.431023   -3.405783    0.044873
     32          1           0       -1.250724   -4.661389    0.043857
     33          1           0        1.230218   -4.658702   -0.131127
     34          1           0        3.407755   -3.398310   -0.132671
     35          1           0        5.585292   -2.137918   -0.134214
     36          1           0        6.823556    0.012128    0.038135
     37          1           0        5.580572    2.159377   -0.135114
     38          1           0        3.400273    3.414983   -0.134097
     39          1           0        1.219973    4.670590   -0.133081
     40          1           0       -1.260969    4.667902    0.041903
     41          1           0       -3.438506    3.407510    0.043446
     42          1           0       -5.576985    2.023551    0.324613
     43          1           0       -6.723762    0.255993    0.688879
     44          7           0        1.437114    0.006152   -0.254044
     45          7           0       -0.504994   -0.049815    0.619846
     46          8           0        0.613883   -0.085655    0.434254
 ---------------------------------------------------------------------
 Rotational constants (GHZ):      0.2976949      0.1328037      0.0926963
 Standard basis: VSTO-6G (5D, 7F)
 There are   142 symmetry adapted cartesian basis functions of A   symmetry.
 There are   142 symmetry adapted basis functions of A   symmetry.
   142 basis functions,   852 primitive gaussians,   142 cartesian basis functions
    73 alpha electrons       73 beta electrons
       nuclear repulsion energy      1519.1852566856 Hartrees.
 Integral buffers will be    262144 words long.
 Regular integral format.
 Two-electron integral symmetry is turned off.
 Do NDO integrals.
 One-electron integrals computed using PRISM.
 NBasis=   142 RedAO= F EigKep=  0.00D+00  NBF=   142
 NBsUse=   142 1.00D-04 EigRej=  0.00D+00 NBFU=   142
 Simple Huckel Guess.
 Keep J ints in memory in canonical form, NReq=1104555.
 Gradient too large for Newton-Raphson -- use scaled steepest descent instead.
     Minimum is close to point  3 DX=  3.36D-02 DF= -1.01D-02 DXR=  7.74D-02 DFR=  6.17D-03 which will be used.
 Gradient too large for Newton-Raphson -- use scaled steepest descent instead.
 Gradient too large for Newton-Raphson -- use scaled steepest descent instead.
     Accept linear search using points  3 and  4.
 Gradient too large for Newton-Raphson -- use scaled steepest descent instead.
 Gradient too large for Newton-Raphson -- use scaled steepest descent instead.
     Minimum is close to point  2 DX=  1.00D-01 DF= -4.24D-04 DXR=  8.33D-02 DFR=  6.99D-03 which will be used.
 Gradient too large for Newton-Raphson -- use scaled steepest descent instead.
     Minimum is close to point  2 DX=  1.15D-01 DF= -3.46D-04 DXR=  9.49D-02 DFR=  9.09D-03 which will be used.
 Gradient too large for Newton-Raphson -- use scaled steepest descent instead.
 Gradient too large for Newton-Raphson -- use scaled steepest descent instead.
     Accept linear search using points  1 and  2.
 Gradient too large for Newton-Raphson -- use scaled steepest descent instead.
     Minimum is close to point  2 DX=  5.24D-02 DF= -2.40D-05 DXR=  4.18D-02 DFR=  1.75D-03 which will be used.
 Gradient too large for Newton-Raphson -- use scaled steepest descent instead.
     Minimum is close to point  2 DX=  8.07D-02 DF= -4.38D-05 DXR=  6.30D-02 DFR=  3.99D-03 which will be used.
 Gradient too large for Newton-Raphson -- use scaled steepest descent instead.
 Gradient too large for Newton-Raphson -- use scaled steepest descent instead.
     Accept linear search using points  1 and  2.
 Gradient too large for Newton-Raphson -- use scaled steepest descent instead.
     Accept linear search using points  1 and  2.
     Minimum is close to point  2 DX= -3.47D-02 DF= -1.11D-05 DXR=  2.74D-02 DFR=  1.15D-03 which will be used.
 Gradient too large for Newton-Raphson -- use scaled steepest descent instead.
     Accept linear search using points  1 and  2.
     Minimum is close to point  2 DX= -3.58D-02 DF= -1.16D-05 DXR=  3.08D-02 DFR=  1.28D-03 which will be used.
 Gradient too large for Newton-Raphson -- use scaled steepest descent instead.
     Minimum is close to point  2 DX=  3.76D-02 DF= -7.77D-06 DXR=  3.04D-02 DFR=  9.22D-04 which will be used.
 Gradient too large for Newton-Raphson -- use scaled steepest descent instead.
     Minimum is close to point  2 DX=  1.32D-01 DF= -7.30D-05 DXR=  9.94D-02 DFR=  9.98D-03 which will be used.
 Gradient too large for Newton-Raphson -- use scaled steepest descent instead.
     Minimum is close to point  2 DX=  7.59D-02 DF= -1.96D-05 DXR=  5.52D-02 DFR=  3.05D-03 which will be used.
 Gradient too large for Newton-Raphson -- use scaled steepest descent instead.
     Accept linear search using points  1 and  2.
     Minimum is close to point  2 DX= -7.78D-02 DF= -2.84D-05 DXR=  5.88D-02 DFR=  5.56D-03 which will be used.
 Gradient too large for Newton-Raphson -- use scaled steepest descent instead.
     Accept linear search using points  1 and  2.
 Gradient too large for Newton-Raphson -- use scaled steepest descent instead.
     Minimum is close to point  2 DX=  7.91D-02 DF= -1.26D-05 DXR=  6.18D-02 DFR=  3.84D-03 which will be used.
 Gradient too large for Newton-Raphson -- use scaled steepest descent instead.
     Minimum is close to point  2 DX=  1.17D-01 DF= -2.08D-05 DXR=  8.91D-02 DFR=  8.00D-03 which will be used.
 Gradient too large for Newton-Raphson -- use scaled steepest descent instead.
     Minimum is close to point  2 DX=  1.30D-01 DF= -1.72D-05 DXR=  9.11D-02 DFR=  8.38D-03 which will be used.
 Gradient too large for Newton-Raphson -- use scaled steepest descent instead.
     Accept linear search using points  1 and  2.
     Minimum is close to point  2 DX= -6.65D-02 DF= -6.48D-06 DXR=  4.99D-02 DFR=  4.12D-03 which will be used.
 Gradient too large for Newton-Raphson -- use scaled steepest descent instead.
     Accept linear search using points  1 and  2.
 Gradient too large for Newton-Raphson -- use scaled steepest descent instead.
     Accept linear search using points  1 and  2.
     Minimum is close to point  2 DX= -1.99D-02 DF= -3.76D-07 DXR=  1.69D-02 DFR=  3.91D-04 which will be used.
 Gradient too large for Newton-Raphson -- use scaled steepest descent instead.
     Minimum is close to point  2 DX=  4.94D-02 DF= -1.16D-06 DXR=  3.95D-02 DFR=  1.57D-03 which will be used.
 Gradient too large for Newton-Raphson -- use scaled steepest descent instead.
     Minimum is close to point  2 DX=  1.18D-01 DF= -4.69D-06 DXR=  8.96D-02 DFR=  8.09D-03 which will be used.
 Gradient too large for Newton-Raphson -- use scaled steepest descent instead.
     Minimum is close to point  2 DX=  1.25D-01 DF= -3.53D-06 DXR=  8.74D-02 DFR=  7.70D-03 which will be used.
 Gradient too large for Newton-Raphson -- use scaled steepest descent instead.
     Accept linear search using points  1 and  2.
     Minimum is close to point  2 DX= -6.01D-02 DF= -1.17D-06 DXR=  4.49D-02 DFR=  3.34D-03 which will be used.
 Gradient too large for Newton-Raphson -- use scaled steepest descent instead.
     Accept linear search using points  1 and  2.
 LinEq1:  Iter=  0 NonCon=     1 RMS=2.79D-04 Max=1.16D-02 NDo=     1
 AX will form     1 AO Fock derivatives at one time.
 LinEq1:  Iter=  1 NonCon=     1 RMS=1.68D-04 Max=4.78D-03 NDo=     1
 LinEq1:  Iter=  2 NonCon=     1 RMS=3.20D-05 Max=9.82D-04 NDo=     1
 LinEq1:  Iter=  3 NonCon=     1 RMS=1.12D-05 Max=2.43D-04 NDo=     1
 LinEq1:  Iter=  4 NonCon=     1 RMS=4.44D-06 Max=6.69D-05 NDo=     1
 LinEq1:  Iter=  5 NonCon=     1 RMS=2.13D-06 Max=4.48D-05 NDo=     1
 LinEq1:  Iter=  6 NonCon=     1 RMS=6.82D-07 Max=8.60D-06 NDo=     1
 LinEq1:  Iter=  7 NonCon=     1 RMS=1.92D-07 Max=2.63D-06 NDo=     1
 LinEq1:  Iter=  8 NonCon=     1 RMS=7.26D-08 Max=1.14D-06 NDo=     1
 LinEq1:  Iter=  9 NonCon=     1 RMS=3.11D-08 Max=4.56D-07 NDo=     1
 LinEq1:  Iter= 10 NonCon=     1 RMS=1.09D-08 Max=1.94D-07 NDo=     1
 LinEq1:  Iter= 11 NonCon=     0 RMS=3.43D-09 Max=6.06D-08 NDo=     1
 Linear equations converged to 1.004D-08 1.004D-07 after    11 iterations.
     Accept linear search using points  1 and  2.
 LinEq1:  Iter=  0 NonCon=     1 RMS=2.03D-05 Max=3.54D-04 NDo=     1
 LinEq1:  Iter=  1 NonCon=     1 RMS=1.09D-05 Max=3.47D-04 NDo=     1
 LinEq1:  Iter=  2 NonCon=     1 RMS=3.17D-06 Max=3.98D-05 NDo=     1
 LinEq1:  Iter=  3 NonCon=     1 RMS=1.05D-06 Max=1.96D-05 NDo=     1
 LinEq1:  Iter=  4 NonCon=     1 RMS=4.01D-07 Max=6.28D-06 NDo=     1
 LinEq1:  Iter=  5 NonCon=     1 RMS=1.64D-07 Max=3.27D-06 NDo=     1
 LinEq1:  Iter=  6 NonCon=     1 RMS=5.19D-08 Max=6.61D-07 NDo=     1
 LinEq1:  Iter=  7 NonCon=     1 RMS=1.71D-08 Max=3.57D-07 NDo=     1
 LinEq1:  Iter=  8 NonCon=     0 RMS=5.32D-09 Max=7.57D-08 NDo=     1
 Linear equations converged to 8.801D-09 8.801D-08 after     8 iterations.
     Minimum is close to point  2 DX=  1.50D-03 DF= -6.33D-12 DXR=  1.50D-03 DFR=  2.25D-06 which will be used.
 LinEq1:  Iter=  0 NonCon=     1 RMS=1.45D-07 Max=2.19D-06 NDo=     1
 LinEq1:  Iter=  1 NonCon=     1 RMS=7.19D-08 Max=1.57D-06 NDo=     1
 LinEq1:  Iter=  2 NonCon=     1 RMS=2.22D-08 Max=3.23D-07 NDo=     1
 LinEq1:  Iter=  3 NonCon=     1 RMS=8.61D-09 Max=1.65D-07 NDo=     1
 LinEq1:  Iter=  4 NonCon=     1 RMS=3.67D-09 Max=5.90D-08 NDo=     1
 LinEq1:  Iter=  5 NonCon=     1 RMS=1.27D-09 Max=1.92D-08 NDo=     1
 LinEq1:  Iter=  6 NonCon=     1 RMS=4.00D-10 Max=7.00D-09 NDo=     1
 LinEq1:  Iter=  7 NonCon=     1 RMS=1.11D-10 Max=1.49D-09 NDo=     1
 LinEq1:  Iter=  8 NonCon=     1 RMS=4.35D-11 Max=9.39D-10 NDo=     1
 LinEq1:  Iter=  9 NonCon=     0 RMS=1.44D-11 Max=2.82D-10 NDo=     1
 Linear equations converged to 7.240D-11 7.240D-10 after     9 iterations.
 SCF Done:  E(RPM6) =   2.54907704091     a.u. after   34 cycles
            Convg  =    0.7333D-07                    97 Fock formations.
              S**2 =  0.0000                  -V/T =  1.0243

 **********************************************************************

            Population analysis using the SCF density.

 **********************************************************************

 Orbital symmetries:
       Occupied  (A) (A) (A) (A) (A) (A) (A) (A) (A) (A) (A) (A)
                 (A) (A) (A) (A) (A) (A) (A) (A) (A) (A) (A) (A)
                 (A) (A) (A) (A) (A) (A) (A) (A) (A) (A) (A) (A)
                 (A) (A) (A) (A) (A) (A) (A) (A) (A) (A) (A) (A)
                 (A) (A) (A) (A) (A) (A) (A) (A) (A) (A) (A) (A)
                 (A) (A) (A) (A) (A) (A) (A) (A) (A) (A) (A) (A)
                 (A)
       Virtual   (A) (A) (A) (A) (A) (A) (A) (A) (A) (A) (A) (A)
                 (A) (A) (A) (A) (A) (A) (A) (A) (A) (A) (A) (A)
                 (A) (A) (A) (A) (A) (A) (A) (A) (A) (A) (A) (A)
                 (A) (A) (A) (A) (A) (A) (A) (A) (A) (A) (A) (A)
                 (A) (A) (A) (A) (A) (A) (A) (A) (A) (A) (A) (A)
                 (A) (A) (A) (A) (A) (A) (A) (A) (A)
 The electronic state is 1-A.
 Alpha  occ. eigenvalues --   -1.75192  -1.53679  -1.26230  -1.22270  -1.06197
 Alpha  occ. eigenvalues --   -1.04291  -1.03384  -1.03076  -1.01585  -0.98992
 Alpha  occ. eigenvalues --   -0.97245  -0.95184  -0.92977  -0.92185  -0.90415
 Alpha  occ. eigenvalues --   -0.87870  -0.87256  -0.86110  -0.84914  -0.82965
 Alpha  occ. eigenvalues --   -0.80011  -0.78538  -0.76713  -0.76059  -0.72332
 Alpha  occ. eigenvalues --   -0.70972  -0.69753  -0.68253  -0.67660  -0.65650
 Alpha  occ. eigenvalues --   -0.63520  -0.62689  -0.62138  -0.58407  -0.57494
 Alpha  occ. eigenvalues --   -0.57097  -0.56022  -0.54925  -0.54365  -0.53674
 Alpha  occ. eigenvalues --   -0.53179  -0.51107  -0.51022  -0.50195  -0.50030
 Alpha  occ. eigenvalues --   -0.49508  -0.49358  -0.47961  -0.47873  -0.47284
 Alpha  occ. eigenvalues --   -0.46970  -0.46422  -0.45906  -0.45496  -0.45250
 Alpha  occ. eigenvalues --   -0.44076  -0.43503  -0.42616  -0.42188  -0.42008
 Alpha  occ. eigenvalues --   -0.41208  -0.40251  -0.39620  -0.38583  -0.38404
 Alpha  occ. eigenvalues --   -0.36670  -0.36013  -0.35622  -0.33683  -0.31910
 Alpha  occ. eigenvalues --   -0.30035  -0.28984  -0.28591
 Alpha virt. eigenvalues --   -0.08534  -0.07135  -0.05890  -0.04541  -0.03463
 Alpha virt. eigenvalues --   -0.02225  -0.01986  -0.01260  -0.00420   0.00001
 Alpha virt. eigenvalues --    0.00974   0.01735   0.02466   0.03255   0.04896
 Alpha virt. eigenvalues --    0.05095   0.05272   0.06289   0.07747   0.09067
 Alpha virt. eigenvalues --    0.09991   0.11491   0.11692   0.11893   0.12467
 Alpha virt. eigenvalues --    0.12573   0.12723   0.12818   0.13095   0.13530
 Alpha virt. eigenvalues --    0.13715   0.13891   0.13940   0.14000   0.14349
 Alpha virt. eigenvalues --    0.14459   0.14557   0.14748   0.14902   0.15266
 Alpha virt. eigenvalues --    0.15344   0.15443   0.15619   0.15792   0.16139
 Alpha virt. eigenvalues --    0.16386   0.16600   0.16666   0.16976   0.17140
 Alpha virt. eigenvalues --    0.17429   0.17704   0.17876   0.18490   0.19828
 Alpha virt. eigenvalues --    0.20089   0.20725   0.20947   0.21029   0.21117
 Alpha virt. eigenvalues --    0.21485   0.21537   0.21706   0.21721   0.21858
 Alpha virt. eigenvalues --    0.22088   0.22131   0.22202   0.22655
          Condensed to atoms (all electrons):
               1          2          3          4          5          6
     1  C    4.132355   0.000000   0.000000   0.000000   0.000000   0.000000
     2  C    0.000000   4.127270   0.000000   0.000000   0.000000   0.000000
     3  C    0.000000   0.000000   3.962028   0.000000   0.000000   0.000000
     4  C    0.000000   0.000000   0.000000   3.992159   0.000000   0.000000
     5  C    0.000000   0.000000   0.000000   0.000000   4.134601   0.000000
     6  C    0.000000   0.000000   0.000000   0.000000   0.000000   4.177953
     7  C    0.000000   0.000000   0.000000   0.000000   0.000000   0.000000
     8  C    0.000000   0.000000   0.000000   0.000000   0.000000   0.000000
     9  C    0.000000   0.000000   0.000000   0.000000   0.000000   0.000000
    10  C    0.000000   0.000000   0.000000   0.000000   0.000000   0.000000
    11  C    0.000000   0.000000   0.000000   0.000000   0.000000   0.000000
    12  C    0.000000   0.000000   0.000000   0.000000   0.000000   0.000000
    13  C    0.000000   0.000000   0.000000   0.000000   0.000000   0.000000
    14  C    0.000000   0.000000   0.000000   0.000000   0.000000   0.000000
    15  C    0.000000   0.000000   0.000000   0.000000   0.000000   0.000000
    16  C    0.000000   0.000000   0.000000   0.000000   0.000000   0.000000
    17  C    0.000000   0.000000   0.000000   0.000000   0.000000   0.000000
    18  C    0.000000   0.000000   0.000000   0.000000   0.000000   0.000000
    19  C    0.000000   0.000000   0.000000   0.000000   0.000000   0.000000
    20  C    0.000000   0.000000   0.000000   0.000000   0.000000   0.000000
    21  C    0.000000   0.000000   0.000000   0.000000   0.000000   0.000000
    22  C    0.000000   0.000000   0.000000   0.000000   0.000000   0.000000
    23  C    0.000000   0.000000   0.000000   0.000000   0.000000   0.000000
    24  C    0.000000   0.000000   0.000000   0.000000   0.000000   0.000000
    25  C    0.000000   0.000000   0.000000   0.000000   0.000000   0.000000
    26  C    0.000000   0.000000   0.000000   0.000000   0.000000   0.000000
    27  C    0.000000   0.000000   0.000000   0.000000   0.000000   0.000000
    28  C    0.000000   0.000000   0.000000   0.000000   0.000000   0.000000
    29  C    0.000000   0.000000   0.000000   0.000000   0.000000   0.000000
    30  H    0.000000   0.000000   0.000000   0.000000   0.000000   0.000000
    31  H    0.000000   0.000000   0.000000   0.000000   0.000000   0.000000
    32  H    0.000000   0.000000   0.000000   0.000000   0.000000   0.000000
    33  H    0.000000   0.000000   0.000000   0.000000   0.000000   0.000000
    34  H    0.000000   0.000000   0.000000   0.000000   0.000000   0.000000
    35  H    0.000000   0.000000   0.000000   0.000000   0.000000   0.000000
    36  H    0.000000   0.000000   0.000000   0.000000   0.000000   0.000000
    37  H    0.000000   0.000000   0.000000   0.000000   0.000000   0.000000
    38  H    0.000000   0.000000   0.000000   0.000000   0.000000   0.000000
    39  H    0.000000   0.000000   0.000000   0.000000   0.000000   0.000000
    40  H    0.000000   0.000000   0.000000   0.000000   0.000000   0.000000
    41  H    0.000000   0.000000   0.000000   0.000000   0.000000   0.000000
    42  H    0.000000   0.000000   0.000000   0.000000   0.000000   0.000000
    43  H    0.000000   0.000000   0.000000   0.000000   0.000000   0.000000
    44  N    0.000000   0.000000   0.000000   0.000000   0.000000   0.000000
    45  N    0.000000   0.000000   0.000000   0.000000   0.000000   0.000000
    46  O    0.000000   0.000000   0.000000   0.000000   0.000000   0.000000
               7          8          9         10         11         12
     1  C    0.000000   0.000000   0.000000   0.000000   0.000000   0.000000
     2  C    0.000000   0.000000   0.000000   0.000000   0.000000   0.000000
     3  C    0.000000   0.000000   0.000000   0.000000   0.000000   0.000000
     4  C    0.000000   0.000000   0.000000   0.000000   0.000000   0.000000
     5  C    0.000000   0.000000   0.000000   0.000000   0.000000   0.000000
     6  C    0.000000   0.000000   0.000000   0.000000   0.000000   0.000000
     7  C    4.138456   0.000000   0.000000   0.000000   0.000000   0.000000
     8  C    0.000000   4.181499   0.000000   0.000000   0.000000   0.000000
     9  C    0.000000   0.000000   4.111266   0.000000   0.000000   0.000000
    10  C    0.000000   0.000000   0.000000   3.945865   0.000000   0.000000
    11  C    0.000000   0.000000   0.000000   0.000000   4.008058   0.000000
    12  C    0.000000   0.000000   0.000000   0.000000   0.000000   4.146269
    13  C    0.000000   0.000000   0.000000   0.000000   0.000000   0.000000
    14  C    0.000000   0.000000   0.000000   0.000000   0.000000   0.000000
    15  C    0.000000   0.000000   0.000000   0.000000   0.000000   0.000000
    16  C    0.000000   0.000000   0.000000   0.000000   0.000000   0.000000
    17  C    0.000000   0.000000   0.000000   0.000000   0.000000   0.000000
    18  C    0.000000   0.000000   0.000000   0.000000   0.000000   0.000000
    19  C    0.000000   0.000000   0.000000   0.000000   0.000000   0.000000
    20  C    0.000000   0.000000   0.000000   0.000000   0.000000   0.000000
    21  C    0.000000   0.000000   0.000000   0.000000   0.000000   0.000000
    22  C    0.000000   0.000000   0.000000   0.000000   0.000000   0.000000
    23  C    0.000000   0.000000   0.000000   0.000000   0.000000   0.000000
    24  C    0.000000   0.000000   0.000000   0.000000   0.000000   0.000000
    25  C    0.000000   0.000000   0.000000   0.000000   0.000000   0.000000
    26  C    0.000000   0.000000   0.000000   0.000000   0.000000   0.000000
    27  C    0.000000   0.000000   0.000000   0.000000   0.000000   0.000000
    28  C    0.000000   0.000000   0.000000   0.000000   0.000000   0.000000
    29  C    0.000000   0.000000   0.000000   0.000000   0.000000   0.000000
    30  H    0.000000   0.000000   0.000000   0.000000   0.000000   0.000000
    31  H    0.000000   0.000000   0.000000   0.000000   0.000000   0.000000
    32  H    0.000000   0.000000   0.000000   0.000000   0.000000   0.000000
    33  H    0.000000   0.000000   0.000000   0.000000   0.000000   0.000000
    34  H    0.000000   0.000000   0.000000   0.000000   0.000000   0.000000
    35  H    0.000000   0.000000   0.000000   0.000000   0.000000   0.000000
    36  H    0.000000   0.000000   0.000000   0.000000   0.000000   0.000000
    37  H    0.000000   0.000000   0.000000   0.000000   0.000000   0.000000
    38  H    0.000000   0.000000   0.000000   0.000000   0.000000   0.000000
    39  H    0.000000   0.000000   0.000000   0.000000   0.000000   0.000000
    40  H    0.000000   0.000000   0.000000   0.000000   0.000000   0.000000
    41  H    0.000000   0.000000   0.000000   0.000000   0.000000   0.000000
    42  H    0.000000   0.000000   0.000000   0.000000   0.000000   0.000000
    43  H    0.000000   0.000000   0.000000   0.000000   0.000000   0.000000
    44  N    0.000000   0.000000   0.000000   0.000000   0.000000   0.000000
    45  N    0.000000   0.000000   0.000000   0.000000   0.000000   0.000000
    46  O    0.000000   0.000000   0.000000   0.000000   0.000000   0.000000
              13         14         15         16         17         18
     1  C    0.000000   0.000000   0.000000   0.000000   0.000000   0.000000
     2  C    0.000000   0.000000   0.000000   0.000000   0.000000   0.000000
     3  C    0.000000   0.000000   0.000000   0.000000   0.000000   0.000000
     4  C    0.000000   0.000000   0.000000   0.000000   0.000000   0.000000
     5  C    0.000000   0.000000   0.000000   0.000000   0.000000   0.000000
     6  C    0.000000   0.000000   0.000000   0.000000   0.000000   0.000000
     7  C    0.000000   0.000000   0.000000   0.000000   0.000000   0.000000
     8  C    0.000000   0.000000   0.000000   0.000000   0.000000   0.000000
     9  C    0.000000   0.000000   0.000000   0.000000   0.000000   0.000000
    10  C    0.000000   0.000000   0.000000   0.000000   0.000000   0.000000
    11  C    0.000000   0.000000   0.000000   0.000000   0.000000   0.000000
    12  C    0.000000   0.000000   0.000000   0.000000   0.000000   0.000000
    13  C    4.090900   0.000000   0.000000   0.000000   0.000000   0.000000
    14  C    0.000000   3.905828   0.000000   0.000000   0.000000   0.000000
    15  C    0.000000   0.000000   4.118346   0.000000   0.000000   0.000000
    16  C    0.000000   0.000000   0.000000   3.998063   0.000000   0.000000
    17  C    0.000000   0.000000   0.000000   0.000000   3.883652   0.000000
    18  C    0.000000   0.000000   0.000000   0.000000   0.000000   4.105934
    19  C    0.000000   0.000000   0.000000   0.000000   0.000000   0.000000
    20  C    0.000000   0.000000   0.000000   0.000000   0.000000   0.000000
    21  C    0.000000   0.000000   0.000000   0.000000   0.000000   0.000000
    22  C    0.000000   0.000000   0.000000   0.000000   0.000000   0.000000
    23  C    0.000000   0.000000   0.000000   0.000000   0.000000   0.000000
    24  C    0.000000   0.000000   0.000000   0.000000   0.000000   0.000000
    25  C    0.000000   0.000000   0.000000   0.000000   0.000000   0.000000
    26  C    0.000000   0.000000   0.000000   0.000000   0.000000   0.000000
    27  C    0.000000   0.000000   0.000000   0.000000   0.000000   0.000000
    28  C    0.000000   0.000000   0.000000   0.000000   0.000000   0.000000
    29  C    0.000000   0.000000   0.000000   0.000000   0.000000   0.000000
    30  H    0.000000   0.000000   0.000000   0.000000   0.000000   0.000000
    31  H    0.000000   0.000000   0.000000   0.000000   0.000000   0.000000
    32  H    0.000000   0.000000   0.000000   0.000000   0.000000   0.000000
    33  H    0.000000   0.000000   0.000000   0.000000   0.000000   0.000000
    34  H    0.000000   0.000000   0.000000   0.000000   0.000000   0.000000
    35  H    0.000000   0.000000   0.000000   0.000000   0.000000   0.000000
    36  H    0.000000   0.000000   0.000000   0.000000   0.000000   0.000000
    37  H    0.000000   0.000000   0.000000   0.000000   0.000000   0.000000
    38  H    0.000000   0.000000   0.000000   0.000000   0.000000   0.000000
[...]
 4,-0.00019851,0.00000963,0.00001687,-0.00005049,0.00006784,0.00002099,
 -0.00005750,0.00001035,-0.00275856,0.01198379,0.00075040,0.00004149,-0
 .00017303,-0.00006768,-0.00002136,-0.00000345,0.00000177,0.00082238,-0
 .00018706,-0.00036346,0.00006226,0.00003153,-0.00000605,0.00002999,0.0
 0001556,-0.00000579,0.00000651,0.00003693,0.00000161,0.00000108,0.0000
 3619,-0.00000094,-0.00000400,0.00003124,0.00000155,-0.00002842,0.00001
 657,-0.00000349,-0.00002726,-0.00001180,-0.00000620,-0.00003580,-0.000
 02315,-0.00000729,-0.00002461,-0.00001808,-0.00000464,0.00000051,-0.00
 002461,0.00000350,0.00000833,0.00000581,0.00001581,-0.00034997,-0.0005
 2550,-0.00010858,0.21304926,-0.00003272,-0.00002197,-0.00000828,-0.000
 01792,-0.00000243,-0.00000480,0.00002166,-0.00014699,-0.00001131,-0.00
 084062,-0.00099565,0.00048333,0.07925999,-0.08035471,-0.01207519,-0.00
 047644,0.00015299,0.00004440,-0.00981456,0.00687380,0.00178814,0.00001
 519,-0.00008260,-0.00000342,0.00003765,-0.00006852,-0.00000047,-0.0000
 8292,0.00000965,-0.00000945,-0.00008025,0.00005737,-0.00000912,0.00000
 979,0.00006295,0.00000502,0.00012808,-0.00012651,0.00002352,0.00007088
 ,-0.00002497,0.00002290,-0.00003801,0.00000603,-0.00000679,0.00022134,
 -0.00009378,-0.00006806,0.00003002,-0.00006122,0.00004501,-0.00000049,
 0.00001538,-0.00000188,-0.00041873,-0.00293602,0.00072102,-0.00008739,
 -0.00010029,0.00003008,-0.00001291,0.00001782,0.00000236,-0.00016172,0
 .00010730,0.00000650,0.00000641,0.00000007,-0.00000003,-0.00020216,0.0
 0027961,0.00001916,-0.00001929,0.00004746,-0.00004463,-0.00000896,0.00
 001952,-0.00000371,0.02643801,-0.03127687,-0.00261234,0.00047192,-0.00
 031173,-0.00011174,0.00004283,-0.00000924,-0.00000405,0.00017270,-0.00
 075114,-0.00007345,0.00002000,0.00001769,-0.00000406,-0.00000966,-0.00
 000409,0.00000319,-0.00000049,-0.00001631,-0.00000167,-0.00000099,-0.0
 0001830,0.00000104,0.00000206,-0.00001859,-0.00000084,0.00001720,-0.00
 000989,0.00000230,0.00001663,0.00000699,0.00000409,0.00002445,0.000015
 82,0.00000549,0.00001624,0.00001579,0.00000436,0.00000030,0.00002487,-
 0.00000058,0.00000260,0.00005910,-0.00000298,-0.00088227,0.00049769,0.
 00005483,-0.09376838,0.10898768,-0.00000635,0.00000245,-0.00000214,-0.
 00000065,-0.00000655,0.00002520,-0.00000808,0.00003349,-0.00005311,0.0
 0144280,0.00015451,0.00528304,0.01843120,-0.01179337,-0.04484927,0.000
 13031,-0.00003559,-0.00043579,0.00820730,-0.00095281,0.00427961,-0.000
 00471,-0.00000206,-0.00000260,-0.00000294,0.00000089,-0.00000062,0.000
 00005,0.00000108,-0.00000568,-0.00000627,-0.00000094,-0.00000418,-0.00
 000734,-0.00000438,-0.00000400,-0.00000853,-0.00001337,0.00002465,0.00
 001888,-0.00001990,0.00000862,0.00001065,-0.00000044,0.00000145,-0.000
 11340,-0.00002780,-0.00072372,0.00005835,-0.00000766,0.00006747,0.0000
 1078,0.00000683,0.,0.00112112,0.00060063,0.00521520,-0.00000531,0.0000
 0772,-0.00005220,0.00000023,0.00001009,0.00000052,-0.00005217,0.000008
 67,-0.00001609,-0.00001158,0.00000994,-0.00000371,0.00012485,0.0001841
 4,0.00023531,-0.00007871,0.00004206,-0.00004343,-0.00001406,0.00001183
 ,-0.00000584,-0.00007302,-0.00001438,0.00567390,-0.00013395,-0.0000027
 0,-0.00035103,0.00000508,0.00001095,0.00001661,-0.00044962,0.00001188,
 -0.00118751,-0.00000435,0.00000173,0.00005590,-0.00000281,-0.00000032,
 0.00000800,-0.00000121,-0.00000378,0.00000065,-0.00000059,-0.00000509,
 0.00000220,0.00000052,-0.00000294,0.00000117,0.00000307,-0.00000189,0.
 00000167,0.00000327,0.00000194,0.00000210,0.00000232,0.00000261,0.0000
 0408,0.00000194,0.00000154,0.00000050,-0.00000125,0.00000332,0.0000070
 1,-0.00000266,0.00000105,0.00005625,-0.00013376,0.00002254,-0.00125317
 ,-0.02850910,0.01182682,0.02809931,-0.00277996,0.00086836,-0.00053160,
 0.00061010,0.00044385,0.00002269,-0.00411819,0.00058321,-0.00074923,-0
 .00305985,-0.00128741,0.00016011,-0.00085211,-0.00073858,0.00024009,0.
 00286345,0.00086096,0.00018425,0.00154299,0.00010519,-0.00018467,-0.01
 004209,0.01604405,-0.00058180,-0.00146028,0.00098219,-0.00067656,0.009
 13179,-0.03045138,0.00035797,-0.06930055,-0.01422385,-0.01388102,-0.00
 592266,-0.00205169,-0.00116610,-0.08886219,-0.00705028,-0.01691280,-0.
 22546853,0.07805783,-0.02324605,0.00809310,-0.00293261,0.00055901,-0.0
 0206522,-0.00172072,-0.00116601,-0.14410149,-0.04979385,-0.03827277,-0
 .01032157,-0.00297045,-0.00120340,0.00063964,-0.00090563,-0.00011092,0
 .00063449,0.00375811,-0.00140551,-0.00054963,-0.00164523,-0.00075597,-
 0.00000043,0.03601964,-0.00093057,-0.00604177,0.04817118,0.00156527,0.
 00001456,0.00068480,0.00036630,-0.03497122,-0.00541060,-0.01121163,-0.
 00123541,-0.02335676,-0.00036596,-0.00020532,0.00129934,-0.00009421,-0
 .00112724,-0.00047854,0.00042400,0.00038249,-0.00025395,-0.00009415,-0
 .00011503,-0.00007630,0.00001014,0.00002657,0.00024336,0.00003093,-0.0
 0016057,-0.00030488,0.00013959,-0.00020376,-0.00005663,0.00000418,-0.0
 0009185,0.00035031,0.00023759,0.00000544,0.00023989,0.00002416,0.00105
 010,-0.00062161,0.00022015,-0.00065952,0.00026568,0.00002190,-0.000200
 64,-0.00000182,0.00002840,0.00012463,-0.00049809,0.00003901,0.00020158
 ,0.00047918,0.00003681,-0.00022872,0.00067099,-0.00000550,-0.00011131,
 0.00004590,0.00000941,0.00007654,-0.00003241,-0.00003041,0.61475312,-0
 .00309518,-0.00211515,-0.00109428,-0.00187245,-0.00024136,-0.00051361,
 0.00279970,0.02022150,0.00060413,-0.00662527,-0.00255353,-0.00002223,-
 0.00116172,-0.00145349,0.00030433,0.00595525,-0.00452617,0.00002198,0.
 00331747,-0.00021869,-0.00036318,-0.00045507,-0.00620164,-0.00055605,-
 0.00667319,0.00329789,-0.00055526,-0.02682005,-0.03821494,-0.00624251,
 0.00977089,0.01670941,0.00382650,0.00125692,-0.00494168,-0.00005093,-0
 .01471923,-0.24377537,0.00164387,0.07861375,-0.12823688,-0.00131723,0.
 00143202,-0.00208366,0.00020245,-0.00703877,-0.00899718,-0.00027422,-0
 .04058957,-0.11905313,-0.01814119,0.01028557,-0.00359691,0.00110313,0.
 00070043,-0.00225547,0.00005432,-0.00156526,-0.00179446,0.00092656,0.0
 0113027,-0.00236571,0.00023947,0.05089247,-0.06714680,0.00950117,0.029
 03139,-0.05065013,0.00090978,-0.00019038,0.00233491,0.00035858,0.00173
 188,0.01140541,-0.00301373,-0.03150443,-0.02280965,-0.01009377,0.00034
 610,0.00229528,-0.00033012,0.00038576,0.00095323,-0.00007858,-0.000204
 53,-0.00032449,0.00039852,-0.00041589,-0.00036388,0.00010714,0.0002679
 5,-0.00006629,-0.00010053,0.00041261,0.00059367,-0.00025629,-0.0006940
 8,-0.00034120,0.00027502,0.00009471,0.00052952,0.00008413,0.00063315,-
 0.00018111,0.00011112,-0.00110946,0.00066879,-0.00016814,-0.00036174,0
 .00012734,-0.00012216,0.00024014,-0.00010740,0.00016629,0.00025860,-0.
 00019289,0.00012213,-0.00030469,-0.00055547,0.00006617,0.00042864,0.00
 146829,0.00005628,-0.00014079,0.00037554,0.00005886,-0.00020219,0.0001
 4803,0.00000351,-0.04917275,0.64037403,-0.00133595,-0.00025190,0.00219
 290,-0.00001993,-0.00002954,0.00001846,-0.00100388,-0.00146292,0.00311
 412,0.00033016,0.00002024,0.00001270,0.00002601,0.00020585,-0.00000455
 ,-0.00051821,0.00037168,0.00015985,-0.00023774,0.00008790,0.00008419,-
 0.00049060,-0.00041518,-0.00021139,-0.00237569,0.00121418,0.00227207,-
 0.00052870,-0.00766407,0.00411294,-0.00832478,0.00320280,0.00398542,-0
 .00146982,-0.00219678,-0.00021208,-0.00990274,-0.00750007,-0.03608087,
 -0.03725152,0.00870901,-0.03302476,0.00288058,-0.00032134,0.00268358,0
 .00146146,0.00276849,-0.00117195,-0.05227063,-0.03890864,-0.05103844,0
 .00427305,0.00018626,0.00062310,-0.00019519,-0.00023586,-0.00005490,0.
 00125300,0.00059048,-0.00038291,0.00023940,0.00014650,0.00133648,-0.00
 604968,0.00734187,0.00516401,-0.00474289,-0.00015861,0.00450517,0.0007
 4835,0.00002459,0.00019036,-0.00381165,0.00056581,-0.00006269,-0.00405
 768,-0.00066186,0.00367203,0.00005076,-0.00009336,0.00005626,-0.000236
 13,0.00008423,0.00021187,-0.00000680,-0.00003232,0.00011258,0.00002117
 ,0.00001574,-0.00004163,0.00006563,0.00006185,-0.00008569,-0.00005284,
 -0.00002249,-0.00020450,-0.00002120,0.00005855,-0.00026353,0.00007315,
 -0.00002068,-0.00052022,-0.00000899,-0.00006705,-0.00022226,0.00015823
 ,-0.00000467,-0.00043647,-0.00005636,0.00019514,-0.00027129,0.00005555
 ,0.00002499,-0.00031235,0.00006750,-0.00026907,-0.00020221,0.00007670,
 0.00007674,-0.00036396,-0.00004834,-0.00002321,-0.00029781,-0.00001870
 ,-0.00003991,-0.00004009,0.00005313,-0.00003316,-0.00002934,0.15739123
 ,0.03526060,0.12708403,0.00002347,-0.00016169,-0.00005570,0.00009398,-
 0.00035777,0.00004138,-0.00099350,-0.00133507,0.00019816,0.00061541,-0
 .00007857,-0.00007270,0.00066682,0.00043856,-0.00019922,-0.00087936,0.
 00013883,0.00012626,-0.00093155,0.00021260,-0.00056412,0.00083608,-0.0
 0252581,0.00006455,0.00184230,-0.00270864,0.00016923,-0.00216034,0.000
 72750,0.00081644,-0.00235801,0.00195462,-0.00029800,0.00141689,0.00289
 470,0.00043082,0.00313297,-0.00926766,-0.00124199,0.00140680,0.0009640
 7,-0.00054485,-0.00301875,0.00003610,-0.00041334,-0.05327625,-0.012252
 77,-0.02151807,-0.04826180,0.04033500,-0.05651869,-0.00227211,-0.00050
 954,-0.00018932,-0.00186523,0.00156124,0.00149149,-0.00675305,-0.00734
 882,0.02062509,0.00047781,0.00009085,-0.00016664,-0.00819907,-0.007301
 15,-0.02343177,0.00234477,-0.00110446,0.00036257,-0.00470798,0.0099384
 9,0.01996703,-0.00476063,-0.00631062,-0.00241210,0.00101442,-0.0016451
 0,0.00225566,0.00001816,-0.00084585,-0.00061934,-0.00097828,-0.0012002
 3,0.00150126,-0.00044112,0.00019785,-0.00019863,0.00001418,0.00000157,
 0.00001797,-0.00013195,-0.00010858,-0.00072168,-0.00006656,0.00003230,
 -0.00008272,-0.00006154,-0.00010592,-0.00004581,0.00007676,0.00016358,
 -0.00020127,-0.00001741,-0.00005437,-0.00002473,0.00006776,-0.00004156
 ,-0.00001229,0.00000590,-0.00002593,-0.00000159,0.00022165,0.00016691,
 -0.00010503,0.00004998,0.00001544,-0.00000351,-0.00005788,0.00002952,-
 0.00002063,-0.00001287,-0.00015484,-0.00004227,0.00001557,-0.00000711,
 0.00006830,-0.00008002,0.00006089,0.00013462,-0.00136226,0.00976320,-0
 .00093550,0.35181085,-0.00001654,0.00016691,-0.00001116,-0.00017529,-0
 .00003534,-0.00001436,-0.00040394,0.00136934,-0.00067316,-0.00041034,-
 0.00030936,-0.00040151,-0.00016647,0.00097446,-0.00002309,0.00026233,-
 0.00036706,0.00015676,-0.00027869,-0.00008921,0.00033477,-0.00039963,0
 .00154684,0.00005178,-0.00103556,0.00167526,-0.00004734,0.00074629,-0.
 00071035,0.00075200,0.00120771,-0.00132840,0.00015279,-0.00103076,-0.0
 0174030,-0.00029793,-0.00083704,0.00180366,-0.00195065,0.00053421,-0.0
 0146412,0.00011639,0.00199319,-0.00010029,0.00029953,-0.02930146,-0.06
 429224,-0.04351813,0.05366676,-0.02794253,0.04785196,0.00103162,0.0003
 0913,0.00009909,-0.00098866,0.00146159,-0.00031361,-0.01194592,-0.0065
 4688,0.01935632,0.00012251,-0.00024470,0.00002039,-0.01733811,-0.01654
 903,-0.02052068,-0.00145186,0.00107140,-0.00012089,0.01599051,-0.01167
 627,-0.01515094,0.00552154,-0.02042982,0.04065619,-0.00039075,-0.00110
 570,0.00144801,0.00087215,-0.00096707,0.00007692,0.00184444,-0.0017738
 2,0.00000757,-0.00051208,0.00019457,-0.00001250,-0.00008833,0.00002069
 ,0.00004302,-0.00022426,-0.00019779,-0.00057689,0.00000248,-0.00002294
 ,-0.00008871,0.00002872,0.00010086,0.00001447,-0.00003432,-0.00009161,
 -0.00007285,0.00000113,0.00004569,0.00000952,-0.00000368,0.00000504,0.
 00000631,-0.00002674,0.00000734,0.00000411,-0.00014080,-0.00011177,-0.
 00008227,-0.00003859,-0.00003045,-0.00000971,0.00000734,-0.00002038,-0
 .00000255,0.00002010,0.00022367,0.00004796,-0.00007289,0.00005096,-0.0
 0000563,0.00013802,-0.00008751,-0.00007169,-0.00218091,-0.00562134,-0.
 00281907,-0.09339245,0.22048516,0.00001291,0.00000187,0.00002419,-0.00
 000519,0.00015299,0.00011171,0.00044553,-0.00027338,-0.00075781,-0.000
 54687,0.00105317,-0.00052189,-0.00006067,-0.00008604,-0.00002542,-0.00
 061017,-0.00002078,0.00022656,0.00008789,0.00026836,-0.00011735,0.0000
 7351,-0.00002825,0.00001251,-0.00011965,0.00019243,0.00000298,-0.00014
 969,-0.00008817,0.00065520,0.00012536,0.00000392,0.00017016,-0.0001494
 9,-0.00018977,-0.00000366,-0.00033948,-0.00061704,-0.00229355,-0.00037
 882,-0.00050852,-0.00078814,0.00030171,-0.00000071,0.00008189,-0.03314
 554,-0.12687489,-0.10745804,-0.04560571,0.03360474,-0.02469375,0.00042
 954,-0.00002957,-0.00017763,0.00022063,-0.00059125,-0.00060877,0.01950
 795,0.01326393,-0.01732564,-0.00009718,0.00007956,0.00001235,-0.013464
 74,-0.01177750,-0.01223304,-0.00035999,-0.00001117,0.00006789,0.013964
 33,-0.01208024,-0.00640950,-0.00984940,0.12738802,-0.21265377,-0.00018
 531,0.00182277,-0.00157892,-0.00035095,-0.00029623,0.00007511,-0.00124
 142,0.00242305,-0.00058034,-0.00040355,-0.00020409,-0.00064282,-0.0000
 7058,0.00006858,0.00001048,-0.00033641,-0.00011841,0.00021413,0.000053
 74,-0.00005042,-0.00001819,-0.00000962,0.00001785,0.00000443,-0.000007
 73,-0.00001244,0.00006823,0.00000066,-0.00002304,-0.00002937,0.0000255
 2,-0.00001018,-0.00001763,0.00001199,0.00000842,-0.00000937,0.00006421
 ,0.00002722,-0.00008268,0.00000577,-0.00000949,-0.00003331,0.00003732,
 0.00001626,-0.00004372,0.00000770,-0.00000696,-0.00000038,-0.00005440,
 0.00006721,0.00004797,-0.00002495,0.00001027,0.00001472,-0.00536657,-0
 .00076691,-0.00307294,0.03197555,-0.00223270,0.44143229,-0.00003140,0.
 00031624,-0.00007116,-0.00018555,0.00005582,-0.00014637,-0.00013419,0.
 00326508,0.00000890,-0.00334367,-0.00102672,0.00017557,-0.00108815,-0.
 00076096,0.00028607,0.00252091,-0.00052244,0.00008583,0.00165838,0.000
 04354,-0.00025688,-0.00142231,0.00393500,-0.00009405,-0.00214677,0.003
 37730,0.00010296,0.00302527,-0.00071203,0.00059411,0.00194313,-0.00343
 272,0.00020257,-0.00211664,-0.00342309,-0.00062942,-0.00699458,0.01061
 442,-0.00205398,0.00202343,-0.00422360,-0.00253728,0.00406396,-0.00018
 620,0.00077409,-0.00233698,0.01380298,0.01414412,-0.01508966,-0.006075
 83,0.03567073,0.00231402,0.00062506,0.00009515,0.00085843,-0.00049796,
 -0.00013378,0.00207432,0.00181511,0.00344607,-0.00089462,-0.00019623,-
 0.00007392,0.00721008,-0.00437261,0.00232892,-0.00292976,0.00255988,-0
 .00050698,0.00164772,0.00030887,0.00073846,-0.05908081,0.01576303,0.05
 725132,0.00141123,0.00471536,-0.00588804,-0.00028845,0.00132215,-0.000
 08841,-0.00069616,-0.00022091,0.00014003,0.00000334,-0.00039865,-0.000
 00225,-0.00006670,-0.00002654,-0.00002728,0.00001277,0.00006575,-0.000
 42987,0.00000032,-0.00010966,-0.00003057,0.00011580,0.00018488,0.00006
 057,-0.00010187,-0.00005583,0.00038985,-0.00001305,0.00006393,0.000029
 74,0.00003262,-0.00001340,0.00000377,-0.00004353,0.00002526,0.00003577
 ,-0.00025132,-0.00018287,-0.00002290,-0.00006306,-0.00002585,0.0000294
 8,0.00002995,0.00001382,0.00004025,0.00001715,0.00043288,0.00001852,-0
 .00009611,-0.00000025,0.00002713,0.00018366,-0.00009682,-0.00004332,-0
 .02453963,-0.01482697,-0.03324472,-0.22249825,0.07888983,0.04558252,0.
 31529732,0.00002054,-0.00025830,-0.00010183,0.00017071,-0.00009762,0.0
 0003353,0.00021298,-0.00203296,0.00001346,0.00215708,0.00090966,-0.000
 31335,0.00078511,0.00027688,-0.00020973,-0.00149191,0.00028972,-0.0002
 0438,-0.00078782,0.00007549,0.00036214,0.00105075,-0.00327220,0.000018
 74,0.00246240,-0.00377630,0.00014030,-0.00285652,0.00092826,-0.0000542
 3,-0.00300534,0.00264017,-0.00047929,0.00234804,0.00410191,0.00060233,
 0.00522777,-0.00819101,0.00131580,0.00070644,0.00195125,-0.00003203,-0
 .00468278,0.00026236,-0.00067607,0.02720352,-0.01608667,-0.00851078,-0
 .01990735,-0.04403927,0.01315203,-0.00465570,-0.00166551,0.00010050,-0
 .00040277,-0.00034687,0.00007447,-0.00153308,-0.00106008,-0.00036705,0
 .00044926,-0.00050571,0.00000297,-0.00278033,0.00175766,-0.00237365,0.
 00377791,-0.00170944,0.00077668,-0.00064722,-0.00150311,-0.00528053,0.
 00567597,0.01049172,0.00321375,0.00348287,-0.01569846,0.02304724,0.000
 15792,-0.00063208,0.00028111,0.00016644,-0.00006597,0.00005895,-0.0001
 4068,-0.00004727,0.00017087,0.00006511,-0.00001865,-0.00000922,0.00008
 565,0.00000366,0.00010436,0.00002858,0.00009317,0.00002602,-0.00014289
 ,-0.00016585,-0.00014670,0.00037129,0.00028244,-0.00126941,-0.00004599
 ,-0.00003205,-0.00001905,-0.00001697,0.00000539,-0.00000238,-0.0000600
 1,-0.00007340,0.00005645,0.00028510,0.00020173,0.00002774,0.00005884,0
 .00004082,0.00004330,-0.00003189,0.00001158,0.00002589,-0.00000928,-0.
 00027785,0.00004271,0.00007539,-0.00004721,-0.00000977,-0.00018391,0.0
 0009704,0.00000584,0.00804771,0.01947494,0.00202013,0.07911162,-0.0676
 6267,-0.02357124,-0.10080227,0.12537262,-0.00016321,0.00025195,-0.0000
 2852,-0.00010951,-0.00009324,0.00000780,0.00002497,0.00251801,0.000006
 33,-0.00150353,-0.00113305,0.00000442,-0.00027843,0.00003617,0.0000707
 6,0.00157165,-0.00057572,0.00017699,0.00050047,-0.00007740,0.00015807,
 -0.00097154,0.00262674,-0.00003193,-0.00140287,0.00204098,0.00026707,0
 .00195037,-0.00053316,0.00002717,0.00034912,-0.00219209,0.00026513,-0.
 00171347,-0.00222736,-0.00036433,-0.00417492,0.00598540,-0.00293136,0.
 00370118,-0.00482294,-0.00445519,0.00303351,-0.00024187,0.00069738,0.0
 1709833,-0.01008637,-0.01072275,0.03105450,0.03719871,-0.14043588,0.00
 253802,0.00036385,-0.00028836,0.00022272,0.00035214,-0.00035330,0.0016
 4967,-0.00175381,-0.00184330,-0.00068260,-0.00045134,-0.00003587,0.003
 38399,-0.00484330,0.00221765,-0.00226332,0.00230814,-0.00021297,-0.000
 12920,0.00078016,-0.00121454,0.07735620,-0.00404649,-0.08059029,-0.003
 82743,0.01575527,-0.00924523,0.00032510,0.00020209,0.00009683,0.001041
 76,-0.00024708,0.00003640,0.00028814,-0.00008806,0.00008805,-0.0001092
 1,-0.00005734,-0.00002510,0.00006281,-0.00008905,-0.00005002,-0.000097
 22,-0.00010641,-0.00008289,-0.00003593,-0.00002293,-0.00008256,-0.0001
 1719,-0.00021593,0.00029079,-0.00000523,-0.00005713,-0.00005001,0.0001
 6169,-0.00008223,-0.00005844,0.00005373,0.00008729,-0.00005170,-0.0001
 0966,-0.00007769,-0.00003984,0.00002814,0.00000712,-0.00003161,0.00002
 270,0.00008027,-0.00003451,0.00002961,0.00037863,-0.00008083,-0.000055
 60,0.00007626,-0.00004476,0.00001416,-0.00001174,-0.00006007,-0.043129
 86,-0.01233902,-0.03298225,0.03039432,-0.02248655,-0.05105153,-0.11597
 866,-0.00208822,0.33307197||-0.00002177,0.00001990,-0.00001034,0.00003
 326,-0.00001488,0.00001202,0.00000823,-0.00000252,0.00001562,0.0000096
 2,0.00000299,0.00000116,-0.00001958,0.00001501,0.00000424,-0.00000595,
 0.00000982,-0.00000849,-0.00000098,0.00001521,-0.00001072,-0.00001238,
 0.00001512,-0.00000570,0.00001884,0.00000517,0.00001146,-0.00000160,0.
 00000036,-0.00001011,0.00000267,0.00001593,0.00000945,0.00001950,-0.00
 000859,-0.00000480,0.00000906,0.00001222,0.00000586,-0.00002434,-0.000
 01450,-0.00000911,-0.00000302,-0.00001335,-0.00000865,0.00000194,0.000
 03002,-0.00006702,-0.00001911,0.00008937,-0.00001279,-0.00000583,0.000
 00516,0.00000796,0.00000787,-0.00000985,0.00000967,0.00000041,0.000019
 35,0.00003181,-0.00002150,-0.00000841,0.00000458,0.00001553,-0.0000352
 1,0.00000556,0.00000323,-0.00000891,0.00000173,0.00001164,-0.00003116,
 0.00001290,0.00001161,-0.00004234,-0.00000517,0.00001953,-0.00002108,-
 0.00000234,-0.00001394,-0.00001375,0.00000004,0.00000614,0.00000504,-0
 .00000929,-0.00001483,-0.00002894,-0.00002245,-0.00000274,-0.00000067,
 -0.00000040,-0.00000715,-0.00000863,-0.00000073,0.00002138,0.00001106,
 0.00000187,-0.00000171,0.00001360,0.00000455,-0.00000146,-0.00000888,-
 0.00000357,-0.00000261,-0.00000176,0.00000214,0.00000058,0.00000147,0.
 00000366,0.00000274,0.00000040,-0.00000332,-0.00000637,0.00000048,-0.0
 0000182,-0.00000827,-0.00000166,0.00000531,0.00000485,-0.00000238,-0.0
 0000348,0.00000045,-0.00000601,-0.00000036,0.00000433,0.00000506,0.000
 00424,-0.00000024,-0.00000154,0.00000079,-0.00005752,-0.00000549,-0.00
 004419,-0.00002558,0.00002292,0.00003969,0.00006509,-0.00002514,0.0000
 4854|||@


 WISDOM IS KNOWING WHAT TO DO,
 SKILL IS KNOWING HOW TO DO IT,
 AND VIRTUE IS NOT DOING IT.
 Job cpu time:       0 days  0 hours  0 minutes  7.0 seconds.
 File lengths (MBytes):  RWF=    403 Int=      0 D2E=      0 Chk=      5 Scr=      1
 Normal termination of Gaussian 09 at Sat Mar 14 11:06:54 2026.
