 Entering Link 1 = C:\Gaussian\G09W\l1.exe PID=     15704.
  
 Copyright (c) 1988,1990,1992,1993,1995,1998,2003,2009,2013,
            Gaussian, Inc.  All Rights Reserved.
  
 This is part of the Gaussian(R) 09 program.  It is based on
 the Gaussian(R) 03 system (copyright 2003, Gaussian, Inc.),
 the Gaussian(R) 98 system (copyright 1998, Gaussian, Inc.),
 the Gaussian(R) 94 system (copyright 1995, Gaussian, Inc.),
 the Gaussian 92(TM) system (copyright 1992, Gaussian, Inc.),
 the Gaussian 90(TM) system (copyright 1990, Gaussian, Inc.),
 the Gaussian 88(TM) system (copyright 1988, Gaussian, Inc.),
 the Gaussian 86(TM) system (copyright 1986, Carnegie Mellon
 University), and the Gaussian 82(TM) system (copyright 1983,
 Carnegie Mellon University). Gaussian is a federally registered
 trademark of Gaussian, Inc.
  
 This software contains proprietary and confidential information,
 including trade secrets, belonging to Gaussian, Inc.
  
 This software is provided under written license and may be
 used, copied, transmitted, or stored only in accord with that
 written license.
  
 The following legend is applicable only to US Government
 contracts under FAR:
  
                    RESTRICTED RIGHTS LEGEND
  
 Use, reproduction and disclosure by the US Government is
 subject to restrictions as set forth in subparagraphs (a)
 and (c) of the Commercial Computer Software - Restricted
 Rights clause in FAR 52.227-19.
  
 Gaussian, Inc.
 340 Quinnipiac St., Bldg. 40, Wallingford CT 06492
  
  
 ---------------------------------------------------------------
 Warning -- This program may not be used in any manner that
 competes with the business of Gaussian, Inc. or will provide
 assistance to any competitor of Gaussian, Inc.  The licensee
 of this program is prohibited from giving any competitor of
 Gaussian, Inc. access to this program.  By using this program,
 the user acknowledges that Gaussian, Inc. is engaged in the
 business of creating and licensing software in the field of
 computational chemistry and represents and warrants to the
 licensee that it is not a competitor of Gaussian, Inc. and that
 it will not use this program in any manner prohibited above.
 ---------------------------------------------------------------
  

 Cite this work as:
 Gaussian 09, Revision D.01,
 M. J. Frisch, G. W. Trucks, H. B. Schlegel, G. E. Scuseria, 
 M. A. Robb, J. R. Cheeseman, G. Scalmani, V. Barone, B. Mennucci, 
 G. A. Petersson, H. Nakatsuji, M. Caricato, X. Li, H. P. Hratchian, 
 A. F. Izmaylov, J. Bloino, G. Zheng, J. L. Sonnenberg, M. Hada, 
 M. Ehara, K. Toyota, R. Fukuda, J. Hasegawa, M. Ishida, T. Nakajima, 
 Y. Honda, O. Kitao, H. Nakai, T. Vreven, J. A. Montgomery, Jr., 
 J. E. Peralta, F. Ogliaro, M. Bearpark, J. J. Heyd, E. Brothers, 
 K. N. Kudin, V. N. Staroverov, T. Keith, R. Kobayashi, J. Normand, 
 K. Raghavachari, A. Rendell, J. C. Burant, S. S. Iyengar, J. Tomasi, 
 M. Cossi, N. Rega, J. M. Millam, M. Klene, J. E. Knox, J. B. Cross, 
 V. Bakken, C. Adamo, J. Jaramillo, R. Gomperts, R. E. Stratmann, 
 O. Yazyev, A. J. Austin, R. Cammi, C. Pomelli, J. W. Ochterski, 
 R. L. Martin, K. Morokuma, V. G. Zakrzewski, G. A. Voth, 
 P. Salvador, J. J. Dannenberg, S. Dapprich, A. D. Daniels, 
 O. Farkas, J. B. Foresman, J. V. Ortiz, J. Cioslowski, 
 and D. J. Fox, Gaussian, Inc., Wallingford CT, 2013.
 
 ******************************************
 Gaussian 09:  IA32W-G09RevD.01 24-Apr-2013
                15-Mar-2026 
 ******************************************
 %chk=C:\Users\User\Desktop\IMRG\ECE+ML\Ni_Gr_NS.chk
 ---------------------------------------
 # opt freq pm6 scf=qc geom=connectivity
 ---------------------------------------
 1/14=-1,18=20,19=15,26=1,38=1,57=2/1,3;
 2/9=110,12=2,17=6,18=5,40=1/2;
 3/5=2,16=1,25=1,41=3900000,71=1/1,2,3;
 4/35=1/1;
 5/5=2,8=3,35=1,38=5/8;
 6/7=2,8=2,9=2,10=2,28=1/1;
 7//1,2,3,16;
 1/14=-1,18=20,19=15,26=1/3(2);
 2/9=110/2;
 99//99;
 2/9=110/2;
 3/5=2,16=1,25=1,41=3900000,71=1,135=20/1,2,3;
 4/5=5,16=3,35=1/1;
 5/5=2,8=3,35=1,38=5/8;
 7//1,2,3,16;
 1/14=-1,18=20,19=15,26=1/3(-5);
 2/9=110/2;
 6/7=2,8=2,9=2,10=2,19=2,28=1/1;
 99/9=1/99;
 --------
 Ni_Gr_NS
 --------
 Symbolic Z-matrix:
 Charge =  0 Multiplicity = 1
 C                     0.17695   1.02371   2.99497 
 C                     1.43495   0.29741   2.57781 
 C                     2.69295   1.02371   2.99497 
 C                     5.20895   1.02371   2.99497 
 C                     7.72495   1.02371   2.99497 
 C                     3.95095   0.29741   2.57781 
 C                     6.46695   0.29741   2.57781 
 C                    -1.08105   3.20263   2.99497 
 C                    -2.33905   5.38155   2.99497 
 C                     0.17695   2.47633   2.57781 
 C                    -1.08105   4.65525   2.57781 
 C                    -2.33905   6.83417   2.57781 
 C                     1.43495   3.20263   2.99497 
 C                     0.17695   5.38155   2.99497 
 C                    -1.08105   7.56047   2.99497 
 C                     3.95095   3.20263   2.99497 
 C                     2.69295   5.38155   2.99497 
 C                     1.43495   7.56047   2.99497 
 C                     6.46695   3.20263   2.99497 
 C                     5.20895   5.38155   2.99497 
 C                     3.95095   7.56047   2.99497 
 C                     2.69295   2.47633   2.57781 
 C                     0.17695   6.83417   2.57781 
 C                     5.20895   2.47633   2.57781 
 C                     3.95095   4.65525   2.57781 
 C                     2.69295   6.83417   2.57781 
 C                     7.72495   2.47633   2.57781 
 C                     6.46695   4.65525   2.57781 
 C                     5.20895   6.83417   2.57781 
 H                     8.6156    2.99054   2.87315 
 H                     7.3576    5.16946   2.87315 
 H                     6.0996    7.34838   2.87315 
 H                     3.95095   8.58891   2.69962 
 H                     1.43495   8.58891   2.69962 
 H                    -1.08105   8.58891   2.69962 
 H                    -3.2297    7.34838   2.87315 
 H                    -3.2297    4.86734   2.69962 
 H                    -1.9717    2.68842   2.69962 
 H                    -0.7137    0.5095    2.69962 
 H                     1.43495  -0.73103   2.87315 
 H                     3.95095  -0.73103   2.87315 
 H                     6.49522  -0.60455   3.15277 
 H                     8.37341   0.35071   3.51599 
 Ni                    1.43495   4.65525   2.57781 
 

 GradGradGradGradGradGradGradGradGradGradGradGradGradGradGradGradGradGrad
 Berny optimization.
 Initialization pass.
                           ----------------------------
                           !    Initial Parameters    !
                           ! (Angstroms and Degrees)  !
 --------------------------                            --------------------------
 ! Name  Definition              Value          Derivative Info.                !
 --------------------------------------------------------------------------------
 ! R1    R(1,2)                  1.5113         estimate D2E/DX2                !
 ! R2    R(1,10)                 1.5113         estimate D2E/DX2                !
 ! R3    R(1,39)                 1.07           estimate D2E/DX2                !
 ! R4    R(2,3)                  1.5113         estimate D2E/DX2                !
 ! R5    R(2,40)                 1.07           estimate D2E/DX2                !
 ! R6    R(3,6)                  1.5113         estimate D2E/DX2                !
 ! R7    R(3,22)                 1.5113         estimate D2E/DX2                !
 ! R8    R(4,6)                  1.5113         estimate D2E/DX2                !
 ! R9    R(4,7)                  1.5113         estimate D2E/DX2                !
 ! R10   R(4,24)                 1.5113         estimate D2E/DX2                !
 ! R11   R(5,7)                  1.5113         estimate D2E/DX2                !
 ! R12   R(5,27)                 1.5113         estimate D2E/DX2                !
 ! R13   R(5,43)                 1.07           estimate D2E/DX2                !
 ! R14   R(6,41)                 1.07           estimate D2E/DX2                !
 ! R15   R(7,42)                 1.07           estimate D2E/DX2                !
 ! R16   R(8,10)                 1.5113         estimate D2E/DX2                !
 ! R17   R(8,11)                 1.5113         estimate D2E/DX2                !
 ! R18   R(8,38)                 1.07           estimate D2E/DX2                !
 ! R19   R(9,11)                 1.5113         estimate D2E/DX2                !
 ! R20   R(9,12)                 1.5113         estimate D2E/DX2                !
 ! R21   R(9,37)                 1.07           estimate D2E/DX2                !
 ! R22   R(10,13)                1.5113         estimate D2E/DX2                !
 ! R23   R(11,14)                1.5113         estimate D2E/DX2                !
 ! R24   R(12,15)                1.5113         estimate D2E/DX2                !
 ! R25   R(12,36)                1.07           estimate D2E/DX2                !
 ! R26   R(13,22)                1.5113         estimate D2E/DX2                !
 ! R27   R(13,44)                1.5113         estimate D2E/DX2                !
 ! R28   R(14,23)                1.5113         estimate D2E/DX2                !
 ! R29   R(14,44)                1.5113         estimate D2E/DX2                !
 ! R30   R(15,23)                1.5113         estimate D2E/DX2                !
 ! R31   R(15,35)                1.07           estimate D2E/DX2                !
 ! R32   R(16,22)                1.5113         estimate D2E/DX2                !
 ! R33   R(16,24)                1.5113         estimate D2E/DX2                !
 ! R34   R(16,25)                1.5113         estimate D2E/DX2                !
 ! R35   R(17,25)                1.5113         estimate D2E/DX2                !
 ! R36   R(17,26)                1.5113         estimate D2E/DX2                !
 ! R37   R(17,44)                1.5113         estimate D2E/DX2                !
 ! R38   R(18,23)                1.5113         estimate D2E/DX2                !
 ! R39   R(18,26)                1.5113         estimate D2E/DX2                !
 ! R40   R(18,34)                1.07           estimate D2E/DX2                !
 ! R41   R(19,24)                1.5113         estimate D2E/DX2                !
 ! R42   R(19,27)                1.5113         estimate D2E/DX2                !
 ! R43   R(19,28)                1.5113         estimate D2E/DX2                !
 ! R44   R(20,25)                1.5113         estimate D2E/DX2                !
 ! R45   R(20,28)                1.5113         estimate D2E/DX2                !
 ! R46   R(20,29)                1.5113         estimate D2E/DX2                !
 ! R47   R(21,26)                1.5113         estimate D2E/DX2                !
 ! R48   R(21,29)                1.5113         estimate D2E/DX2                !
 ! R49   R(21,33)                1.07           estimate D2E/DX2                !
 ! R50   R(27,30)                1.07           estimate D2E/DX2                !
 ! R51   R(28,31)                1.07           estimate D2E/DX2                !
 ! R52   R(29,32)                1.07           estimate D2E/DX2                !
 ! A1    A(2,1,10)             112.6884         estimate D2E/DX2                !
 ! A2    A(2,1,39)             112.6884         estimate D2E/DX2                !
 ! A3    A(10,1,39)            112.6884         estimate D2E/DX2                !
 ! A4    A(1,2,3)              112.6884         estimate D2E/DX2                !
 ! A5    A(1,2,40)             112.6884         estimate D2E/DX2                !
 ! A6    A(3,2,40)             112.6884         estimate D2E/DX2                !
 ! A7    A(2,3,6)              112.6884         estimate D2E/DX2                !
 ! A8    A(2,3,22)             112.6884         estimate D2E/DX2                !
 ! A9    A(6,3,22)             112.6884         estimate D2E/DX2                !
 ! A10   A(6,4,7)              112.6884         estimate D2E/DX2                !
 ! A11   A(6,4,24)             112.6884         estimate D2E/DX2                !
 ! A12   A(7,4,24)             112.6884         estimate D2E/DX2                !
 ! A13   A(7,5,27)             112.6884         estimate D2E/DX2                !
 ! A14   A(7,5,43)             109.6693         estimate D2E/DX2                !
 ! A15   A(27,5,43)            137.6415         estimate D2E/DX2                !
 ! A16   A(3,6,4)              112.6884         estimate D2E/DX2                !
 ! A17   A(3,6,41)             112.6884         estimate D2E/DX2                !
 ! A18   A(4,6,41)             112.6884         estimate D2E/DX2                !
 ! A19   A(4,7,5)              112.6884         estimate D2E/DX2                !
 ! A20   A(4,7,42)             106.187          estimate D2E/DX2                !
 ! A21   A(5,7,42)             103.5792         estimate D2E/DX2                !
 ! A22   A(10,8,11)            112.6884         estimate D2E/DX2                !
 ! A23   A(10,8,38)            112.6884         estimate D2E/DX2                !
 ! A24   A(11,8,38)            112.6884         estimate D2E/DX2                !
 ! A25   A(11,9,12)            112.6884         estimate D2E/DX2                !
 ! A26   A(11,9,37)            112.6884         estimate D2E/DX2                !
 ! A27   A(12,9,37)            112.6884         estimate D2E/DX2                !
 ! A28   A(1,10,8)             112.6884         estimate D2E/DX2                !
 ! A29   A(1,10,13)            112.6884         estimate D2E/DX2                !
 ! A30   A(8,10,13)            112.6884         estimate D2E/DX2                !
 ! A31   A(8,11,9)             112.6884         estimate D2E/DX2                !
 ! A32   A(8,11,14)            112.6884         estimate D2E/DX2                !
 ! A33   A(9,11,14)            112.6884         estimate D2E/DX2                !
 ! A34   A(9,12,15)            112.6884         estimate D2E/DX2                !
 ! A35   A(9,12,36)            112.6884         estimate D2E/DX2                !
 ! A36   A(15,12,36)           112.6884         estimate D2E/DX2                !
 ! A37   A(10,13,22)           112.6884         estimate D2E/DX2                !
 ! A38   A(10,13,44)           112.6884         estimate D2E/DX2                !
 ! A39   A(22,13,44)           112.6884         estimate D2E/DX2                !
 ! A40   A(11,14,23)           112.6884         estimate D2E/DX2                !
 ! A41   A(11,14,44)           112.6884         estimate D2E/DX2                !
 ! A42   A(23,14,44)           112.6884         estimate D2E/DX2                !
 ! A43   A(12,15,23)           112.6884         estimate D2E/DX2                !
 ! A44   A(12,15,35)           112.6884         estimate D2E/DX2                !
 ! A45   A(23,15,35)           112.6884         estimate D2E/DX2                !
 ! A46   A(22,16,24)           112.6884         estimate D2E/DX2                !
 ! A47   A(22,16,25)           112.6884         estimate D2E/DX2                !
 ! A48   A(24,16,25)           112.6884         estimate D2E/DX2                !
 ! A49   A(25,17,26)           112.6884         estimate D2E/DX2                !
 ! A50   A(25,17,44)           112.6884         estimate D2E/DX2                !
 ! A51   A(26,17,44)           112.6884         estimate D2E/DX2                !
 ! A52   A(23,18,26)           112.6884         estimate D2E/DX2                !
 ! A53   A(23,18,34)           112.6884         estimate D2E/DX2                !
 ! A54   A(26,18,34)           112.6884         estimate D2E/DX2                !
 ! A55   A(24,19,27)           112.6884         estimate D2E/DX2                !
 ! A56   A(24,19,28)           112.6884         estimate D2E/DX2                !
 ! A57   A(27,19,28)           112.6884         estimate D2E/DX2                !
 ! A58   A(25,20,28)           112.6884         estimate D2E/DX2                !
 ! A59   A(25,20,29)           112.6884         estimate D2E/DX2                !
 ! A60   A(28,20,29)           112.6884         estimate D2E/DX2                !
 ! A61   A(26,21,29)           112.6884         estimate D2E/DX2                !
 ! A62   A(26,21,33)           112.6884         estimate D2E/DX2                !
 ! A63   A(29,21,33)           112.6884         estimate D2E/DX2                !
 ! A64   A(3,22,13)            112.6884         estimate D2E/DX2                !
 ! A65   A(3,22,16)            112.6884         estimate D2E/DX2                !
 ! A66   A(13,22,16)           112.6884         estimate D2E/DX2                !
 ! A67   A(14,23,15)           112.6884         estimate D2E/DX2                !
 ! A68   A(14,23,18)           112.6884         estimate D2E/DX2                !
 ! A69   A(15,23,18)           112.6884         estimate D2E/DX2                !
 ! A70   A(4,24,16)            112.6884         estimate D2E/DX2                !
 ! A71   A(4,24,19)            112.6884         estimate D2E/DX2                !
 ! A72   A(16,24,19)           112.6884         estimate D2E/DX2                !
 ! A73   A(16,25,17)           112.6884         estimate D2E/DX2                !
 ! A74   A(16,25,20)           112.6884         estimate D2E/DX2                !
 ! A75   A(17,25,20)           112.6884         estimate D2E/DX2                !
 ! A76   A(17,26,18)           112.6884         estimate D2E/DX2                !
 ! A77   A(17,26,21)           112.6884         estimate D2E/DX2                !
 ! A78   A(18,26,21)           112.6884         estimate D2E/DX2                !
 ! A79   A(5,27,19)            112.6884         estimate D2E/DX2                !
 ! A80   A(5,27,30)            112.6884         estimate D2E/DX2                !
 ! A81   A(19,27,30)           112.6884         estimate D2E/DX2                !
 ! A82   A(19,28,20)           112.6884         estimate D2E/DX2                !
 ! A83   A(19,28,31)           112.6884         estimate D2E/DX2                !
 ! A84   A(20,28,31)           112.6884         estimate D2E/DX2                !
 ! A85   A(20,29,21)           112.6884         estimate D2E/DX2                !
 ! A86   A(20,29,32)           112.6884         estimate D2E/DX2                !
 ! A87   A(21,29,32)           112.6884         estimate D2E/DX2                !
 ! A88   A(13,44,14)           112.6884         estimate D2E/DX2                !
 ! A89   A(13,44,17)           112.6884         estimate D2E/DX2                !
 ! A90   A(14,44,17)           112.6884         estimate D2E/DX2                !
 ! D1    D(10,1,2,3)            51.1032         estimate D2E/DX2                !
 ! D2    D(10,1,2,40)          180.0            estimate D2E/DX2                !
 ! D3    D(39,1,2,3)           180.0            estimate D2E/DX2                !
 ! D4    D(39,1,2,40)          -51.1032         estimate D2E/DX2                !
 ! D5    D(2,1,10,8)           180.0            estimate D2E/DX2                !
 ! D6    D(2,1,10,13)          -51.1032         estimate D2E/DX2                !
 ! D7    D(39,1,10,8)           51.1032         estimate D2E/DX2                !
 ! D8    D(39,1,10,13)         180.0            estimate D2E/DX2                !
 ! D9    D(1,2,3,6)            180.0            estimate D2E/DX2                !
 ! D10   D(1,2,3,22)           -51.1032         estimate D2E/DX2                !
 ! D11   D(40,2,3,6)            51.1032         estimate D2E/DX2                !
 ! D12   D(40,2,3,22)         -180.0            estimate D2E/DX2                !
 ! D13   D(2,3,6,4)            180.0            estimate D2E/DX2                !
 ! D14   D(2,3,6,41)           -51.1032         estimate D2E/DX2                !
 ! D15   D(22,3,6,4)            51.1032         estimate D2E/DX2                !
 ! D16   D(22,3,6,41)          180.0            estimate D2E/DX2                !
 ! D17   D(2,3,22,13)           51.1032         estimate D2E/DX2                !
 ! D18   D(2,3,22,16)          180.0            estimate D2E/DX2                !
 ! D19   D(6,3,22,13)          180.0            estimate D2E/DX2                !
 ! D20   D(6,3,22,16)          -51.1032         estimate D2E/DX2                !
 ! D21   D(7,4,6,3)            180.0            estimate D2E/DX2                !
 ! D22   D(7,4,6,41)            51.1032         estimate D2E/DX2                !
 ! D23   D(24,4,6,3)           -51.1032         estimate D2E/DX2                !
 ! D24   D(24,4,6,41)          180.0            estimate D2E/DX2                !
 ! D25   D(6,4,7,5)            180.0            estimate D2E/DX2                !
 ! D26   D(6,4,7,42)           -67.2727         estimate D2E/DX2                !
 ! D27   D(24,4,7,5)            51.1032         estimate D2E/DX2                !
 ! D28   D(24,4,7,42)          163.8304         estimate D2E/DX2                !
 ! D29   D(6,4,24,16)           51.1032         estimate D2E/DX2                !
 ! D30   D(6,4,24,19)          180.0            estimate D2E/DX2                !
 ! D31   D(7,4,24,16)          180.0            estimate D2E/DX2                !
 ! D32   D(7,4,24,19)          -51.1032         estimate D2E/DX2                !
 ! D33   D(27,5,7,4)           -51.1032         estimate D2E/DX2                !
 ! D34   D(27,5,7,42)         -165.4227         estimate D2E/DX2                !
 ! D35   D(43,5,7,4)           128.6399         estimate D2E/DX2                !
 ! D36   D(43,5,7,42)           14.3203         estimate D2E/DX2                !
 ! D37   D(7,5,27,19)           51.1032         estimate D2E/DX2                !
 ! D38   D(7,5,27,30)          180.0            estimate D2E/DX2                !
 ! D39   D(43,5,27,19)        -128.5377         estimate D2E/DX2                !
 ! D40   D(43,5,27,30)           0.3591         estimate D2E/DX2                !
 ! D41   D(11,8,10,1)          180.0            estimate D2E/DX2                !
 ! D42   D(11,8,10,13)          51.1032         estimate D2E/DX2                !
 ! D43   D(38,8,10,1)          -51.1032         estimate D2E/DX2                !
 ! D44   D(38,8,10,13)        -180.0            estimate D2E/DX2                !
 ! D45   D(10,8,11,9)          180.0            estimate D2E/DX2                !
 ! D46   D(10,8,11,14)         -51.1032         estimate D2E/DX2                !
 ! D47   D(38,8,11,9)           51.1032         estimate D2E/DX2                !
 ! D48   D(38,8,11,14)         180.0            estimate D2E/DX2                !
 ! D49   D(12,9,11,8)         -180.0            estimate D2E/DX2                !
 ! D50   D(12,9,11,14)          51.1032         estimate D2E/DX2                !
 ! D51   D(37,9,11,8)          -51.1032         estimate D2E/DX2                !
 ! D52   D(37,9,11,14)         180.0            estimate D2E/DX2                !
 ! D53   D(11,9,12,15)         -51.1032         estimate D2E/DX2                !
 ! D54   D(11,9,12,36)        -180.0            estimate D2E/DX2                !
 ! D55   D(37,9,12,15)         180.0            estimate D2E/DX2                !
 ! D56   D(37,9,12,36)          51.1032         estimate D2E/DX2                !
 ! D57   D(1,10,13,22)          51.1032         estimate D2E/DX2                !
 ! D58   D(1,10,13,44)         180.0            estimate D2E/DX2                !
 ! D59   D(8,10,13,22)         180.0            estimate D2E/DX2                !
 ! D60   D(8,10,13,44)         -51.1032         estimate D2E/DX2                !
 ! D61   D(8,11,14,23)         180.0            estimate D2E/DX2                !
 ! D62   D(8,11,14,44)          51.1032         estimate D2E/DX2                !
 ! D63   D(9,11,14,23)         -51.1032         estimate D2E/DX2                !
 ! D64   D(9,11,14,44)         180.0            estimate D2E/DX2                !
 ! D65   D(9,12,15,23)          51.1032         estimate D2E/DX2                !
 ! D66   D(9,12,15,35)         180.0            estimate D2E/DX2                !
 ! D67   D(36,12,15,23)        180.0            estimate D2E/DX2                !
 ! D68   D(36,12,15,35)        -51.1032         estimate D2E/DX2                !
 ! D69   D(10,13,22,3)         -51.1032         estimate D2E/DX2                !
 ! D70   D(10,13,22,16)        180.0            estimate D2E/DX2                !
 ! D71   D(44,13,22,3)         180.0            estimate D2E/DX2                !
 ! D72   D(44,13,22,16)         51.1032         estimate D2E/DX2                !
 ! D73   D(10,13,44,14)         51.1032         estimate D2E/DX2                !
 ! D74   D(10,13,44,17)        180.0            estimate D2E/DX2                !
 ! D75   D(22,13,44,14)       -180.0            estimate D2E/DX2                !
 ! D76   D(22,13,44,17)        -51.1032         estimate D2E/DX2                !
 ! D77   D(11,14,23,15)         51.1032         estimate D2E/DX2                !
 ! D78   D(11,14,23,18)        180.0            estimate D2E/DX2                !
 ! D79   D(44,14,23,15)        180.0            estimate D2E/DX2                !
 ! D80   D(44,14,23,18)        -51.1032         estimate D2E/DX2                !
 ! D81   D(11,14,44,13)        -51.1032         estimate D2E/DX2                !
 ! D82   D(11,14,44,17)        180.0            estimate D2E/DX2                !
 ! D83   D(23,14,44,13)       -180.0            estimate D2E/DX2                !
 ! D84   D(23,14,44,17)         51.1032         estimate D2E/DX2                !
 ! D85   D(12,15,23,14)        -51.1032         estimate D2E/DX2                !
 ! D86   D(12,15,23,18)        180.0            estimate D2E/DX2                !
 ! D87   D(35,15,23,14)        180.0            estimate D2E/DX2                !
 ! D88   D(35,15,23,18)         51.1032         estimate D2E/DX2                !
 ! D89   D(24,16,22,3)          51.1032         estimate D2E/DX2                !
 ! D90   D(24,16,22,13)        180.0            estimate D2E/DX2                !
 ! D91   D(25,16,22,3)         180.0            estimate D2E/DX2                !
 ! D92   D(25,16,22,13)        -51.1032         estimate D2E/DX2                !
 ! D93   D(22,16,24,4)         -51.1032         estimate D2E/DX2                !
 ! D94   D(22,16,24,19)        180.0            estimate D2E/DX2                !
 ! D95   D(25,16,24,4)         180.0            estimate D2E/DX2                !
 ! D96   D(25,16,24,19)         51.1032         estimate D2E/DX2                !
 ! D97   D(22,16,25,17)         51.1032         estimate D2E/DX2                !
 ! D98   D(22,16,25,20)        180.0            estimate D2E/DX2                !
 ! D99   D(24,16,25,17)        180.0            estimate D2E/DX2                !
 ! D100  D(24,16,25,20)        -51.1032         estimate D2E/DX2                !
 ! D101  D(26,17,25,16)       -180.0            estimate D2E/DX2                !
 ! D102  D(26,17,25,20)         51.1032         estimate D2E/DX2                !
 ! D103  D(44,17,25,16)        -51.1032         estimate D2E/DX2                !
 ! D104  D(44,17,25,20)        180.0            estimate D2E/DX2                !
 ! D105  D(25,17,26,18)        180.0            estimate D2E/DX2                !
 ! D106  D(25,17,26,21)        -51.1032         estimate D2E/DX2                !
 ! D107  D(44,17,26,18)         51.1032         estimate D2E/DX2                !
 ! D108  D(44,17,26,21)        180.0            estimate D2E/DX2                !
 ! D109  D(25,17,44,13)         51.1032         estimate D2E/DX2                !
 ! D110  D(25,17,44,14)        180.0            estimate D2E/DX2                !
 ! D111  D(26,17,44,13)        180.0            estimate D2E/DX2                !
 ! D112  D(26,17,44,14)        -51.1032         estimate D2E/DX2                !
 ! D113  D(26,18,23,14)         51.1032         estimate D2E/DX2                !
 ! D114  D(26,18,23,15)        180.0            estimate D2E/DX2                !
 ! D115  D(34,18,23,14)        180.0            estimate D2E/DX2                !
 ! D116  D(34,18,23,15)        -51.1032         estimate D2E/DX2                !
 ! D117  D(23,18,26,17)        -51.1032         estimate D2E/DX2                !
 ! D118  D(23,18,26,21)        180.0            estimate D2E/DX2                !
 ! D119  D(34,18,26,17)        180.0            estimate D2E/DX2                !
 ! D120  D(34,18,26,21)         51.1032         estimate D2E/DX2                !
 ! D121  D(27,19,24,4)          51.1032         estimate D2E/DX2                !
 ! D122  D(27,19,24,16)        180.0            estimate D2E/DX2                !
 ! D123  D(28,19,24,4)         180.0            estimate D2E/DX2                !
 ! D124  D(28,19,24,16)        -51.1032         estimate D2E/DX2                !
 ! D125  D(24,19,27,5)         -51.1032         estimate D2E/DX2                !
 ! D126  D(24,19,27,30)        180.0            estimate D2E/DX2                !
 ! D127  D(28,19,27,5)         180.0            estimate D2E/DX2                !
 ! D128  D(28,19,27,30)         51.1032         estimate D2E/DX2                !
 ! D129  D(24,19,28,20)         51.1032         estimate D2E/DX2                !
 ! D130  D(24,19,28,31)        180.0            estimate D2E/DX2                !
 ! D131  D(27,19,28,20)        180.0            estimate D2E/DX2                !
 ! D132  D(27,19,28,31)        -51.1032         estimate D2E/DX2                !
 ! D133  D(28,20,25,16)         51.1032         estimate D2E/DX2                !
 ! D134  D(28,20,25,17)        180.0            estimate D2E/DX2                !
 ! D135  D(29,20,25,16)        180.0            estimate D2E/DX2                !
 ! D136  D(29,20,25,17)        -51.1032         estimate D2E/DX2                !
 ! D137  D(25,20,28,19)        -51.1032         estimate D2E/DX2                !
 ! D138  D(25,20,28,31)        180.0            estimate D2E/DX2                !
 ! D139  D(29,20,28,19)       -180.0            estimate D2E/DX2                !
 ! D140  D(29,20,28,31)         51.1032         estimate D2E/DX2                !
 ! D141  D(25,20,29,21)         51.1032         estimate D2E/DX2                !
 ! D142  D(25,20,29,32)        180.0            estimate D2E/DX2                !
 ! D143  D(28,20,29,21)        180.0            estimate D2E/DX2                !
 ! D144  D(28,20,29,32)        -51.1032         estimate D2E/DX2                !
 ! D145  D(29,21,26,17)         51.1032         estimate D2E/DX2                !
 ! D146  D(29,21,26,18)       -180.0            estimate D2E/DX2                !
 ! D147  D(33,21,26,17)        180.0            estimate D2E/DX2                !
 ! D148  D(33,21,26,18)        -51.1032         estimate D2E/DX2                !
 ! D149  D(26,21,29,20)        -51.1032         estimate D2E/DX2                !
 ! D150  D(26,21,29,32)        180.0            estimate D2E/DX2                !
 ! D151  D(33,21,29,20)        180.0            estimate D2E/DX2                !
 ! D152  D(33,21,29,32)         51.1032         estimate D2E/DX2                !
 --------------------------------------------------------------------------------
 Trust Radius=3.00D-01 FncErr=1.00D-07 GrdErr=1.00D-07
 Number of steps in this run=    264 maximum allowed number of steps=    264.
 GradGradGradGradGradGradGradGradGradGradGradGradGradGradGradGradGradGrad

                          Input orientation:                          
 ---------------------------------------------------------------------
 Center     Atomic      Atomic             Coordinates (Angstroms)
 Number     Number       Type             X           Y           Z
 ---------------------------------------------------------------------
      1          6           0        0.176948    1.023714    2.994967
      2          6           0        1.434948    0.297407    2.577810
      3          6           0        2.692948    1.023714    2.994967
      4          6           0        5.208948    1.023714    2.994967
      5          6           0        7.724948    1.023714    2.994967
      6          6           0        3.950948    0.297407    2.577810
      7          6           0        6.466948    0.297407    2.577810
      8          6           0       -1.081052    3.202634    2.994967
      9          6           0       -2.339052    5.381554    2.994967
     10          6           0        0.176948    2.476327    2.577810
     11          6           0       -1.081052    4.655247    2.577810
     12          6           0       -2.339052    6.834167    2.577810
     13          6           0        1.434948    3.202634    2.994967
     14          6           0        0.176948    5.381554    2.994967
     15          6           0       -1.081052    7.560474    2.994967
     16          6           0        3.950948    3.202634    2.994967
     17          6           0        2.692948    5.381554    2.994967
     18          6           0        1.434948    7.560474    2.994967
     19          6           0        6.466948    3.202634    2.994967
     20          6           0        5.208948    5.381554    2.994967
     21          6           0        3.950948    7.560474    2.994967
     22          6           0        2.692948    2.476327    2.577810
     23          6           0        0.176948    6.834167    2.577810
     24          6           0        5.208948    2.476327    2.577810
     25          6           0        3.950948    4.655247    2.577810
     26          6           0        2.692948    6.834167    2.577810
     27          6           0        7.724948    2.476327    2.577810
     28          6           0        6.466948    4.655247    2.577810
     29          6           0        5.208948    6.834167    2.577810
     30          1           0        8.615597    2.990544    2.873152
     31          1           0        7.357597    5.169464    2.873152
     32          1           0        6.099597    7.348383    2.873152
     33          1           0        3.950948    8.588906    2.699625
     34          1           0        1.434948    8.588906    2.699625
     35          1           0       -1.081052    8.588906    2.699625
     36          1           0       -3.229701    7.348383    2.873152
     37          1           0       -3.229701    4.867338    2.699625
     38          1           0       -1.971701    2.688418    2.699625
     39          1           0       -0.713701    0.509498    2.699625
     40          1           0        1.434948   -0.731025    2.873152
     41          1           0        3.950948   -0.731025    2.873152
     42          1           0        6.495217   -0.604546    3.152772
     43          1           0        8.373408    0.350713    3.515994
     44         28           0        1.434948    4.655247    2.577810
 ---------------------------------------------------------------------
                    Distance matrix (angstroms):
                    1          2          3          4          5
     1  C    0.000000
     2  C    1.511326   0.000000
     3  C    2.516000   1.511326   0.000000
     4  C    5.032000   3.865827   2.516000   0.000000
     5  C    7.548000   6.345521   5.032000   2.516000   0.000000
     6  C    3.865827   2.516000   1.511326   1.511326   3.865827
     7  C    6.345521   5.032000   3.865827   1.511326   1.511326
     8  C    2.516000   3.865827   4.357840   6.656710   9.071567
     9  C    5.032000   6.345521   6.656710   8.715680  10.966990
    10  C    1.511326   2.516000   2.935023   5.254058   7.697818
    11  C    3.865827   5.032000   5.254058   7.275036   9.534552
    12  C    6.345521   7.548000   7.697818   9.534552  11.628391
    13  C    2.516000   2.935023   2.516000   4.357840   6.656710
    14  C    4.357840   5.254058   5.032000   6.656710   8.715680
    15  C    6.656710   7.697818   7.548000   9.071567  10.966990
    16  C    4.357840   3.865827   2.516000   2.516000   4.357840
    17  C    5.032000   5.254058   4.357840   5.032000   6.656710
    18  C    6.656710   7.275036   6.656710   7.548000   9.071567
    19  C    6.656710   5.825409   4.357840   2.516000   2.516000
    20  C    6.656710   6.345521   5.032000   4.357840   5.032000
    21  C    7.548000   7.697818   6.656710   6.656710   7.548000
    22  C    2.935023   2.516000   1.511326   2.935023   5.254058
    23  C    5.825409   6.656710   6.345521   7.697818   9.534552
    24  C    5.254058   4.357840   2.935023   1.511326   2.935023
    25  C    5.254058   5.032000   3.865827   3.865827   5.254058
    26  C    6.345521   6.656710   5.825409   6.345521   7.697818
    27  C    7.697818   6.656710   5.254058   2.935023   1.511326
    28  C    7.275036   6.656710   5.254058   3.865827   3.865827
    29  C    7.697818   7.548000   6.345521   5.825409   6.345521
    30  H    8.665682   7.674759   6.241877   3.935545   2.162524
    31  H    8.292394   7.674759   6.241877   4.671056   4.163775
    32  H    8.665682   8.459458   7.184813   6.388234   6.531313
    33  H    8.459458   8.665682   7.674759   7.674759   8.459458
    34  H    7.674759   8.292394   7.674759   8.459458   9.842940
    35  H    7.674759   8.665682   8.459458   9.842940  11.613139
    36  H    7.184813   8.459458   8.665682  10.546425  12.649925
    37  H    5.144504   6.531313   7.066713   9.277471  11.613139
    38  H    2.734073   4.163775   4.961594   7.377003   9.842940
    39  H    1.070000   2.162524   3.457875   5.952261   8.459458
    40  H    2.162524   1.070000   2.162524   4.163775   6.531313
    41  H    4.163775   2.734073   2.162524   2.162524   4.163775
    42  H    6.526612   5.172082   4.139249   2.081015   2.046551
    43  H    8.240531   7.001804   5.743868   3.276920   1.070000
    44  Ni   3.865827   4.357840   3.865827   5.254058   7.275036
                    6          7          8          9         10
     6  C    0.000000
     7  C    2.516000   0.000000
     8  C    5.825409   8.098559   0.000000
     9  C    8.098559  10.176846   2.516000   0.000000
    10  C    4.357840   6.656710   1.511326   3.865827   0.000000
    11  C    6.656710   8.715680   1.511326   1.511326   2.516000
    12  C    9.071567  10.966990   3.865827   1.511326   5.032000
    13  C    3.865827   5.825409   2.516000   4.357840   1.511326
    14  C    6.345521   8.098559   2.516000   2.516000   2.935023
    15  C    8.845743  10.483246   4.357840   2.516000   5.254058
    16  C    2.935023   3.865827   5.032000   6.656710   3.865827
    17  C    5.254058   6.345521   4.357840   5.032000   3.865827
    18  C    7.697818   8.845743   5.032000   4.357840   5.254058
    19  C    3.865827   2.935023   7.548000   9.071567   6.345521
    20  C    5.254058   5.254058   6.656710   7.548000   5.825409
    21  C    7.275036   7.697818   6.656710   6.656710   6.345521
    22  C    2.516000   4.357840   3.865827   5.825409   2.516000
    23  C    7.548000   9.071567   3.865827   2.935023   4.357840
    24  C    2.516000   2.516000   6.345521   8.098559   5.032000
    25  C    4.357840   5.032000   5.254058   6.345521   4.357840
    26  C    6.656710   7.548000   5.254058   5.254058   5.032000
    27  C    4.357840   2.516000   8.845743  10.483246   7.548000
    28  C    5.032000   4.357840   7.697818   8.845743   6.656710
    29  C    6.656710   6.656710   7.275036   7.697818   6.656710
    30  H    5.394363   3.457875   9.699733  11.213211   8.459458
    31  H    5.952261   4.961594   8.665682   9.699733   7.674759
    32  H    7.377003   7.066713   8.292394   8.665682   7.674759
    33  H    8.292394   8.665682   7.377003   7.066713   7.184813
    34  H    8.665682   9.699733   5.952261   4.961594   6.241877
    35  H    9.699733  11.213211   5.394363   3.457875   6.241877
    36  H   10.068029  11.992851   4.671056   2.162524   5.952261
    37  H    8.512392  10.720266   2.734073   1.070000   4.163775
    38  H    6.388234   8.771691   1.070000   2.734073   2.162524
    39  H    4.671056   7.184813   2.734073   5.144504   2.162524
    40  H    2.734073   5.144504   4.671056   7.184813   3.457875
    41  H    1.070000   2.734073   6.388234   8.771691   4.961594
    42  H    2.759965   1.070000   8.480529  10.672516   7.052864
    43  H    4.521192   2.125469   9.888970  11.846418   8.519412
    44  Ni   5.032000   6.656710   2.935023   3.865827   2.516000
                   11         12         13         14         15
    11  C    0.000000
    12  C    2.516000   0.000000
    13  C    2.935023   5.254058   0.000000
    14  C    1.511326   2.935023   2.516000   0.000000
    15  C    2.935023   1.511326   5.032000   2.516000   0.000000
    16  C    5.254058   7.275036   2.516000   4.357840   6.656710
    17  C    3.865827   5.254058   2.516000   2.516000   4.357840
    18  C    3.865827   3.865827   4.357840   2.516000   2.516000
    19  C    7.697818   9.534552   5.032000   6.656710   8.715680
    20  C    6.345521   7.697818   4.357840   5.032000   6.656710
    21  C    5.825409   6.345521   5.032000   4.357840   5.032000
    22  C    4.357840   6.656710   1.511326   3.865827   6.345521
    23  C    2.516000   2.516000   3.865827   1.511326   1.511326
    24  C    6.656710   8.715680   3.865827   5.825409   8.098559
    25  C    5.032000   6.656710   2.935023   3.865827   5.825409
    26  C    4.357840   5.032000   3.865827   2.935023   3.865827
    27  C    9.071567  10.966990   6.345521   8.098559  10.176846
    28  C    7.548000   9.071567   5.254058   6.345521   8.098559
    29  C    6.656710   7.548000   5.254058   5.254058   6.345521
    30  H    9.842940  11.613139   7.184813   8.771691  10.720266
    31  H    8.459458   9.842940   6.241877   7.184813   8.771691
    32  H    7.674759   8.459458   6.241877   6.241877   7.184813
    33  H    6.388234   6.531313   5.952261   4.961594   5.144504
    34  H    4.671056   4.163775   5.394363   3.457875   2.734073
    35  H    3.935545   2.162524   5.952261   3.457875   1.070000
    36  H    3.457875   1.070000   6.241877   3.935545   2.162524
    37  H    2.162524   2.162524   4.961594   3.457875   3.457875
    38  H    2.162524   4.163775   3.457875   3.457875   4.961594
    39  H    4.163775   6.531313   3.457875   4.961594   7.066713
    40  H    5.952261   8.459458   3.935545   6.241877   8.665682
    41  H    7.377003   9.842940   4.671056   7.184813   9.699733
    42  H    9.240988  11.563276   6.334497   8.705103  11.139673
    43  H   10.430533  12.556757   7.519784   9.631344  11.901215
    44  Ni   2.516000   4.357840   1.511326   1.511326   3.865827
                   16         17         18         19         20
    16  C    0.000000
    17  C    2.516000   0.000000
    18  C    5.032000   2.516000   0.000000
    19  C    2.516000   4.357840   6.656710   0.000000
    20  C    2.516000   2.516000   4.357840   2.516000   0.000000
    21  C    4.357840   2.516000   2.516000   5.032000   2.516000
    22  C    1.511326   2.935023   5.254058   3.865827   3.865827
    23  C    5.254058   2.935023   1.511326   7.275036   5.254058
    24  C    1.511326   3.865827   6.345521   1.511326   2.935023
    25  C    1.511326   1.511326   3.865827   2.935023   1.511326
    26  C    3.865827   1.511326   1.511326   5.254058   2.935023
    27  C    3.865827   5.825409   8.098559   1.511326   3.865827
    28  C    2.935023   3.865827   5.825409   1.511326   1.511326
    29  C    3.865827   2.935023   3.865827   3.865827   1.511326
    30  H    4.671056   6.388234   8.512392   2.162524   4.163775
    31  H    3.935545   4.671056   6.388234   2.162524   2.162524
    32  H    4.671056   3.935545   4.671056   4.163775   2.162524
    33  H    5.394363   3.457875   2.734073   5.952261   3.457875
    34  H    5.952261   3.457875   1.070000   7.377003   4.961594
    35  H    7.377003   4.961594   2.734073   9.277471   7.066713
    36  H    8.292394   6.241877   4.671056  10.546425   8.665682
    37  H    7.377003   5.952261   5.394363   9.842940   8.459458
    38  H    5.952261   5.394363   5.952261   8.459458   7.674759
    39  H    5.394363   5.952261   7.377003   7.674759   7.674759
    40  H    4.671056   6.241877   8.292394   6.388234   7.184813
    41  H    3.935545   6.241877   8.665682   4.671056   6.241877
    42  H    4.581793   7.093345   9.607225   3.810554   6.124768
    43  H    5.288012   7.605817  10.019698   3.469800   5.966124
    44  Ni   2.935023   1.511326   2.935023   5.254058   3.865827
                   21         22         23         24         25
    21  C    0.000000
    22  C    5.254058   0.000000
    23  C    3.865827   5.032000   0.000000
    24  C    5.254058   2.516000   6.656710   0.000000
    25  C    2.935023   2.516000   4.357840   2.516000   0.000000
    26  C    1.511326   4.357840   2.516000   5.032000   2.516000
    27  C    6.345521   5.032000   8.715680   2.516000   4.357840
    28  C    3.865827   4.357840   6.656710   2.516000   2.516000
    29  C    1.511326   5.032000   5.032000   4.357840   2.516000
    30  H    6.531313   5.952261   9.277471   3.457875   4.961594
    31  H    4.163775   5.394363   7.377003   3.457875   3.457875
    32  H    2.162524   5.952261   5.952261   4.961594   3.457875
    33  H    1.070000   6.241877   4.163775   6.241877   3.935545
    34  H    2.734073   6.241877   2.162524   7.184813   4.671056
    35  H    5.144504   7.184813   2.162524   8.771691   6.388234
    36  H    7.184813   7.674759   3.457875   9.748587   7.674759
    37  H    7.674759   6.388234   3.935545   8.771691   7.184813
    38  H    7.674759   4.671056   4.671056   7.184813   6.241877
    39  H    8.459458   3.935545   6.388234   6.241877   6.241877
    40  H    8.665682   3.457875   7.674759   4.961594   5.952261
    41  H    8.292394   3.457875   8.459458   3.457875   5.394363
    42  H    8.553698   4.927435   9.776787   3.387750   5.871057
    43  H    8.474094   6.137267  10.492727   3.925841   6.242384
    44  Ni   3.865827   2.516000   2.516000   4.357840   2.516000
                   26         27         28         29         30
    26  C    0.000000
    27  C    6.656710   0.000000
    28  C    4.357840   2.516000   0.000000
    29  C    2.516000   5.032000   2.516000   0.000000
    30  H    7.066713   1.070000   2.734073   5.144504   0.000000
    31  H    4.961594   2.734073   1.070000   2.734073   2.516000
    32  H    3.457875   5.144504   2.734073   1.070000   5.032000
    33  H    2.162524   7.184813   4.671056   2.162524   7.289082
    34  H    2.162524   8.771691   6.388234   4.163775   9.106783
    35  H    4.163775  10.720266   8.512392   6.531313  11.198070
    36  H    5.952261  11.992851  10.068029   8.459458  12.621483
    37  H    6.241877  11.213211   9.699733   8.665682  11.994313
    38  H    6.241877   9.699733   8.665682   8.292394  10.593029
    39  H    7.184813   8.665682   8.292394   8.665682   9.655127
    40  H    7.674759   7.066713   7.377003   8.459458   8.087755
    41  H    7.674759   4.961594   5.952261   7.674759   5.967329
    42  H    8.373905   3.366689   5.291201   7.570966   4.183164
    43  H    8.670812   2.412245   4.800395   7.275244   2.727747
    44  Ni   2.516000   6.656710   5.032000   4.357840   7.377003
                   31         32         33         34         35
    31  H    0.000000
    32  H    2.516000   0.000000
    33  H    4.829902   2.487107   0.000000
    34  H    6.841087   4.829902   2.516000   0.000000
    35  H    9.106783   7.289082   5.032000   2.516000   0.000000
    36  H   10.809188   9.329297   7.289082   4.829902   2.487107
    37  H   10.593029   9.655127   8.087755   5.967329   4.297297
    38  H    9.655127   9.321547   8.360235   6.813297   5.967329
    39  H    9.321547   9.655127   9.329297   8.360235   8.087755
    40  H    8.360235   9.329297   9.655127   9.321547   9.655127
    41  H    6.813297   8.360235   9.321547   9.655127  10.593029
    42  H    5.844747   7.967671   9.549775  10.503867  11.921609
    43  H    4.966435   7.385855   9.385757  10.801690  12.566666
    44  Ni   5.952261   5.394363   4.671056   3.935545   4.671056
                   36         37         38         39         40
    36  H    0.000000
    37  H    2.487107   0.000000
    38  H    4.829902   2.516000   0.000000
    39  H    7.289082   5.032000   2.516000   0.000000
    40  H    9.329297   7.289082   4.829902   2.487107   0.000000
    41  H   10.809188   9.106783   6.841087   4.829902   2.516000
    42  H   12.565878  11.167850   9.096024   7.308552   5.069567
    43  H   13.565130  12.477920  10.637321   9.125087   7.051640
    44  Ni   5.394363   4.671056   3.935545   4.671056   5.394363
                   41         42         43         44
    41  H    0.000000
    42  H    2.562712   0.000000
    43  H    4.597995   2.138235   0.000000
    44  Ni   5.952261   7.321361   8.218967   0.000000
 Stoichiometry    C29H14Ni
 Framework group  C1[X(C29H14Ni)]
 Deg. of freedom   126
 Full point group                 C1      NOp   1
 Largest Abelian subgroup         C1      NOp   1
 Largest concise Abelian subgroup C1      NOp   1
                         Standard orientation:                         
 ---------------------------------------------------------------------
 Center     Atomic      Atomic             Coordinates (Angstroms)
 Number     Number       Type             X           Y           Z
 ---------------------------------------------------------------------
      1          6           0       -0.573818   -3.774055    0.222944
      2          6           0        0.877844   -3.772461   -0.197508
      3          6           0        1.604014   -2.514180    0.219037
      4          6           0        3.781847   -1.254304    0.215130
      5          6           0        5.959680    0.005571    0.211222
      6          6           0        3.055676   -2.512585   -0.201415
      7          6           0        5.233509   -1.252710   -0.205322
      8          6           0       -2.753813   -2.517932    0.228928
      9          6           0       -4.933807   -1.261809    0.234912
     10          6           0       -1.302151   -2.516338   -0.191524
     11          6           0       -3.482145   -1.260215   -0.185540
     12          6           0       -5.662140   -0.004092   -0.179557
     13          6           0       -0.575980   -1.258057    0.225021
     14          6           0       -2.755974   -0.001934    0.231005
     15          6           0       -4.935969    1.254189    0.236988
     16          6           0        1.601853    0.001819    0.221113
     17          6           0       -0.578142    1.257941    0.227097
     18          6           0       -2.758136    2.514064    0.233081
     19          6           0        3.779685    1.261694    0.217206
     20          6           0        1.599691    2.517817    0.223190
     21          6           0       -0.580304    3.773940    0.229174
     22          6           0        0.875682   -1.256462   -0.195431
     23          6           0       -3.484307    1.255783   -0.183464
     24          6           0        3.053514    0.003413   -0.199339
     25          6           0        0.873520    1.259536   -0.193355
     26          6           0       -1.306474    2.515659   -0.187371
     27          6           0        5.231347    1.263288   -0.203246
     28          6           0        3.051353    2.519411   -0.197262
     29          6           0        0.871358    3.775534   -0.191278
     30          1           0        5.745467    2.154136    0.091663
     31          1           0        3.565473    3.410259    0.097646
     32          1           0        1.385478    4.666382    0.103630
     33          1           0       -1.095954    4.664388   -0.064265
     34          1           0       -3.273787    3.404513   -0.060358
     35          1           0       -5.451619    2.144637   -0.056450
     36          1           0       -6.689898   -0.005221    0.118118
     37          1           0       -5.447927   -2.152657   -0.059997
     38          1           0       -3.267933   -3.408780   -0.065981
     39          1           0       -1.087938   -4.664903   -0.071964
     40          1           0        1.393494   -4.662909    0.095931
     41          1           0        3.571327   -3.403034    0.092023
     42          1           0        5.710930   -2.019753    0.367926
     43          1           0        6.859165   -0.252690    0.729997
     44         28           0       -1.304313   -0.000340   -0.189448
 ---------------------------------------------------------------------
 Rotational constants (GHZ):      0.2990103      0.1305696      0.0914839
 Standard basis: VSTO-6G (5D, 7F)
 There are   140 symmetry adapted cartesian basis functions of A   symmetry.
 There are   139 symmetry adapted basis functions of A   symmetry.
   139 basis functions,   840 primitive gaussians,   140 cartesian basis functions
    70 alpha electrons       70 beta electrons
       nuclear repulsion energy      1361.4637654382 Hartrees.
 Integral buffers will be    262144 words long.
 Regular integral format.
 Two-electron integral symmetry is turned off.
 Do NDO integrals.
 One-electron integrals computed using PRISM.
 NBasis=   139 RedAO= F EigKep=  0.00D+00  NBF=   139
 NBsUse=   139 1.00D-04 EigRej=  0.00D+00 NBFU=   139
 Simple Huckel Guess.
 Keep J ints in memory in canonical form, NReq=2092071.
 Gradient too large for Newton-Raphson -- use scaled steepest descent instead.
     Accept linear search using points  5 and  6.
 Gradient too large for Newton-Raphson -- use scaled steepest descent instead.
     Accept linear search using points  3 and  4.
 Gradient too large for Newton-Raphson -- use scaled steepest descent instead.
     Accept linear search using points  1 and  2.
 Gradient too large for Newton-Raphson -- use scaled steepest descent instead.
     Accept linear search using points  1 and  2.
 Gradient too large for Newton-Raphson -- use scaled steepest descent instead.
     Accept linear search using points  1 and  2.
     Minimum is close to point  2 DX= -1.47D-02 DF= -8.36D-07 DXR=  1.49D-02 DFR=  2.22D-04 which will be used.
 Gradient too large for Newton-Raphson -- use scaled steepest descent instead.
     Minimum is close to point  2 DX=  1.03D-01 DF= -1.69D-05 DXR=  9.32D-02 DFR=  8.76D-03 which will be used.
 Gradient too large for Newton-Raphson -- use scaled steepest descent instead.
 Gradient too large for Newton-Raphson -- use scaled steepest descent instead.
     Accept linear search using points  1 and  2.
 Gradient too large for Newton-Raphson -- use scaled steepest descent instead.
     Minimum is close to point  2 DX=  2.35D-02 DF= -1.41D-07 DXR=  2.09D-02 DFR=  4.37D-04 which will be used.
 LinEq1:  Iter=  0 NonCon=     1 RMS=2.32D-04 Max=6.01D-03 NDo=     1
 AX will form     1 AO Fock derivatives at one time.
 LinEq1:  Iter=  1 NonCon=     1 RMS=1.78D-04 Max=7.10D-03 NDo=     1
 LinEq1:  Iter=  2 NonCon=     1 RMS=2.43D-05 Max=4.97D-04 NDo=     1
 LinEq1:  Iter=  3 NonCon=     1 RMS=6.91D-06 Max=1.40D-04 NDo=     1
 LinEq1:  Iter=  4 NonCon=     1 RMS=2.46D-06 Max=4.18D-05 NDo=     1
 LinEq1:  Iter=  5 NonCon=     1 RMS=1.08D-06 Max=2.13D-05 NDo=     1
 LinEq1:  Iter=  6 NonCon=     1 RMS=4.02D-07 Max=1.07D-05 NDo=     1
 LinEq1:  Iter=  7 NonCon=     1 RMS=1.40D-07 Max=4.74D-06 NDo=     1
 LinEq1:  Iter=  8 NonCon=     1 RMS=5.85D-08 Max=1.33D-06 NDo=     1
 LinEq1:  Iter=  9 NonCon=     1 RMS=3.54D-08 Max=1.46D-06 NDo=     1
 LinEq1:  Iter= 10 NonCon=     1 RMS=1.15D-08 Max=2.17D-07 NDo=     1
 LinEq1:  Iter= 11 NonCon=     0 RMS=4.04D-09 Max=7.44D-08 NDo=     1
 Linear equations converged to 9.829D-09 9.829D-08 after    11 iterations.
     Accept linear search using points  1 and  2.
     Minimum is close to point  2 DX= -8.12D-03 DF= -3.20D-08 DXR=  8.18D-03 DFR=  6.73D-05 which will be used.
 LinEq1:  Iter=  0 NonCon=     1 RMS=4.41D-06 Max=9.87D-05 NDo=     1
 LinEq1:  Iter=  1 NonCon=     1 RMS=1.83D-06 Max=6.00D-05 NDo=     1
 LinEq1:  Iter=  2 NonCon=     1 RMS=7.42D-07 Max=1.84D-05 NDo=     1
 LinEq1:  Iter=  3 NonCon=     1 RMS=2.88D-07 Max=5.64D-06 NDo=     1
 LinEq1:  Iter=  4 NonCon=     1 RMS=1.07D-07 Max=2.01D-06 NDo=     1
 LinEq1:  Iter=  5 NonCon=     1 RMS=4.33D-08 Max=9.07D-07 NDo=     1
 LinEq1:  Iter=  6 NonCon=     1 RMS=1.89D-08 Max=5.47D-07 NDo=     1
 LinEq1:  Iter=  7 NonCon=     1 RMS=7.03D-09 Max=1.99D-07 NDo=     1
 LinEq1:  Iter=  8 NonCon=     1 RMS=3.22D-09 Max=9.27D-08 NDo=     1
 LinEq1:  Iter=  9 NonCon=     1 RMS=1.25D-09 Max=2.69D-08 NDo=     1
 LinEq1:  Iter= 10 NonCon=     0 RMS=4.33D-10 Max=5.63D-09 NDo=     1
 Linear equations converged to 1.778D-09 1.778D-08 after    10 iterations.
     Minimum is close to point  2 DX=  7.42D-04 DF= -9.50D-14 DXR=  7.41D-04 DFR=  5.50D-07 which will be used.
 LinEq1:  Iter=  0 NonCon=     1 RMS=8.37D-08 Max=1.12D-06 NDo=     1
 LinEq1:  Iter=  1 NonCon=     1 RMS=4.87D-08 Max=1.87D-06 NDo=     1
 LinEq1:  Iter=  2 NonCon=     1 RMS=1.97D-08 Max=3.28D-07 NDo=     1
 LinEq1:  Iter=  3 NonCon=     1 RMS=9.63D-09 Max=3.18D-07 NDo=     1
 LinEq1:  Iter=  4 NonCon=     1 RMS=3.56D-09 Max=8.51D-08 NDo=     1
 LinEq1:  Iter=  5 NonCon=     1 RMS=1.11D-09 Max=2.31D-08 NDo=     1
 LinEq1:  Iter=  6 NonCon=     1 RMS=4.74D-10 Max=1.35D-08 NDo=     1
 LinEq1:  Iter=  7 NonCon=     1 RMS=1.81D-10 Max=4.39D-09 NDo=     1
 LinEq1:  Iter=  8 NonCon=     1 RMS=8.03D-11 Max=1.50D-09 NDo=     1
 LinEq1:  Iter=  9 NonCon=     1 RMS=3.26D-11 Max=8.23D-10 NDo=     1
 LinEq1:  Iter= 10 NonCon=     0 RMS=1.13D-11 Max=2.27D-10 NDo=     1
 Linear equations converged to 4.143D-11 4.143D-10 after    10 iterations.
 SCF Done:  E(RPM6) =   1.55567890401     a.u. after   13 cycles
            Convg  =    0.1126D-06                    60 Fock formations.
              S**2 =  0.0000                  -V/T =  1.0159

 **********************************************************************

            Population analysis using the SCF density.

 **********************************************************************

 Orbital symmetries:
       Occupied  (A) (A) (A) (A) (A) (A) (A) (A) (A) (A) (A) (A)
                 (A) (A) (A) (A) (A) (A) (A) (A) (A) (A) (A) (A)
                 (A) (A) (A) (A) (A) (A) (A) (A) (A) (A) (A) (A)
                 (A) (A) (A) (A) (A) (A) (A) (A) (A) (A) (A) (A)
                 (A) (A) (A) (A) (A) (A) (A) (A) (A) (A) (A) (A)
                 (A) (A) (A) (A) (A) (A) (A) (A) (A) (A)
       Virtual   (A) (A) (A) (A) (A) (A) (A) (A) (A) (A) (A) (A)
                 (A) (A) (A) (A) (A) (A) (A) (A) (A) (A) (A) (A)
                 (A) (A) (A) (A) (A) (A) (A) (A) (A) (A) (A) (A)
                 (A) (A) (A) (A) (A) (A) (A) (A) (A) (A) (A) (A)
                 (A) (A) (A) (A) (A) (A) (A) (A) (A) (A) (A) (A)
                 (A) (A) (A) (A) (A) (A) (A) (A) (A)
 The electronic state is 1-A.
 Alpha  occ. eigenvalues --   -1.16652  -1.05747  -1.04804  -1.03900  -1.00479
 Alpha  occ. eigenvalues --   -0.99466  -0.98557  -0.96623  -0.94425  -0.91667
 Alpha  occ. eigenvalues --   -0.91212  -0.90722  -0.87437  -0.85500  -0.84778
 Alpha  occ. eigenvalues --   -0.79633  -0.77963  -0.77284  -0.77127  -0.73282
 Alpha  occ. eigenvalues --   -0.73061  -0.71156  -0.68170  -0.66623  -0.65300
 Alpha  occ. eigenvalues --   -0.61086  -0.60269  -0.59603  -0.58190  -0.56877
 Alpha  occ. eigenvalues --   -0.56634  -0.55762  -0.53615  -0.52981  -0.52589
 Alpha  occ. eigenvalues --   -0.52257  -0.51136  -0.50926  -0.50248  -0.49996
 Alpha  occ. eigenvalues --   -0.49315  -0.49057  -0.48691  -0.48280  -0.48096
 Alpha  occ. eigenvalues --   -0.46793  -0.46148  -0.45844  -0.45170  -0.44897
 Alpha  occ. eigenvalues --   -0.44356  -0.43980  -0.43396  -0.42679  -0.42339
 Alpha  occ. eigenvalues --   -0.42166  -0.41363  -0.40957  -0.40668  -0.39718
 Alpha  occ. eigenvalues --   -0.39275  -0.38514  -0.38179  -0.34833  -0.34769
 Alpha  occ. eigenvalues --   -0.34006  -0.33544  -0.31088  -0.26781  -0.26051
 Alpha virt. eigenvalues --   -0.10417  -0.05426  -0.04355  -0.03675  -0.02093
 Alpha virt. eigenvalues --   -0.02032  -0.01760  -0.01457  -0.00814  -0.00052
 Alpha virt. eigenvalues --    0.01249   0.02188   0.04079   0.04879   0.05253
 Alpha virt. eigenvalues --    0.07209   0.11726   0.11883   0.12439   0.12469
 Alpha virt. eigenvalues --    0.12684   0.13008   0.13602   0.13628   0.13958
 Alpha virt. eigenvalues --    0.14055   0.14334   0.14535   0.14598   0.14750
 Alpha virt. eigenvalues --    0.14843   0.14966   0.15192   0.15369   0.15484
 Alpha virt. eigenvalues --    0.15552   0.15825   0.15911   0.16421   0.16468
 Alpha virt. eigenvalues --    0.16788   0.16878   0.16995   0.17035   0.17384
 Alpha virt. eigenvalues --    0.17696   0.17770   0.17872   0.18380   0.18517
 Alpha virt. eigenvalues --    0.18952   0.19124   0.20657   0.21174   0.21552
 Alpha virt. eigenvalues --    0.21648   0.21948   0.22058   0.22126   0.22160
 Alpha virt. eigenvalues --    0.22229   0.22248   0.22356   0.22604   0.22875
 Alpha virt. eigenvalues --    0.23036   0.55701   0.60422   0.60605
          Condensed to atoms (all electrons):
               1          2          3          4          5          6
     1  C    4.108937   0.000000   0.000000   0.000000   0.000000   0.000000
     2  C    0.000000   4.153158   0.000000   0.000000   0.000000   0.000000
     3  C    0.000000   0.000000   3.976664   0.000000   0.000000   0.000000
     4  C    0.000000   0.000000   0.000000   4.007388   0.000000   0.000000
     5  C    0.000000   0.000000   0.000000   0.000000   4.156908   0.000000
     6  C    0.000000   0.000000   0.000000   0.000000   0.000000   4.130289
     7  C    0.000000   0.000000   0.000000   0.000000   0.000000   0.000000
     8  C    0.000000   0.000000   0.000000   0.000000   0.000000   0.000000
     9  C    0.000000   0.000000   0.000000   0.000000   0.000000   0.000000
    10  C    0.000000   0.000000   0.000000   0.000000   0.000000   0.000000
    11  C    0.000000   0.000000   0.000000   0.000000   0.000000   0.000000
    12  C    0.000000   0.000000   0.000000   0.000000   0.000000   0.000000
    13  C    0.000000   0.000000   0.000000   0.000000   0.000000   0.000000
    14  C    0.000000   0.000000   0.000000   0.000000   0.000000   0.000000
    15  C    0.000000   0.000000   0.000000   0.000000   0.000000   0.000000
    16  C    0.000000   0.000000   0.000000   0.000000   0.000000   0.000000
    17  C    0.000000   0.000000   0.000000   0.000000   0.000000   0.000000
    18  C    0.000000   0.000000   0.000000   0.000000   0.000000   0.000000
    19  C    0.000000   0.000000   0.000000   0.000000   0.000000   0.000000
    20  C    0.000000   0.000000   0.000000   0.000000   0.000000   0.000000
    21  C    0.000000   0.000000   0.000000   0.000000   0.000000   0.000000
    22  C    0.000000   0.000000   0.000000   0.000000   0.000000   0.000000
    23  C    0.000000   0.000000   0.000000   0.000000   0.000000   0.000000
    24  C    0.000000   0.000000   0.000000   0.000000   0.000000   0.000000
    25  C    0.000000   0.000000   0.000000   0.000000   0.000000   0.000000
    26  C    0.000000   0.000000   0.000000   0.000000   0.000000   0.000000
    27  C    0.000000   0.000000   0.000000   0.000000   0.000000   0.000000
    28  C    0.000000   0.000000   0.000000   0.000000   0.000000   0.000000
    29  C    0.000000   0.000000   0.000000   0.000000   0.000000   0.000000
    30  H    0.000000   0.000000   0.000000   0.000000   0.000000   0.000000
    31  H    0.000000   0.000000   0.000000   0.000000   0.000000   0.000000
    32  H    0.000000   0.000000   0.000000   0.000000   0.000000   0.000000
    33  H    0.000000   0.000000   0.000000   0.000000   0.000000   0.000000
    34  H    0.000000   0.000000   0.000000   0.000000   0.000000   0.000000
    35  H    0.000000   0.000000   0.000000   0.000000   0.000000   0.000000
    36  H    0.000000   0.000000   0.000000   0.000000   0.000000   0.000000
    37  H    0.000000   0.000000   0.000000   0.000000   0.000000   0.000000
    38  H    0.000000   0.000000   0.000000   0.000000   0.000000   0.000000
    39  H    0.000000   0.000000   0.000000   0.000000   0.000000   0.000000
    40  H    0.000000   0.000000   0.000000   0.000000   0.000000   0.000000
    41  H    0.000000   0.000000   0.000000   0.000000   0.000000   0.000000
    42  H    0.000000   0.000000   0.000000   0.000000   0.000000   0.000000
    43  H    0.000000   0.000000   0.000000   0.000000   0.000000   0.000000
    44  Ni   0.000000   0.000000   0.000000   0.000000   0.000000   0.000000
               7          8          9         10         11         12
     1  C    0.000000   0.000000   0.000000   0.000000   0.000000   0.000000
     2  C    0.000000   0.000000   0.000000   0.000000   0.000000   0.000000
     3  C    0.000000   0.000000   0.000000   0.000000   0.000000   0.000000
     4  C    0.000000   0.000000   0.000000   0.000000   0.000000   0.000000
     5  C    0.000000   0.000000   0.000000   0.000000   0.000000   0.000000
     6  C    0.000000   0.000000   0.000000   0.000000   0.000000   0.000000
     7  C    4.151936   0.000000   0.000000   0.000000   0.000000   0.000000
     8  C    0.000000   4.233999   0.000000   0.000000   0.000000   0.000000
     9  C    0.000000   0.000000   4.036818   0.000000   0.000000   0.000000
    10  C    0.000000   0.000000   0.000000   4.097060   0.000000   0.000000
    11  C    0.000000   0.000000   0.000000   0.000000   4.150307   0.000000
    12  C    0.000000   0.000000   0.000000   0.000000   0.000000   4.203886
    13  C    0.000000   0.000000   0.000000   0.000000   0.000000   0.000000
    14  C    0.000000   0.000000   0.000000   0.000000   0.000000   0.000000
    15  C    0.000000   0.000000   0.000000   0.000000   0.000000   0.000000
    16  C    0.000000   0.000000   0.000000   0.000000   0.000000   0.000000
    17  C    0.000000   0.000000   0.000000   0.000000   0.000000   0.000000
    18  C    0.000000   0.000000   0.000000   0.000000   0.000000   0.000000
    19  C    0.000000   0.000000   0.000000   0.000000   0.000000   0.000000
    20  C    0.000000   0.000000   0.000000   0.000000   0.000000   0.000000
    21  C    0.000000   0.000000   0.000000   0.000000   0.000000   0.000000
    22  C    0.000000   0.000000   0.000000   0.000000   0.000000   0.000000
    23  C    0.000000   0.000000   0.000000   0.000000   0.000000   0.000000
    24  C    0.000000   0.000000   0.000000   0.000000   0.000000   0.000000
    25  C    0.000000   0.000000   0.000000   0.000000   0.000000   0.000000
    26  C    0.000000   0.000000   0.000000   0.000000   0.000000   0.000000
    27  C    0.000000   0.000000   0.000000   0.000000   0.000000   0.000000
    28  C    0.000000   0.000000   0.000000   0.000000   0.000000   0.000000
    29  C    0.000000   0.000000   0.000000   0.000000   0.000000   0.000000
    30  H    0.000000   0.000000   0.000000   0.000000   0.000000   0.000000
    31  H    0.000000   0.000000   0.000000   0.000000   0.000000   0.000000
    32  H    0.000000   0.000000   0.000000   0.000000   0.000000   0.000000
    33  H    0.000000   0.000000   0.000000   0.000000   0.000000   0.000000
    34  H    0.000000   0.000000   0.000000   0.000000   0.000000   0.000000
    35  H    0.000000   0.000000   0.000000   0.000000   0.000000   0.000000
    36  H    0.000000   0.000000   0.000000   0.000000   0.000000   0.000000
    37  H    0.000000   0.000000   0.000000   0.000000   0.000000   0.000000
    38  H    0.000000   0.000000   0.000000   0.000000   0.000000   0.000000
    39  H    0.000000   0.000000   0.000000   0.000000   0.000000   0.000000
    40  H    0.000000   0.000000   0.000000   0.000000   0.000000   0.000000
    41  H    0.000000   0.000000   0.000000   0.000000   0.000000   0.000000
    42  H    0.000000   0.000000   0.000000   0.000000   0.000000   0.000000
    43  H    0.000000   0.000000   0.000000   0.000000   0.000000   0.000000
    44  Ni   0.000000   0.000000   0.000000   0.000000   0.000000   0.000000
              13         14         15         16         17         18
     1  C    0.000000   0.000000   0.000000   0.000000   0.000000   0.000000
     2  C    0.000000   0.000000   0.000000   0.000000   0.000000   0.000000
     3  C    0.000000   0.000000   0.000000   0.000000   0.000000   0.000000
     4  C    0.000000   0.000000   0.000000   0.000000   0.000000   0.000000
     5  C    0.000000   0.000000   0.000000   0.000000   0.000000   0.000000
     6  C    0.000000   0.000000   0.000000   0.000000   0.000000   0.000000
     7  C    0.000000   0.000000   0.000000   0.000000   0.000000   0.000000
     8  C    0.000000   0.000000   0.000000   0.000000   0.000000   0.000000
     9  C    0.000000   0.000000   0.000000   0.000000   0.000000   0.000000
    10  C    0.000000   0.000000   0.000000   0.000000   0.000000   0.000000
    11  C    0.000000   0.000000   0.000000   0.000000   0.000000   0.000000
    12  C    0.000000   0.000000   0.000000   0.000000   0.000000   0.000000
    13  C    3.992385   0.000000   0.000000   0.000000   0.000000   0.000000
    14  C    0.000000   3.919991   0.000000   0.000000   0.000000   0.000000
    15  C    0.000000   0.000000   4.037779   0.000000   0.000000   0.000000
    16  C    0.000000   0.000000   0.000000   4.073607   0.000000   0.000000
    17  C    0.000000   0.000000   0.000000   0.000000   3.985010   0.000000
    18  C    0.000000   0.000000   0.000000   0.000000   0.000000   4.220210
    19  C    0.000000   0.000000   0.000000   0.000000   0.000000   0.000000
    20  C    0.000000   0.000000   0.000000   0.000000   0.000000   0.000000
    21  C    0.000000   0.000000   0.000000   0.000000   0.000000   0.000000
    22  C    0.000000   0.000000   0.000000   0.000000   0.000000   0.000000
    23  C    0.000000   0.000000   0.000000   0.000000   0.000000   0.000000
    24  C    0.000000   0.000000   0.000000   0.000000   0.000000   0.000000
    25  C    0.000000   0.000000   0.000000   0.000000   0.000000   0.000000
    26  C    0.000000   0.000000   0.000000   0.000000   0.000000   0.000000
    27  C    0.000000   0.000000   0.000000   0.000000   0.000000   0.000000
    28  C    0.000000   0.000000   0.000000   0.000000   0.000000   0.000000
    29  C    0.000000   0.000000   0.000000   0.000000   0.000000   0.000000
    30  H    0.000000   0.000000   0.000000   0.000000   0.000000   0.000000
    31  H    0.000000   0.000000   0.000000   0.000000   0.000000   0.000000
    32  H    0.000000   0.000000   0.000000   0.000000   0.000000   0.000000
    33  H    0.000000   0.000000   0.000000   0.000000   0.000000   0.000000
    34  H    0.000000   0.000000   0.000000   0.000000   0.000000   0.000000
    35  H    0.000000   0.000000   0.000000   0.000000   0.000000   0.000000
    36  H    0.000000   0.000000   0.000000   0.000000   0.000000   0.000000
    37  H    0.000000   0.000000   0.000000   0.000000   0.000000   0.000000
    38  H    0.000000   0.000000   0.000000   0.000000   0.000000   0.000000
    39  H    0.000000   0.000000   0.000000   0.000000   0.000000   0.000000
    40  H    0.000000   0.000000   0.000000   0.000000   0.000000   0.000000
    41  H    0.000000   0.000000   0.000000   0.000000   0.000000   0.000000
    42  H    0.000000   0.000000   0.000000   0.000000   0.000000   0.000000
    43  H    0.000000   0.000000   0.000000   0.000000   0.000000   0.000000
    44  Ni   0.000000   0.000000   0.000000   0.000000   0.000000   0.000000
              19         20         21         22         23         24
     1  C    0.000000   0.000000   0.000000   0.000000   0.000000   0.000000
     2  C    0.000000   0.000000   0.000000   0.000000   0.000000   0.000000
     3  C    0.000000   0.000000   0.000000   0.000000   0.000000   0.000000
     4  C    0.000000   0.000000   0.000000   0.000000   0.000000   0.000000
     5  C    0.000000   0.000000   0.000000   0.000000   0.000000   0.000000
     6  C    0.000000   0.000000   0.000000   0.000000   0.000000   0.000000
     7  C    0.000000   0.000000   0.000000   0.000000   0.000000   0.000000
     8  C    0.000000   0.000000   0.000000   0.000000   0.000000   0.000000
     9  C    0.000000   0.000000   0.000000   0.000000   0.000000   0.000000
    10  C    0.000000   0.000000   0.000000   0.000000   0.000000   0.000000
    11  C    0.000000   0.000000   0.000000   0.000000   0.000000   0.000000
    12  C    0.000000   0.000000   0.000000   0.000000   0.000000   0.000000
    13  C    0.000000   0.000000   0.000000   0.000000   0.000000   0.000000
    14  C    0.000000   0.000000   0.000000   0.000000   0.000000   0.000000
    15  C    0.000000   0.000000   0.000000   0.000000   0.000000   0.000000
    16  C    0.000000   0.000000   0.000000   0.000000   0.000000   0.000000
    17  C    0.000000   0.000000   0.000000   0.000000   0.000000   0.000000
    18  C    0.000000   0.000000   0.000000   0.000000   0.000000   0.000000
    19  C    4.008908   0.000000   0.000000   0.000000   0.000000   0.000000
    20  C    0.000000   3.971283   0.000000   0.000000   0.000000   0.000000
    21  C    0.000000   0.000000   4.109004   0.000000   0.000000   0.000000
    22  C    0.000000   0.000000   0.000000   4.130374   0.000000   0.000000
    23  C    0.000000   0.000000   0.000000   0.000000   4.155430   0.000000
    24  C    0.000000   0.000000   0.000000   0.000000   0.000000   3.949078
    25  C    0.000000   0.000000   0.000000   0.000000   0.000000   0.000000
    26  C    0.000000   0.000000   0.000000   0.000000   0.000000   0.000000
    27  C    0.000000   0.000000   0.000000   0.000000   0.000000   0.000000
    28  C    0.000000   0.000000   0.000000   0.000000   0.000000   0.000000
    29  C    0.000000   0.000000   0.000000   0.000000   0.000000   0.000000
    30  H    0.000000   0.000000   0.000000   0.000000   0.000000   0.000000
    31  H    0.000000   0.000000   0.000000   0.000000   0.000000   0.000000
    32  H    0.000000   0.000000   0.000000   0.000000   0.000000   0.000000
    33  H    0.000000   0.000000   0.000000   0.000000   0.000000   0.000000
    34  H    0.000000   0.000000   0.000000   0.000000   0.000000   0.000000
    35  H    0.000000   0.000000   0.000000   0.000000   0.000000   0.000000
    36  H    0.000000   0.000000   0.000000   0.000000   0.000000   0.000000
    37  H    0.000000   0.000000   0.000000   0.000000   0.000000   0.000000
    38  H    0.000000   0.000000   0.000000   0.000000   0.000000   0.000000
    39  H    0.000000   0.000000   0.000000   0.000000   0.000000   0.000000
    40  H    0.000000   0.000000   0.000000   0.000000   0.000000   0.000000
    41  H    0.000000   0.000000   0.000000   0.000000   0.000000   0.000000
    42  H    0.000000   0.000000   0.000000   0.000000   0.000000   0.000000
    43  H    0.000000   0.000000   0.000000   0.000000   0.000000   0.000000
    44  Ni   0.000000   0.000000   0.000000   0.000000   0.000000   0.000000
              25         26         27         28         29         30
     1  C    0.000000   0.000000   0.000000   0.000000   0.000000   0.000000
     2  C    0.000000   0.000000   0.000000   0.000000   0.000000   0.000000
     3  C    0.000000   0.000000   0.000000   0.000000   0.000000   0.000000
     4  C    0.000000   0.000000   0.000000   0.000000   0.000000   0.000000
     5  C    0.000000   0.000000   0.000000   0.000000   0.000000   0.000000
     6  C    0.000000   0.000000   0.000000   0.000000   0.000000   0.000000
     7  C    0.000000   0.000000   0.000000   0.000000   0.000000   0.000000
     8  C    0.000000   0.000000   0.000000   0.000000   0.000000   0.000000
     9  C    0.000000   0.000000   0.000000   0.000000   0.000000   0.000000
    10  C    0.000000   0.000000   0.000000   0.000000   0.000000   0.000000
    11  C    0.000000   0.000000   0.000000   0.000000   0.000000   0.000000
    12  C    0.000000   0.000000   0.000000   0.000000   0.000000   0.000000
    13  C    0.000000   0.000000   0.000000   0.000000   0.000000   0.000000
    14  C    0.000000   0.000000   0.000000   0.000000   0.000000   0.000000
    15  C    0.000000   0.000000   0.000000   0.000000   0.000000   0.000000
    16  C    0.000000   0.000000   0.000000   0.000000   0.000000   0.000000
    17  C    0.000000   0.000000   0.000000   0.000000   0.000000   0.000000
    18  C    0.000000   0.000000   0.000000   0.000000   0.000000   0.000000
    19  C    0.000000   0.000000   0.000000   0.000000   0.000000   0.000000
    20  C    0.000000   0.000000   0.000000   0.000000   0.000000   0.000000
    21  C    0.000000   0.000000   0.000000   0.000000   0.000000   0.000000
    22  C    0.000000   0.000000   0.000000   0.000000   0.000000   0.000000
    23  C    0.000000   0.000000   0.000000   0.000000   0.000000   0.000000
    24  C    0.000000   0.000000   0.000000   0.000000   0.000000   0.000000
    25  C    4.135017   0.000000   0.000000   0.000000   0.000000   0.000000
    26  C    0.000000   4.103067   0.000000   0.000000   0.000000   0.000000
    27  C    0.000000   0.000000   4.111824   0.000000   0.000000   0.000000
    28  C    0.000000   0.000000   0.000000   4.137664   0.000000   0.000000
    29  C    0.000000   0.000000   0.000000   0.000000   4.153155   0.000000
    30  H    0.000000   0.000000   0.000000   0.000000   0.000000   0.874668
    31  H    0.000000   0.000000   0.000000   0.000000   0.000000   0.000000
    32  H    0.000000   0.000000   0.000000   0.000000   0.000000   0.000000
    33  H    0.000000   0.000000   0.000000   0.000000   0.000000   0.000000
    34  H    0.000000   0.000000   0.000000   0.000000   0.000000   0.000000
    35  H    0.000000   0.000000   0.000000   0.000000   0.000000   0.000000
    36  H    0.000000   0.000000   0.000000   0.000000   0.000000   0.000000
    37  H    0.000000   0.000000   0.000000   0.000000   0.000000   0.000000
    38  H    0.000000   0.000000   0.000000   0.000000   0.000000   0.000000
    39  H    0.000000   0.000000   0.000000   0.000000   0.000000   0.000000
    40  H    0.000000   0.000000   0.000000   0.000000   0.000000   0.000000
    41  H    0.000000   0.000000   0.000000   0.000000   0.000000   0.000000
    42  H    0.000000   0.000000   0.000000   0.000000   0.000000   0.000000
    43  H    0.000000   0.000000   0.000000   0.000000   0.000000   0.000000
    44  Ni   0.000000   0.000000   0.000000   0.000000   0.000000   0.000000
              31         32         33         34         35         36
     1  C    0.000000   0.000000   0.000000   0.000000   0.000000   0.000000
     2  C    0.000000   0.000000   0.000000   0.000000   0.000000   0.000000
     3  C    0.000000   0.000000   0.000000   0.000000   0.000000   0.000000
     4  C    0.000000   0.000000   0.000000   0.000000   0.000000   0.000000
     5  C    0.000000   0.000000   0.000000   0.000000   0.000000   0.000000
     6  C    0.000000   0.000000   0.000000   0.000000   0.000000   0.000000
     7  C    0.000000   0.000000   0.000000   0.000000   0.000000   0.000000
     8  C    0.000000   0.000000   0.000000   0.000000   0.000000   0.000000
     9  C    0.000000   0.000000   0.000000   0.000000   0.000000   0.000000
    10  C    0.000000   0.000000   0.000000   0.000000   0.000000   0.000000
    11  C    0.000000   0.000000   0.000000   0.000000   0.000000   0.000000
    12  C    0.000000   0.000000   0.000000   0.000000   0.000000   0.000000
    13  C    0.000000   0.000000   0.000000   0.000000   0.000000   0.000000
    14  C    0.000000   0.000000   0.000000   0.000000   0.000000   0.000000
    15  C    0.000000   0.000000   0.000000   0.000000   0.000000   0.000000
    16  C    0.000000   0.000000   0.000000   0.000000   0.000000   0.000000
    17  C    0.000000   0.000000   0.000000   0.000000   0.000000   0.000000
    18  C    0.000000   0.000000   0.000000   0.000000   0.000000   0.000000
[...]
 57,-0.00001146,0.00023617,0.00006542,-0.00022817,-0.00257451,0.0030007
 2,-0.02582564,0.02550454,0.00003110,-0.00002511,0.00004644,-0.00114512
 ,0.00098877,0.00001239,-0.00748464,0.02953633,-0.00551133,-0.00688372,
 -0.02765104,0.00233817,0.00001708,0.00005085,0.00000696,-0.03351943,0.
 00418102,0.00042442,-0.00140833,-0.00132938,0.00007661,-0.00012700,0.0
 0001468,0.00002073,-0.00001209,0.00000598,0.00001132,0.00028465,0.0001
 6982,-0.00004748,-0.00001054,-0.00004091,0.00000480,-0.00000965,-0.000
 00917,0.00000107,-0.00026999,0.00021592,-0.00005294,0.00006141,-0.0000
 0048,-0.00003218,0.00001865,0.00001079,0.00000515,0.00000688,-0.000233
 47,0.00005191,0.00004572,-0.00015114,0.00002053,0.00006174,-0.00000991
 ,0.00000904,0.00004617,-0.00050591,0.00004740,0.00003435,-0.00000555,0
 .00001614,0.00000446,0.00000488,0.00000283,-0.00194259,0.00074202,-0.0
 0097392,-0.00007338,-0.00001149,-0.00000322,-0.00239548,-0.00075698,-0
 .00042266,-0.00010857,0.00025029,-0.00000725,-0.00000765,0.00009420,-0
 .00000085,0.00000941,0.00000132,0.00000295,-0.00012732,-0.00003495,-0.
 00003554,-0.00000032,0.00000779,0.00000295,0.00000567,0.00000927,-0.00
 000304,0.00000655,-0.00002465,0.00000295,-0.00000045,0.00000011,-0.000
 00123,0.00000271,0.00000113,-0.00000169,0.00000025,0.00000454,0.000000
 62,-0.00000210,-0.00000216,0.00000203,0.00000282,-0.00000104,-0.000002
 75,0.00000258,0.00000558,-0.00000370,0.00000488,0.00002102,-0.00000960
 ,-0.00002467,-0.00002239,-0.00003050,-0.00085194,-0.00014773,-0.000112
 90,0.05661250,-0.00055376,0.00016833,-0.00013701,0.00158004,0.00023033
 ,-0.00022246,0.01478505,-0.02587336,0.00576984,-0.01414637,-0.02521092
 ,0.00276817,0.00029982,-0.00017212,0.00002329,0.00482648,-0.21446338,0
 .02418718,-0.00097450,0.00001567,-0.00015036,-0.00035068,0.00034490,-0
 .00010176,-0.00006956,0.00007976,-0.00000160,0.00024339,-0.00035916,0.
 00017677,-0.00003967,-0.00046551,0.00008687,0.00002334,0.00000861,-0.0
 0000222,-0.00015588,-0.00055637,0.00000785,-0.00006028,0.00022877,-0.0
 0004609,-0.00004453,0.00010326,0.00001666,0.00078569,0.00034004,-0.000
 06454,0.00014901,0.00007124,-0.00004447,0.00011026,0.00007485,-0.00001
 895,0.00021408,-0.00019611,-0.00000951,0.00012171,-0.00002247,0.000039
 34,0.00005067,0.00003321,0.00001991,0.00062963,-0.00117964,0.00128571,
 -0.00004416,-0.00010557,0.00002388,-0.00170204,0.00007607,0.00012634,-
 0.00017636,-0.00001070,-0.00007668,-0.00005966,-0.00007818,0.00001344,
 -0.00005812,-0.00001632,-0.00000827,-0.00003892,0.00004248,0.00001093,
 0.00003632,0.00005708,0.00000283,-0.00001124,-0.00000616,0.00000578,-0
 .00002486,-0.00002188,-0.00000613,-0.00002519,-0.00001441,-0.00000525,
 0.00000498,-0.00001135,-0.00000199,-0.00000955,-0.00003276,-0.00000417
 ,0.00000294,-0.00007522,-0.00001388,0.00003637,-0.00001858,-0.00001438
 ,0.00006807,0.00001621,-0.00001603,0.00013910,0.00006984,-0.00001171,0
 .00010625,0.00016760,0.00003555,0.00008406,0.00037785,0.00001357,-0.00
 556134,0.26597860,0.00007588,-0.00004987,-0.00006167,-0.00006780,-0.00
 029775,-0.00243016,-0.00386126,0.00778220,0.00519147,0.00015292,0.0012
 0618,0.00670479,0.00002008,0.00003489,-0.00017580,0.00082740,0.0239334
 3,-0.04526421,-0.00000875,-0.00022140,-0.00052202,0.00006570,-0.000062
 24,0.00001560,-0.00001985,0.00003214,-0.00000662,-0.00009539,0.0000809
 6,0.00003609,0.00005938,0.00003064,-0.00001241,-0.00001957,-0.00004288
 ,-0.00000288,0.00040048,-0.00005684,-0.00020048,-0.00011749,-0.0001045
 2,-0.00000254,0.00003076,-0.00002711,-0.00002605,0.00045964,0.00007743
 ,-0.00011904,0.00001055,0.00016305,0.00009720,-0.00009416,0.00000558,-
 0.00003348,0.00003393,0.00009818,-0.00035458,-0.00010579,0.00003155,-0
 .00000355,-0.00002472,-0.00000847,-0.00000103,-0.00153557,0.00102703,0
 .00692019,0.00008555,0.00007010,0.00005804,-0.00049777,0.00045804,0.00
 235570,0.00018028,-0.00018974,-0.00049637,0.00003682,-0.00012867,-0.00
 000940,0.00002668,-0.00004879,-0.00001067,0.00002646,-0.00012255,0.000
 13297,0.00001105,-0.00004156,-0.00002216,-0.00000112,0.00000675,0.0000
 5446,0.00000682,0.00000055,-0.00001821,0.00000157,0.00000083,0.0000058
 5,-0.00000265,-0.00000186,0.00000535,-0.00000003,-0.00000601,-0.000000
 88,0.00000045,0.00001171,-0.00001127,-0.00000541,0.00000232,0.00000673
 ,-0.00000210,-0.00000531,0.00001754,-0.00002338,-0.00001127,0.00001295
 ,-0.00002469,-0.00000306,0.00022273,-0.00013798,-0.00003563,0.00034371
 ,0.00427129,-0.03369455,0.02753918,0.00003721,-0.00002987,0.00002546,-
 0.00005057,-0.00006379,-0.00001465,0.00010165,-0.00001488,0.00002110,-
 0.00701163,0.02868558,-0.00432347,-0.00697564,-0.02899070,0.00098814,-
 0.00132346,0.00118522,-0.00007879,-0.03407805,0.00094749,0.00107463,-0
 .00002449,-0.00000099,0.00001706,0.00000201,0.00000066,0.00000259,0.00
 010410,0.00008060,-0.00003177,0.00000368,0.00000443,-0.00000679,-0.000
 00659,-0.00000602,0.00000092,-0.00019288,0.00001323,-0.00002013,0.0000
 2303,-0.00002171,-0.00000237,0.00001403,-0.00000650,-0.00000241,-0.000
 17362,0.00046565,-0.00002852,0.00000454,-0.00001464,0.00001206,0.00001
 043,-0.00000957,0.00000665,0.00016051,-0.00004035,0.00002035,0.0000584
 8,-0.00002766,0.00001457,0.00001086,-0.00000080,0.00000160,0.00030506,
 0.00009028,0.00002148,-0.00001736,0.00000153,-0.00000348,-0.00230182,0
 .00053340,-0.00099931,-0.00013520,0.00001696,-0.00003195,-0.00001518,0
 .00002766,-0.00000474,-0.00244531,-0.00112183,-0.00091876,-0.00003704,
 0.00010508,0.00009178,-0.00000885,0.00002248,-0.00001428,0.00004048,-0
 .00044473,0.00006771,-0.00000240,0.00000463,-0.00000632,0.00000349,0.0
 0000275,0.00000073,0.00000015,0.00000270,0.00000143,0.00000067,0.00000
 834,0.00000034,-0.00000105,0.00000781,0.00000170,-0.00000313,0.0000018
 9,0.00000107,-0.00000623,-0.00000067,0.00000056,-0.00000868,0.00000043
 ,-0.00000307,-0.00001635,-0.00001398,-0.00000146,-0.00002257,0.0000164
 1,-0.00000717,-0.00083706,-0.00017249,-0.00008277,0.05513736,-0.000141
 11,0.00006228,-0.00002592,0.00031577,0.00003630,0.00003394,-0.00073306
 ,0.00008807,-0.00013227,0.01379690,-0.02558220,0.00464527,-0.01420604,
 -0.02675362,0.00115662,0.00159183,0.00023181,0.00000697,0.00050655,-0.
 21710525,0.01631936,-0.00017610,0.00008009,-0.00003870,-0.00008080,0.0
 0002627,0.00001130,0.00021045,-0.00003086,0.00005407,0.00001108,-0.000
 14306,0.00004002,0.00000433,-0.00001107,-0.00000118,-0.00025054,-0.000
 20519,-0.00004894,-0.00009604,0.00004075,-0.00004204,-0.00005478,0.000
 04872,0.00000645,0.00026115,-0.00053639,-0.00000667,0.00014560,0.00013
 133,-0.00001614,-0.00014948,0.00006996,-0.00004809,0.00005765,0.001121
 14,-0.00009565,-0.00040765,0.00041923,-0.00012134,-0.00015841,0.000080
 87,-0.00004684,0.00000798,-0.00034757,0.00009495,0.00012138,0.00007248
 ,0.00004199,0.00081128,-0.00026978,0.00067368,0.00022962,0.00033830,0.
 00006048,0.00014457,-0.00001620,0.00006792,-0.00144443,-0.00088962,0.0
 0040662,0.00019597,-0.00078569,0.00000806,0.00009552,-0.00032810,0.000
 03269,0.00000840,-0.00021021,-0.00004358,-0.00001588,0.00000189,-0.000
 00219,-0.00003325,-0.00001689,-0.00000287,-0.00001456,-0.00006932,0.00
 000302,0.00000345,-0.00007049,-0.00000315,0.00000981,-0.00005500,-0.00
 001077,0.00003055,-0.00001711,-0.00001249,0.00005616,0.00002383,-0.000
 01260,0.00006480,0.00004258,-0.00000917,0.00004307,0.00004556,-0.00000
 054,-0.00002921,0.00009995,-0.00001239,0.00012668,0.00031659,0.0000011
 0,-0.00038354,0.26960587,0.00000703,0.00001618,-0.00001212,0.00000156,
 0.00001303,0.00010514,-0.00003434,0.00008666,-0.00006616,-0.00367524,0
 .00702006,0.00494591,-0.00093092,-0.00129377,0.00615033,0.00009540,-0.
 00004463,-0.00149771,0.00209610,0.01633451,-0.04345250,-0.00003592,0.0
 0004274,-0.00001147,0.00000693,0.00001664,-0.00000381,0.00007024,0.000
 02481,0.00001617,-0.00000070,-0.00004961,-0.00000107,-0.00000436,-0.00
 000563,-0.00000148,-0.00013572,-0.00001812,-0.00003291,0.00001174,0.00
 002933,0.00001488,0.00002021,0.00000055,-0.00000507,-0.00008712,-0.000
 03119,-0.00034258,0.00003562,-0.00015545,-0.00000095,0.00008868,-0.000
 02766,-0.00000003,0.00051543,-0.00030427,0.00019533,0.00018904,-0.0000
 5786,0.00003993,0.00003500,-0.00000444,-0.00000098,0.00018769,-0.00002
 061,0.00007572,-0.00006062,-0.00003848,-0.00001128,-0.00121919,0.00014
 790,0.00504446,-0.00015679,0.00003353,-0.00009716,-0.00004312,0.000103
 35,-0.00002761,-0.00108578,0.00091778,0.00519435,0.00004263,0.00023189
 ,-0.00087548,-0.00004027,0.00006220,0.00009716,0.00007053,-0.00003699,
 -0.00045245,-0.00000637,-0.00000009,0.00005449,0.00000404,0.00000226,0
 .00000205,0.00000362,0.00000910,-0.00000990,0.00000101,0.00001521,0.00
 001275,-0.00000128,0.00000472,0.00000371,-0.00000304,0.00000194,0.0000
 0301,-0.00000576,-0.00000504,0.00000326,0.00000104,0.00000007,0.000003
 38,-0.00000414,-0.00000385,-0.00000360,-0.00000093,-0.00000436,0.00002
 009,-0.00011386,-0.00000763,0.00031235,0.00401244,-0.02278919,0.025794
 68,0.00006118,-0.00005510,-0.00001172,-0.00013043,0.00002980,-0.000005
 97,0.00019172,-0.00029520,0.00011809,-0.00109448,-0.00234382,-0.000543
 04,-0.17020157,0.07890821,-0.02264311,-0.00074995,0.00019633,-0.000102
 70,-0.04147967,0.00445319,-0.00619813,0.00028486,-0.00021213,-0.000001
 45,0.00006258,-0.00002072,-0.00000574,-0.00048081,-0.00004286,0.000025
 90,0.00000397,0.00020216,-0.00001783,0.00000849,-0.00000188,-0.0000054
 5,0.00074386,-0.00000556,0.00009394,-0.00001909,-0.00000010,0.00002215
 ,0.00003888,-0.00004975,-0.00000488,0.00091106,-0.00047088,0.00015387,
 0.00034746,-0.00054800,0.00008802,0.00028089,-0.00013158,-0.00000364,0
 .00087221,-0.00029867,-0.00051291,0.00024021,-0.00009338,0.00009102,0.
 00006635,-0.00004057,-0.00001194,-0.00077450,0.00012251,-0.00011386,-0
 .00013871,-0.00008332,-0.00001461,-0.00074988,0.00053246,-0.00020156,-
 0.00042027,0.00054405,-0.00009445,-0.00018642,0.00038106,0.00002581,-0
 .00285721,0.01260210,-0.00188518,-0.00008271,0.00014484,-0.00000684,-0
 .00006102,0.00006742,-0.00000128,0.00082592,-0.00020114,0.00027758,0.0
 0007035,0.00003115,-0.00000483,0.00003015,0.00001856,0.00000469,0.0000
 0693,0.00002900,-0.00000182,0.00000113,0.00005206,0.00000840,-0.000003
 42,0.00003895,0.00000696,-0.00002607,0.00001498,0.00000900,-0.00003471
 ,-0.00001501,0.00000744,-0.00004936,-0.00002948,0.00001005,-0.00002157
 ,-0.00001830,-0.00000181,-0.00000127,-0.00002790,0.00000432,0.00000781
 ,-0.00002344,-0.00001170,-0.00033329,-0.00047788,0.00014964,0.21484944
 ,-0.00004348,0.00001150,0.00000703,0.00002758,-0.00000522,-0.00000214,
 -0.00012131,0.00001680,-0.00003777,-0.00142747,-0.00064171,0.00028973,
 0.07890971,-0.07952207,0.01309086,-0.00023820,0.00011314,-0.00005142,-
 0.00956976,0.00693636,-0.00141504,-0.00012929,0.00008374,0.00000323,-0
 .00003612,-0.00000150,0.00000244,0.00021210,0.00000756,-0.00001586,-0.
 00000143,-0.00007054,0.00000723,-0.00000187,0.00000634,0.00000314,-0.0
 0032075,0.00002946,-0.00004631,-0.00000012,-0.00001918,-0.00001276,-0.
 00003425,0.00002216,0.00000374,-0.00047082,0.00036952,-0.00009068,-0.0
 0023287,0.00042530,-0.00005922,-0.00021405,0.00008756,-0.00000028,-0.0
 0121526,-0.00260788,0.00035344,-0.00026727,-0.00003170,-0.00008358,-0.
 00005204,0.00000633,0.00000674,0.00034108,-0.00003743,0.00004253,0.000
 12013,0.00007209,0.00001139,0.00053245,-0.00013783,0.00011700,0.000325
 54,-0.00039112,0.00007817,0.00012578,-0.00028643,-0.00001381,0.0266235
 6,-0.03166576,0.00614756,0.00057917,-0.00055354,0.00011528,0.00006960,
 -0.00007456,0.00000627,0.00018753,-0.00072380,-0.00001329,0.00001247,0
 .00001228,0.00001095,-0.00000988,-0.00000664,-0.00000216,-0.00000194,-
 0.00001542,0.00000117,-0.00000053,-0.00003641,-0.00000653,0.00000293,-
 0.00002098,-0.00000444,0.00001495,-0.00000891,-0.00000521,0.00002097,0
 .00001028,-0.00000389,0.00002306,0.00001405,-0.00000411,0.00001264,0.0
 0001307,0.00000096,0.00000052,0.00002476,-0.00000304,-0.00000472,0.000
 07479,-0.00000124,-0.00086627,0.00043480,-0.00023784,-0.09288751,0.108
 08938,0.00001363,-0.00001164,-0.00000193,-0.00001983,0.00000338,-0.000
 02803,0.00006468,-0.00008851,-0.00017667,-0.00063619,0.00024950,0.0049
 1543,-0.02254429,0.01303408,-0.04395562,-0.00012465,0.00002408,-0.0000
 1141,-0.00511524,0.00038812,0.00436487,0.00005451,-0.00004335,-0.00001
 240,0.00001251,-0.00000151,-0.00000431,-0.00009882,0.00000024,0.000021
 69,0.00000202,0.00003453,-0.00000263,0.00000118,-0.00000069,-0.0000025
 2,0.00013977,-0.00001153,0.00002765,-0.00001392,0.00000809,0.00001173,
 0.00000754,-0.00001010,-0.00000429,0.00024519,-0.00014344,-0.00062868,
 0.00007963,-0.00011550,0.00002787,0.00006473,-0.00002575,-0.00001243,-
 0.00052197,0.00045284,0.00491413,0.00010882,-0.00001227,-0.00017674,0.
 00001688,-0.00000599,-0.00000195,-0.00012651,0.00003683,-0.00000493,-0
 .00002898,-0.00001895,-0.00000252,-0.00019677,0.00011454,0.00029418,-0
 .00009497,0.00009147,-0.00000506,-0.00004932,0.00008571,0.00002150,-0.
 00295534,0.00433649,0.00434157,-0.00008456,0.00009735,-0.00001200,-0.0
 0001295,0.00001548,-0.00002806,0.00027175,-0.00007145,-0.00120621,-0.0
 0000050,0.00000208,0.00007735,0.00000401,0.00000284,0.00000884,-0.0000
 0032,0.00000411,0.00000679,0.00000046,0.00001055,0.00000453,0.00000017
 ,0.00000718,0.00000341,-0.00000474,0.00000275,0.00000327,-0.00000614,-
 0.00000371,0.00000343,-0.00000891,-0.00000563,0.00000457,-0.00000372,-
 0.00000175,0.00000680,-0.00000045,-0.00000489,0.00000886,-0.00000191,-
 0.00000055,0.00007739,0.00019844,-0.00020462,-0.00120568,0.03138165,-0
 .01822997,0.02833995,-0.00081266,-0.00153819,-0.00027533,-0.00061958,0
 .00005035,-0.00002004,-0.00000335,0.00020604,0.00009494,0.00143825,0.0
 0006071,0.00020249,0.00063650,0.00107820,0.00001918,-0.00141323,0.0002
 2497,-0.00019061,-0.00130590,-0.00000308,-0.00016258,0.00017742,-0.003
 52018,0.00030890,-0.00086614,-0.00181458,0.00045865,-0.00339111,-0.007
 59721,0.00243386,-0.01959842,0.00239322,0.00681040,-0.00059960,0.00066
 219,0.00014840,0.00011023,0.00686429,-0.00327057,-0.13654167,0.0783591
 7,0.11698174,0.00061805,-0.00001466,0.00021336,-0.00062051,0.00407098,
 -0.00165130,-0.16326345,-0.08136073,-0.10314458,0.00152781,0.00006266,
 -0.00035783,-0.00108147,0.00053828,-0.00008926,-0.00206705,0.00132202,
 -0.00008810,0.00094521,-0.00116663,0.00007898,-0.00395764,0.01002377,-
 0.00311452,-0.00302020,0.01178144,0.00324591,0.00065265,0.00014561,-0.
 00023582,-0.01986139,-0.00330109,-0.00538550,-0.00480863,-0.01254915,-
 0.00218033,0.00055403,-0.00111794,0.00017419,-0.00036061,-0.00095327,-
 0.00001751,-0.00031770,0.00040423,-0.00009772,0.00001518,0.00001282,-0
 .00002051,-0.00003697,0.00007910,-0.00011330,0.00000417,-0.00003619,-0
 .00005572,-0.00014997,-0.00008597,-0.00010632,-0.00012881,-0.00030685,
 -0.00007332,-0.00002902,0.00020821,0.00010822,0.00014949,-0.00009842,-
 0.00003411,-0.00033035,0.00015929,0.00010510,-0.00019540,-0.00002217,0
 .00013770,0.00008832,-0.00021314,0.00004471,-0.00001179,-0.00002385,0.
 00003640,-0.00002425,0.00000572,-0.00004307,0.00001116,0.00000441,-0.0
 0000104,-0.00000968,0.00000006,-0.00001466,0.35851813,-0.00217341,-0.0
 0060555,-0.00024369,0.00023235,-0.00005699,0.00010028,0.00250178,-0.00
 118884,0.00016419,0.00198292,-0.00073842,0.00021959,0.00107781,0.00187
 234,-0.00001656,-0.00155565,-0.00077758,-0.00008425,-0.00218447,-0.000
 08972,-0.00029105,-0.00071381,-0.00045145,0.00058534,-0.00086322,-0.00
 042886,0.00002306,-0.01172083,-0.01633908,0.00396366,0.00228853,0.0050
 9152,0.00011991,0.00066110,0.00015832,-0.00008701,0.01258230,-0.205413
 26,0.11752688,0.07832879,-0.04717931,-0.06798315,-0.00096185,-0.001921
 59,-0.00039154,0.00407644,0.00405284,0.00093830,-0.08705296,-0.0427199
 4,-0.05558078,-0.00274642,-0.00180707,-0.00054963,-0.00138350,0.001780
 69,-0.00028743,-0.00097969,0.00087576,-0.00015165,-0.00052872,-0.00236
 580,0.00037335,0.00582760,-0.01596217,0.00446532,0.01190738,-0.0115105
 8,-0.00596289,0.00014297,0.00082196,0.00013445,0.00087965,-0.00008952,
 0.00046044,-0.00843018,-0.01497407,-0.00402531,0.00106354,-0.00194701,
 0.00028994,0.00082834,-0.00182993,0.00021217,0.00022423,-0.00035885,-0
 .00003189,0.00000662,0.00002099,-0.00001055,-0.00000156,0.00002455,-0.
 00001599,-0.00001478,-0.00004644,-0.00007428,-0.00035032,-0.00008373,-
 0.00011221,0.00001578,-0.00038482,-0.00020024,0.00033237,-0.00012020,-
 0.00005943,-0.00009864,0.00003685,0.00001867,0.00003554,0.00018116,-0.
 00006572,-0.00034455,-0.00031715,0.00016489,0.00005106,-0.00032075,0.0
 0014863,-0.00004516,-0.00002999,0.00008477,0.00008661,0.00001218,0.000
 10502,0.00001055,0.00002525,0.00002301,-0.00000005,-0.00000947,0.00000
 851,-0.00299502,0.35513316,0.00098786,0.00055717,0.00141601,0.00040012
 ,-0.00021145,-0.00003206,-0.00185623,0.00045523,0.00416458,-0.00005547
 ,-0.00060840,0.00016831,0.00013678,-0.00008357,-0.00002929,0.00025752,
 0.00031325,0.00021646,-0.00015145,-0.00002709,-0.00003902,-0.00079756,
 0.00105978,-0.00046383,0.00188605,0.00089814,0.00314022,0.00397155,0.0
 0942184,-0.00185840,0.01196356,-0.00339396,-0.00353648,0.00002442,-0.0
 0001547,0.00005175,-0.00437372,0.10078134,-0.06990985,0.10231943,-0.05
 949119,-0.11088699,0.00016772,-0.00206652,0.00314725,0.00153294,-0.000
 90288,-0.00203673,-0.08915196,-0.04629664,-0.06924010,-0.00131138,0.00
 016890,-0.00045948,0.00050552,0.00034594,0.00016714,-0.00130514,0.0013
 9145,0.00416344,0.00001109,-0.00111962,0.00141808,-0.00455279,0.010350
 99,-0.00552865,0.00885876,-0.00868390,-0.00351121,-0.00145583,0.000841
 48,-0.00009142,-0.01121719,-0.00121797,-0.00549430,-0.00616349,-0.0080
 7011,-0.00180277,-0.00005546,0.00015143,-0.00004039,-0.00014448,-0.000
 37226,0.00021741,0.00038225,-0.00024147,-0.00003175,-0.00005700,-0.000
 03226,0.00002361,-0.00004632,-0.00001545,-0.00032554,-0.00000636,-0.00
 003083,-0.00021718,-0.00017827,-0.00013495,-0.00011587,0.00001223,-0.0
 0008837,-0.00003157,0.00020155,-0.00012852,-0.00024402,-0.00014326,0.0
 0008185,-0.00053124,0.00021180,-0.00011250,-0.00024413,0.00008403,0.00
 003423,-0.00003248,0.00002778,0.00022286,-0.00011724,0.00002333,0.0000
 2029,-0.00021766,-0.00001048,0.00004680,-0.00032586,-0.00000039,0.0000
 6548,0.00002333,-0.00007102,0.00004115,0.00000220,-0.01085686,0.006093
 35,0.25908632||-0.00000652,0.00000372,-0.00000732,0.00000685,-0.000007
 67,0.00000066,0.00000622,0.00000080,0.00000108,-0.00000262,0.00000970,
 0.00000189,-0.00001127,0.00001082,-0.00000442,-0.00000531,0.00000372,0
 .00000651,0.00000605,-0.00000727,0.00000301,-0.00000539,-0.00000218,0.
 00000041,0.00000282,-0.00001268,0.00000036,0.00000137,0.00000833,0.000
 00667,-0.00000167,0.00000080,0.00000567,-0.00000185,0.00000120,0.00001
 770,-0.00000051,-0.00000756,0.00000042,-0.00000671,0.00000442,0.000002
 42,0.00001120,0.00000521,-0.00000533,0.00000460,-0.00000555,0.00000442
 ,0.00000296,0.00000267,0.00000258,-0.00000088,0.00000474,0.00000012,0.
 00000304,-0.00000211,0.00000611,0.00000337,-0.00000667,-0.00000082,-0.
 00000492,0.00000251,-0.00000575,-0.00000361,0.00000515,-0.00000689,-0.
 00000128,0.00000049,0.00000845,-0.00000662,-0.00000442,-0.00000418,-0.
 00000461,0.00000190,-0.00000632,-0.00000620,-0.00000433,0.00000533,0.0
 0000644,-0.00001050,0.00000194,-0.00000333,0.00000485,0.00000445,0.000
 00857,-0.00000145,0.00000329,-0.00000480,-0.00000202,-0.00000236,-0.00
 000107,-0.00000236,-0.00000398,-0.00000012,-0.00000203,0.00000114,-0.0
 0000071,0.00000023,-0.00000004,-0.00000131,-0.00000281,-0.00000156,-0.
 00000012,-0.00000030,-0.00000353,-0.00000154,0.00000087,-0.00000869,-0
 .00000094,0.00000022,-0.00000512,0.00000178,0.00000267,-0.00000122,-0.
 00000071,0.00000104,0.00000108,0.00000203,0.00000133,0.00000179,0.0000
 0269,0.00000101,-0.00000490,0.00000005,0.00000452,-0.00000175,0.000004
 52,0.00000301,0.00000061,0.00001009,-0.00000402,-0.00001393|||@


 LEARN FROM YESTERDAY,
 LIVE FOR TODAY,
 LOOK TO TOMORROW,
 REST THIS AFTERNOON.

           -- SNOOPY
 Job cpu time:       0 days  0 hours  0 minutes 12.0 seconds.
 File lengths (MBytes):  RWF=    370 Int=      0 D2E=      0 Chk=      4 Scr=      1
 Normal termination of Gaussian 09 at Sun Mar 15 20:43:32 2026.
