 Entering Link 1 = C:\Gaussian\G09W\l1.exe PID=     42860.
  
 Copyright (c) 1988,1990,1992,1993,1995,1998,2003,2009,2013,
            Gaussian, Inc.  All Rights Reserved.
  
 This is part of the Gaussian(R) 09 program.  It is based on
 the Gaussian(R) 03 system (copyright 2003, Gaussian, Inc.),
 the Gaussian(R) 98 system (copyright 1998, Gaussian, Inc.),
 the Gaussian(R) 94 system (copyright 1995, Gaussian, Inc.),
 the Gaussian 92(TM) system (copyright 1992, Gaussian, Inc.),
 the Gaussian 90(TM) system (copyright 1990, Gaussian, Inc.),
 the Gaussian 88(TM) system (copyright 1988, Gaussian, Inc.),
 the Gaussian 86(TM) system (copyright 1986, Carnegie Mellon
 University), and the Gaussian 82(TM) system (copyright 1983,
 Carnegie Mellon University). Gaussian is a federally registered
 trademark of Gaussian, Inc.
  
 This software contains proprietary and confidential information,
 including trade secrets, belonging to Gaussian, Inc.
  
 This software is provided under written license and may be
 used, copied, transmitted, or stored only in accord with that
 written license.
  
 The following legend is applicable only to US Government
 contracts under FAR:
  
                    RESTRICTED RIGHTS LEGEND
  
 Use, reproduction and disclosure by the US Government is
 subject to restrictions as set forth in subparagraphs (a)
 and (c) of the Commercial Computer Software - Restricted
 Rights clause in FAR 52.227-19.
  
 Gaussian, Inc.
 340 Quinnipiac St., Bldg. 40, Wallingford CT 06492
  
  
 ---------------------------------------------------------------
 Warning -- This program may not be used in any manner that
 competes with the business of Gaussian, Inc. or will provide
 assistance to any competitor of Gaussian, Inc.  The licensee
 of this program is prohibited from giving any competitor of
 Gaussian, Inc. access to this program.  By using this program,
 the user acknowledges that Gaussian, Inc. is engaged in the
 business of creating and licensing software in the field of
 computational chemistry and represents and warrants to the
 licensee that it is not a competitor of Gaussian, Inc. and that
 it will not use this program in any manner prohibited above.
 ---------------------------------------------------------------
  

 Cite this work as:
 Gaussian 09, Revision D.01,
 M. J. Frisch, G. W. Trucks, H. B. Schlegel, G. E. Scuseria, 
 M. A. Robb, J. R. Cheeseman, G. Scalmani, V. Barone, B. Mennucci, 
 G. A. Petersson, H. Nakatsuji, M. Caricato, X. Li, H. P. Hratchian, 
 A. F. Izmaylov, J. Bloino, G. Zheng, J. L. Sonnenberg, M. Hada, 
 M. Ehara, K. Toyota, R. Fukuda, J. Hasegawa, M. Ishida, T. Nakajima, 
 Y. Honda, O. Kitao, H. Nakai, T. Vreven, J. A. Montgomery, Jr., 
 J. E. Peralta, F. Ogliaro, M. Bearpark, J. J. Heyd, E. Brothers, 
 K. N. Kudin, V. N. Staroverov, T. Keith, R. Kobayashi, J. Normand, 
 K. Raghavachari, A. Rendell, J. C. Burant, S. S. Iyengar, J. Tomasi, 
 M. Cossi, N. Rega, J. M. Millam, M. Klene, J. E. Knox, J. B. Cross, 
 V. Bakken, C. Adamo, J. Jaramillo, R. Gomperts, R. E. Stratmann, 
 O. Yazyev, A. J. Austin, R. Cammi, C. Pomelli, J. W. Ochterski, 
 R. L. Martin, K. Morokuma, V. G. Zakrzewski, G. A. Voth, 
 P. Salvador, J. J. Dannenberg, S. Dapprich, A. D. Daniels, 
 O. Farkas, J. B. Foresman, J. V. Ortiz, J. Cioslowski, 
 and D. J. Fox, Gaussian, Inc., Wallingford CT, 2013.
 
 ******************************************
 Gaussian 09:  IA32W-G09RevD.01 24-Apr-2013
                10-Mar-2026 
 ******************************************
 %nprocshared=4
 Will use up to    4 processors via shared memory.
 %mem=1GB
 %chk=C:\Users\User\Desktop\IMRG\Thesis\Pending Journal Work\Individual Gas\NO2\N
 O2_freq.chk
 ----------------------------------------------------
 # opt freq pm6 guess=huckel scf=qc geom=connectivity
 ----------------------------------------------------
 1/14=-1,18=20,19=15,26=1,38=1,57=2/1,3;
 2/9=110,12=2,17=6,18=5,40=1/2;
 3/5=2,16=1,25=1,41=3900000,71=1/1,2,3;
 4/11=4,35=1/1;
 5/5=2,8=3,35=1,38=5/8;
 6/7=2,8=2,9=2,10=2,28=1/1;
 7//1,2,3,16;
 1/14=-1,18=20,19=15,26=1/3(2);
 2/9=110/2;
 99//99;
 2/9=110/2;
 3/5=2,16=1,25=1,41=3900000,71=1,135=20/1,2,3;
 4/5=5,11=4,16=3,35=1/1;
 5/5=2,8=3,35=1,38=5/8;
 7//1,2,3,16;
 1/14=-1,18=20,19=15,26=1/3(-5);
 2/9=110/2;
 6/7=2,8=2,9=2,10=2,19=2,28=1/1;
 99/9=1/99;
 --------
 NO2_freq
 --------
 Symbolic Z-matrix:
 Charge =  0 Multiplicity = 2
 N                     3.78319   6.20516   1.84237 
 O                     2.48432   6.29603   2.14554 
 O                     4.5473    5.31583   1.78696 
 

 GradGradGradGradGradGradGradGradGradGradGradGradGradGradGradGradGradGrad
 Berny optimization.
 Initialization pass.
                           ----------------------------
                           !    Initial Parameters    !
                           ! (Angstroms and Degrees)  !
 --------------------------                            --------------------------
 ! Name  Definition              Value          Derivative Info.                !
 --------------------------------------------------------------------------------
 ! R1    R(1,2)                  1.3369         estimate D2E/DX2                !
 ! R2    R(1,3)                  1.1738         estimate D2E/DX2                !
 ! A1    A(2,1,3)              134.0            estimate D2E/DX2                !
 --------------------------------------------------------------------------------
 Trust Radius=3.00D-01 FncErr=1.00D-07 GrdErr=1.00D-07
 Number of steps in this run=     20 maximum allowed number of steps=    100.
 GradGradGradGradGradGradGradGradGradGradGradGradGradGradGradGradGradGrad

                          Input orientation:                          
 ---------------------------------------------------------------------
 Center     Atomic      Atomic             Coordinates (Angstroms)
 Number     Number       Type             X           Y           Z
 ---------------------------------------------------------------------
      1          7           0        3.783192    6.205160    1.842370
      2          8           0        2.484320    6.296026    2.145540
      3          8           0        4.547299    5.315833    1.786961
 ---------------------------------------------------------------------
                    Distance matrix (angstroms):
                    1          2          3
     1  N    0.000000
     2  O    1.336876   0.000000
     3  O    1.173811   2.311977   0.000000
 Stoichiometry    NO2(2)
 Framework group  CS[SG(NO2)]
 Deg. of freedom     3
 Full point group                 CS      NOp   2
 Largest Abelian subgroup         CS      NOp   2
 Largest concise Abelian subgroup C1      NOp   1
                         Standard orientation:                         
 ---------------------------------------------------------------------
 Center     Atomic      Atomic             Coordinates (Angstroms)
 Number     Number       Type             X           Y           Z
 ---------------------------------------------------------------------
      1          7           0        0.000000    0.345190    0.000000
      2          8           0        1.137437   -0.357287    0.000000
      3          8           0       -1.137437    0.055246    0.000000
 ---------------------------------------------------------------------
 Rotational constants (GHZ):    218.0785007     11.7999145     11.1942118
 Standard basis: VSTO-6G (5D, 7F)
 There are     9 symmetry adapted cartesian basis functions of A'  symmetry.
 There are     3 symmetry adapted cartesian basis functions of A"  symmetry.
 There are     9 symmetry adapted basis functions of A'  symmetry.
 There are     3 symmetry adapted basis functions of A"  symmetry.
    12 basis functions,    72 primitive gaussians,    12 cartesian basis functions
     9 alpha electrons        8 beta electrons
       nuclear repulsion energy        54.1326105077 Hartrees.
 Integral buffers will be    262144 words long.
 Regular integral format.
 Two-electron integral symmetry is turned off.
 Do NDO integrals.
 One-electron integrals computed using PRISM.
 NBasis=    12 RedAO= T EigKep=  1.41D+00  NBF=     9     3
 NBsUse=    12 1.00D-06 EigRej= -1.00D+00 NBFU=     9     3
 Projected New-EHT guess.
 Enter ItEHT:  IZDO=4 IZDPar=0 Conv= 1.00D-06 N=   12
 It=   1                  EEH= -61.0655039236     EQH= 0.000000000000E+00 EH= -61.0655039236    
 Initial guess orbital symmetries:
 Alpha Orbitals:
       Occupied  (A') (A') (A') (A') (A') (A') (A") (A') (A')
       Virtual   (A") (A') (A")
 Beta  Orbitals:
       Occupied  (A') (A') (A') (A') (A') (A') (A") (A')
       Virtual   (A") (A") (A') (A')
 The electronic state of the initial guess is 2-A'.
 Initial guess <Sx>= 0.0000 <Sy>= 0.0000 <Sz>= 0.5000 <S**2>= 0.7501 S= 0.5000
 Keep J ints in memory in canonical form, NReq=859673.
 Gradient too large for Newton-Raphson -- use scaled steepest descent instead.
 Gradient too large for Newton-Raphson -- use scaled steepest descent instead.
     Minimum is close to point  5 DX=  1.51D-01 DF= -8.57D-03 DXR=  9.13D-02 DFR=  1.29D-02 which will be used.
 Gradient too large for Newton-Raphson -- use scaled steepest descent instead.
     Accept linear search using points  1 and  2.
     Minimum is close to point  2 DX= -2.56D-02 DF= -9.27D-05 DXR=  2.01D-02 DFR=  6.34D-04 which will be used.
 Gradient too large for Newton-Raphson -- use scaled steepest descent instead.
     Accept linear search using points  1 and  2.
     Minimum is close to point  2 DX= -1.09D-02 DF= -4.44D-06 DXR=  7.30D-03 DFR=  1.00D-04 which will be used.
 Gradient too large for Newton-Raphson -- use scaled steepest descent instead.
     Minimum is close to point  3 DX=  1.40D-01 DF= -1.01D-04 DXR=  6.26D-02 DFR=  3.66D-03 which will be used.
 Gradient too large for Newton-Raphson -- use scaled steepest descent instead.
 Gradient too large for Newton-Raphson -- use scaled steepest descent instead.
     Minimum is close to point  2 DX= -6.55D-02 DF= -1.04D-05 DXR=  3.57D-02 DFR=  1.28D-03 which will be used.
 Gradient too large for Newton-Raphson -- use scaled steepest descent instead.
     Accept linear search using points  1 and  2.
 Gradient too large for Newton-Raphson -- use scaled steepest descent instead.
     Accept linear search using points  1 and  2.
 Gradient too large for Newton-Raphson -- use scaled steepest descent instead.
     Accept linear search using points  1 and  2.
     Minimum is close to point  2 DX= -1.23D-01 DF= -2.25D-05 DXR=  8.93D-02 DFR=  1.36D-02 which will be used.
 Gradient too large for Newton-Raphson -- use scaled steepest descent instead.
     Accept linear search using points  1 and  2.
     Minimum is close to point  2 DX= -9.73D-02 DF= -9.50D-06 DXR=  7.47D-02 DFR=  8.96D-03 which will be used.
 Gradient too large for Newton-Raphson -- use scaled steepest descent instead.
     Minimum is close to point  2 DX=  2.90D-02 DF= -3.11D-07 DXR=  2.18D-02 DFR=  4.77D-04 which will be used.
 Gradient too large for Newton-Raphson -- use scaled steepest descent instead.
 Gradient too large for Newton-Raphson -- use scaled steepest descent instead.
     Accept linear search using points  1 and  2.
     Minimum is close to point  2 DX= -9.53D-02 DF= -2.15D-06 DXR=  6.79D-02 DFR=  8.04D-03 which will be used.
 Gradient too large for Newton-Raphson -- use scaled steepest descent instead.
     Accept linear search using points  1 and  2.
     Minimum is close to point  2 DX= -1.34D-01 DF= -2.67D-06 DXR=  9.14D-02 DFR=  1.52D-02 which will be used.
 LinEq1:  Iter=  0 NonCon=     1 RMS=1.77D-03 Max=8.07D-03 NDo=     1
 AX will form     1 AO Fock derivatives at one time.
 LinEq1:  Iter=  1 NonCon=     1 RMS=8.55D-04 Max=5.47D-03 NDo=     1
 LinEq1:  Iter=  2 NonCon=     1 RMS=1.56D-04 Max=5.82D-04 NDo=     1
 LinEq1:  Iter=  3 NonCon=     1 RMS=9.49D-04 Max=6.92D-03 NDo=     1
 LinEq1:  Iter=  4 NonCon=     1 RMS=9.37D-04 Max=4.93D-03 NDo=     1
 LinEq1:  Iter=  5 NonCon=     1 RMS=9.40D-05 Max=3.41D-04 NDo=     1
 LinEq1:  Iter=  6 NonCon=     1 RMS=1.56D-05 Max=5.90D-05 NDo=     1
 LinEq1:  Iter=  7 NonCon=     1 RMS=1.15D-05 Max=7.42D-05 NDo=     1
 LinEq1:  Iter=  8 NonCon=     1 RMS=8.37D-06 Max=3.32D-05 NDo=     1
 LinEq1:  Iter=  9 NonCon=     1 RMS=1.01D-06 Max=2.88D-06 NDo=     1
 LinEq1:  Iter= 10 NonCon=     1 RMS=3.20D-07 Max=1.81D-06 NDo=     1
 LinEq1:  Iter= 11 NonCon=     1 RMS=1.60D-07 Max=4.83D-07 NDo=     1
 LinEq1:  Iter= 12 NonCon=     1 RMS=7.76D-08 Max=3.39D-07 NDo=     1
 LinEq1:  Iter= 13 NonCon=     1 RMS=2.15D-08 Max=5.90D-08 NDo=     1
 LinEq1:  Iter= 14 NonCon=     1 RMS=2.84D-09 Max=9.99D-09 NDo=     1
 LinEq1:  Iter= 15 NonCon=     0 RMS=3.81D-10 Max=1.05D-09 NDo=     1
 Linear equations converged to 1.000D-09 1.000D-08 after    15 iterations.
     Accept linear search using points  1 and  2.
 LinEq1:  Iter=  0 NonCon=     1 RMS=3.39D-04 Max=1.57D-03 NDo=     1
 LinEq1:  Iter=  1 NonCon=     1 RMS=1.24D-04 Max=6.12D-04 NDo=     1
 LinEq1:  Iter=  2 NonCon=     1 RMS=2.96D-05 Max=1.17D-04 NDo=     1
 LinEq1:  Iter=  3 NonCon=     1 RMS=8.72D-05 Max=6.58D-04 NDo=     1
 LinEq1:  Iter=  4 NonCon=     1 RMS=1.08D-04 Max=5.72D-04 NDo=     1
 LinEq1:  Iter=  5 NonCon=     1 RMS=2.24D-05 Max=7.67D-05 NDo=     1
 LinEq1:  Iter=  6 NonCon=     1 RMS=3.78D-06 Max=1.18D-05 NDo=     1
 LinEq1:  Iter=  7 NonCon=     1 RMS=1.11D-06 Max=5.81D-06 NDo=     1
 LinEq1:  Iter=  8 NonCon=     1 RMS=1.39D-06 Max=6.89D-06 NDo=     1
 LinEq1:  Iter=  9 NonCon=     1 RMS=3.03D-07 Max=9.65D-07 NDo=     1
 LinEq1:  Iter= 10 NonCon=     1 RMS=1.16D-07 Max=6.98D-07 NDo=     1
 LinEq1:  Iter= 11 NonCon=     1 RMS=7.31D-08 Max=2.44D-07 NDo=     1
 LinEq1:  Iter= 12 NonCon=     1 RMS=1.22D-08 Max=4.79D-08 NDo=     1
 LinEq1:  Iter= 13 NonCon=     1 RMS=3.91D-09 Max=1.90D-08 NDo=     1
 LinEq1:  Iter= 14 NonCon=     1 RMS=1.54D-09 Max=3.77D-09 NDo=     1
 LinEq1:  Iter= 15 NonCon=     0 RMS=2.18D-10 Max=7.49D-10 NDo=     1
 Linear equations converged to 1.000D-09 1.000D-08 after    15 iterations.
     Minimum is close to point  2 DX=  5.35D-03 DF= -2.60D-10 DXR=  5.32D-03 DFR=  2.83D-05 which will be used.
 LinEq1:  Iter=  0 NonCon=     1 RMS=2.11D-06 Max=1.39D-05 NDo=     1
 LinEq1:  Iter=  1 NonCon=     1 RMS=5.03D-07 Max=3.06D-06 NDo=     1
 LinEq1:  Iter=  2 NonCon=     1 RMS=1.10D-06 Max=8.35D-06 NDo=     1
 LinEq1:  Iter=  3 NonCon=     1 RMS=2.25D-06 Max=1.07D-05 NDo=     1
 LinEq1:  Iter=  4 NonCon=     1 RMS=4.35D-07 Max=2.15D-06 NDo=     1
 LinEq1:  Iter=  5 NonCon=     1 RMS=2.52D-07 Max=1.57D-06 NDo=     1
 LinEq1:  Iter=  6 NonCon=     1 RMS=2.09D-07 Max=8.29D-07 NDo=     1
 LinEq1:  Iter=  7 NonCon=     1 RMS=1.17D-07 Max=4.36D-07 NDo=     1
 LinEq1:  Iter=  8 NonCon=     1 RMS=4.03D-08 Max=1.38D-07 NDo=     1
 LinEq1:  Iter=  9 NonCon=     1 RMS=1.63D-08 Max=7.20D-08 NDo=     1
 LinEq1:  Iter= 10 NonCon=     1 RMS=8.73D-09 Max=4.26D-08 NDo=     1
 LinEq1:  Iter= 11 NonCon=     1 RMS=4.60D-09 Max=1.52D-08 NDo=     1
 LinEq1:  Iter= 12 NonCon=     1 RMS=7.93D-10 Max=2.66D-09 NDo=     1
 LinEq1:  Iter= 13 NonCon=     1 RMS=1.36D-10 Max=7.85D-10 NDo=     1
 LinEq1:  Iter= 14 NonCon=     0 RMS=1.69D-11 Max=5.14D-11 NDo=     1
 Linear equations converged to 7.344D-11 7.344D-10 after    14 iterations.
 SCF Done:  E(UPM6) =  0.381643405166     a.u. after   19 cycles
            Convg  =    0.3219D-07                    84 Fock formations.
              S**2 =  1.1103                  -V/T =  1.0497
 <Sx>= 0.0000 <Sy>= 0.0000 <Sz>= 0.5000 <S**2>= 1.1103 S= 0.6663
 <L.S>= 0.000000000000E+00
 Annihilation of the first spin contaminant:
 S**2 before annihilation     1.1103,   after     0.7864

 **********************************************************************

            Population analysis using the SCF density.

 **********************************************************************

 Orbital symmetries:
 Alpha Orbitals:
       Occupied  (A') (A') (A') (A') (A") (A') (A') (A') (A')
       Virtual   (A") (A") (A')
 Beta  Orbitals:
       Occupied  (A') (A') (A') (A') (A") (A') (A') (A')
       Virtual   (A") (A") (A') (A')
 The electronic state is 2-A'.
 Alpha  occ. eigenvalues --   -1.26397  -1.18982  -0.90416  -0.68331  -0.63021
 Alpha  occ. eigenvalues --   -0.60122  -0.45771  -0.35307  -0.27565
 Alpha virt. eigenvalues --   -0.26045  -0.01328   0.14058
  Beta  occ. eigenvalues --   -1.28774  -1.07347  -0.87853  -0.66488  -0.64730
  Beta  occ. eigenvalues --   -0.57841  -0.41339  -0.32761
  Beta virt. eigenvalues --   -0.20352   0.00089   0.11847   0.18501
          Condensed to atoms (all electrons):
               1          2          3
     1  N    5.117036   0.000000   0.000000
     2  O    0.000000   5.892191   0.000000
     3  O    0.000000   0.000000   5.990773
          Atomic-Atomic Spin Densities.
               1          2          3
     1  N    0.607382   0.000000   0.000000
     2  O    0.000000   0.766134   0.000000
     3  O    0.000000   0.000000  -0.373516
 Mulliken charges and spin densities:
               1          2
     1  N   -0.117036   0.607382
     2  O    0.107809   0.766134
     3  O    0.009227  -0.373516
 Sum of Mulliken charges =   0.00000   1.00000
 Mulliken charges and spin densities with hydrogens summed into heavy atoms:
               1          2
     1  N   -0.117036   0.607382
     2  O    0.107809   0.766134
     3  O    0.009227  -0.373516
 Charge=              0.0000 electrons
 Dipole moment (field-independent basis, Debye):
    X=              0.2211    Y=             -0.9016    Z=              0.0000  Tot=              0.9283
 N-N= 5.413261050773D+01 E-N=-8.758677100309D+01  KE=-7.684729448337D+00
 Symmetry A'   KE=-6.920171034017D+00
 Symmetry A"   KE=-7.645584143205D-01
 Calling FoFJK, ICntrl=      2127 FMM=F ISym2X=1 I1Cent= 0 IOpClX= 1 NMat=1 NMatS=1 NMatT=0.
 ***** Axes restored to original set *****
 -------------------------------------------------------------------
 Center     Atomic                   Forces (Hartrees/Bohr)
 Number     Number              X              Y              Z
 -------------------------------------------------------------------
      1        7          -0.039286296    0.125567632   -0.008894581
      2        8          -0.058642513   -0.001709994    0.014542683
      3        8           0.097928809   -0.123857638   -0.005648101
 -------------------------------------------------------------------
 Cartesian Forces:  Max     0.125567632 RMS     0.071496528

 GradGradGradGradGradGradGradGradGradGradGradGradGradGradGradGradGradGrad
 Berny optimization.
 FormGI is forming the generalized inverse of G from B-inverse, IUseBI=4.
 Internal  Forces:  Max     0.157854198 RMS     0.097906189
 Search for a local minimum.
 Step number   1 out of a maximum of   20
 All quantities printed in internal units (Hartrees-Bohrs-Radians)
 Mixed Optimization -- RFO/linear search
 Second derivative matrix not updated -- first step.
 The second derivative matrix:
                          R1        R2        A1
           R1           0.57911
           R2           0.00000   1.19166
           A1           0.00000   0.00000   0.25000
 ITU=  0
     Eigenvalues ---    0.25000   0.57911   1.19166
 RFO step:  Lambda=-2.72059902D-02 EMin= 2.50000000D-01
 Linear search not attempted -- first point.
 Iteration  1 RMS(Cart)=  0.08191743 RMS(Int)=  0.00157305
 Iteration  2 RMS(Cart)=  0.00197861 RMS(Int)=  0.00000175
 Iteration  3 RMS(Cart)=  0.00000149 RMS(Int)=  0.00000000
 Iteration  4 RMS(Cart)=  0.00000000 RMS(Int)=  0.00000000
 ClnCor:  largest displacement from symmetrization is 8.88D-16 for atom     3.
 Variable       Old X    -DE/DX   Delta X   Delta X   Delta X     New X
                                 (Linear)    (Quad)   (Total)
    R1        2.52633   0.06016   0.00000   0.09922   0.09922   2.62555
    R2        2.21818   0.15785   0.00000   0.12951   0.12951   2.34769
    A1        2.33874  -0.01483   0.00000  -0.05351  -0.05351   2.28523
         Item               Value     Threshold  Converged?
 Maximum Force            0.157854     0.000450     NO 
 RMS     Force            0.097906     0.000300     NO 
 Maximum Displacement     0.078073     0.001800     NO 
 RMS     Displacement     0.081474     0.001200     NO 
 Predicted change in Energy=-1.400401D-02
 GradGradGradGradGradGradGradGradGradGradGradGradGradGradGradGradGradGrad

                          Input orientation:                          
 ---------------------------------------------------------------------
 Center     Atomic      Atomic             Coordinates (Angstroms)
 Number     Number       Type             X           Y           Z
 ---------------------------------------------------------------------
      1          7           0        3.793644    6.240491    1.834627
      2          8           0        2.443006    6.298058    2.155310
      3          8           0        4.578161    5.278471    1.784935
 ---------------------------------------------------------------------
                    Distance matrix (angstroms):
                    1          2          3
     1  N    0.000000
     2  O    1.389380   0.000000
     3  O    1.242344   2.394916   0.000000
 Stoichiometry    NO2(2)
 Framework group  CS[SG(NO2)]
 Deg. of freedom     3
 Full point group                 CS      NOp   2
 Largest Abelian subgroup         CS      NOp   2
 Largest concise Abelian subgroup C1      NOp   1
                         Standard orientation:                         
 ---------------------------------------------------------------------
 Center     Atomic      Atomic             Coordinates (Angstroms)
 Number     Number       Type             X           Y           Z
 ---------------------------------------------------------------------
      1          7           0        0.000000    0.382919    0.000000
      2          8           0        1.184491   -0.343274    0.000000
      3          8           0       -1.184491    0.008220    0.000000
 ---------------------------------------------------------------------
 Rotational constants (GHZ):    175.2837684     11.0012728     10.3515803
 Standard basis: VSTO-6G (5D, 7F)
 There are     9 symmetry adapted cartesian basis functions of A'  symmetry.
 There are     3 symmetry adapted cartesian basis functions of A"  symmetry.
 There are     9 symmetry adapted basis functions of A'  symmetry.
 There are     3 symmetry adapted basis functions of A"  symmetry.
    12 basis functions,    72 primitive gaussians,    12 cartesian basis functions
     9 alpha electrons        8 beta electrons
       nuclear repulsion energy        53.3323792366 Hartrees.
 Integral buffers will be    262144 words long.
 Regular integral format.
 Two-electron integral symmetry is turned off.
 Do NDO integrals.
 One-electron integrals computed using PRISM.
 NBasis=    12 RedAO= T EigKep=  1.41D+00  NBF=     9     3
 NBsUse=    12 1.00D-06 EigRej= -1.00D+00 NBFU=     9     3
 Initial guess from the checkpoint file:  "C:\Users\User\Desktop\IMRG\Thesis\Pending Journal Work\Individual Gas\NO2\NO2_freq.chk"
 B after Tr=     0.000000    0.000000    0.000000
         Rot=    0.999885    0.000000    0.000000   -0.015138 Ang=  -1.73 deg.
 Initial guess orbital symmetries:
 Alpha Orbitals:
       Occupied  (A') (A') (A') (A') (A") (A') (A') (A') (A')
       Virtual   (A") (A") (A')
 Beta  Orbitals:
       Occupied  (A') (A') (A') (A') (A") (A') (A') (A')
       Virtual   (A") (A") (A') (A')
 Initial guess <Sx>= 0.0000 <Sy>= 0.0000 <Sz>= 0.5000 <S**2>= 1.1103 S= 0.6663
 Keep J ints in memory in canonical form, NReq=859673.
 Gradient too large for Newton-Raphson -- use scaled steepest descent instead.
 Gradient too large for Newton-Raphson -- use scaled steepest descent instead.
     Accept linear search using points  3 and  4.
     Minimum is close to point  4 DX= -2.91D-02 DF= -2.51D-07 DXR=  1.13D-02 DFR=  1.96D-04 which will be used.
 Gradient too large for Newton-Raphson -- use scaled steepest descent instead.
     Accept linear search using points  1 and  2.
 Gradient too large for Newton-Raphson -- use scaled steepest descent instead.
     Accept linear search using points  1 and  2.
 LinEq1:  Iter=  0 NonCon=     1 RMS=1.86D-03 Max=8.33D-03 NDo=     1
 AX will form     1 AO Fock derivatives at one time.
 LinEq1:  Iter=  1 NonCon=     1 RMS=8.50D-04 Max=5.82D-03 NDo=     1
 LinEq1:  Iter=  2 NonCon=     1 RMS=3.72D-05 Max=1.28D-04 NDo=     1
 LinEq1:  Iter=  3 NonCon=     1 RMS=7.02D-06 Max=2.65D-05 NDo=     1
 LinEq1:  Iter=  4 NonCon=     1 RMS=7.37D-07 Max=2.41D-06 NDo=     1
 LinEq1:  Iter=  5 NonCon=     1 RMS=9.34D-08 Max=3.23D-07 NDo=     1
 LinEq1:  Iter=  6 NonCon=     1 RMS=1.25D-08 Max=3.54D-08 NDo=     1
 LinEq1:  Iter=  7 NonCon=     1 RMS=2.59D-08 Max=1.88D-07 NDo=     1
 LinEq1:  Iter=  8 NonCon=     1 RMS=9.33D-09 Max=3.03D-08 NDo=     1
 LinEq1:  Iter=  9 NonCon=     1 RMS=1.29D-09 Max=5.36D-09 NDo=     1
 LinEq1:  Iter= 10 NonCon=     0 RMS=2.25D-10 Max=5.94D-10 NDo=     1
 Linear equations converged to 1.000D-09 1.000D-08 after    10 iterations.
     Accept linear search using points  1 and  2.
     Minimum is close to point  2 DX= -4.55D-02 DF= -6.43D-07 DXR=  4.76D-02 DFR=  2.35D-03 which will be used.
 LinEq1:  Iter=  0 NonCon=     1 RMS=1.13D-04 Max=6.03D-04 NDo=     1
 LinEq1:  Iter=  1 NonCon=     1 RMS=2.02D-05 Max=9.46D-05 NDo=     1
 LinEq1:  Iter=  2 NonCon=     1 RMS=4.21D-06 Max=1.89D-05 NDo=     1
 LinEq1:  Iter=  3 NonCon=     1 RMS=1.03D-06 Max=4.70D-06 NDo=     1
 LinEq1:  Iter=  4 NonCon=     1 RMS=1.29D-07 Max=5.24D-07 NDo=     1
 LinEq1:  Iter=  5 NonCon=     1 RMS=1.63D-07 Max=1.22D-06 NDo=     1
 LinEq1:  Iter=  6 NonCon=     1 RMS=9.82D-08 Max=3.69D-07 NDo=     1
 LinEq1:  Iter=  7 NonCon=     1 RMS=3.20D-08 Max=1.94D-07 NDo=     1
 LinEq1:  Iter=  8 NonCon=     1 RMS=2.42D-08 Max=9.88D-08 NDo=     1
 LinEq1:  Iter=  9 NonCon=     1 RMS=5.41D-09 Max=2.25D-08 NDo=     1
 LinEq1:  Iter= 10 NonCon=     0 RMS=8.89D-10 Max=2.71D-09 NDo=     1
 Linear equations converged to 1.000D-09 1.000D-08 after    10 iterations.
     Minimum is close to point  2 DX=  7.99D-03 DF= -7.40D-11 DXR=  7.93D-03 DFR=  6.29D-05 which will be used.
 LinEq1:  Iter=  0 NonCon=     1 RMS=6.67D-07 Max=3.78D-06 NDo=     1
 LinEq1:  Iter=  1 NonCon=     1 RMS=1.15D-07 Max=5.75D-07 NDo=     1
 LinEq1:  Iter=  2 NonCon=     1 RMS=2.24D-08 Max=1.14D-07 NDo=     1
 LinEq1:  Iter=  3 NonCon=     1 RMS=6.58D-09 Max=3.54D-08 NDo=     1
 LinEq1:  Iter=  4 NonCon=     1 RMS=1.05D-08 Max=7.49D-08 NDo=     1
 LinEq1:  Iter=  5 NonCon=     1 RMS=1.36D-08 Max=7.97D-08 NDo=     1
 LinEq1:  Iter=  6 NonCon=     1 RMS=7.06D-09 Max=2.48D-08 NDo=     1
 LinEq1:  Iter=  7 NonCon=     1 RMS=4.49D-09 Max=2.46D-08 NDo=     1
 LinEq1:  Iter=  8 NonCon=     1 RMS=9.99D-10 Max=3.75D-09 NDo=     1
 LinEq1:  Iter=  9 NonCon=     1 RMS=1.73D-10 Max=5.98D-10 NDo=     1
 LinEq1:  Iter= 10 NonCon=     1 RMS=3.92D-11 Max=1.33D-10 NDo=     1
 LinEq1:  Iter= 11 NonCon=     0 RMS=1.89D-11 Max=5.70D-11 NDo=     1
 Linear equations converged to 2.317D-11 2.317D-10 after    11 iterations.
 SCF Done:  E(UPM6) =  0.361638529502     a.u. after    8 cycles
            Convg  =    0.5192D-07                    48 Fock formations.
              S**2 =  1.4018                  -V/T =  1.0482
 <Sx>= 0.0000 <Sy>= 0.0000 <Sz>= 0.5000 <S**2>= 1.4018 S= 0.7852
 <L.S>= 0.000000000000E+00
 Annihilation of the first spin contaminant:
 S**2 before annihilation     1.4018,   after     0.8406
 Calling FoFJK, ICntrl=      2127 FMM=F ISym2X=1 I1Cent= 0 IOpClX= 1 NMat=1 NMatS=1 NMatT=0.
 ***** Axes restored to original set *****
 -------------------------------------------------------------------
 Center     Atomic                   Forces (Hartrees/Bohr)
 Number     Number              X              Y              Z
 -------------------------------------------------------------------
      1        7          -0.038992392    0.074693518   -0.001483572
      2        8          -0.013557197   -0.003402147    0.003804276
      3        8           0.052549589   -0.071291371   -0.002320705
 -------------------------------------------------------------------
 Cartesian Forces:  Max     0.074693518 RMS     0.041043173

 GradGradGradGradGradGradGradGradGradGradGradGradGradGradGradGradGradGrad
 Berny optimization.
 Using GEDIIS/GDIIS optimizer.
 FormGI is forming the generalized inverse of G from B-inverse, IUseBI=4.
 Internal  Forces:  Max     0.088482005 RMS     0.052071358
 Search for a local minimum.
 Step number   2 out of a maximum of   20
 All quantities printed in internal units (Hartrees-Bohrs-Radians)
 Mixed Optimization -- RFO/linear search
 Update second derivatives using D2CorX and points    1    2
 DE= -2.00D-02 DEPred=-1.40D-02 R= 1.43D+00
 TightC=F SS=  1.41D+00  RLast= 1.72D-01 DXNew= 5.0454D-01 5.1509D-01
 Trust test= 1.43D+00 RLast= 1.72D-01 DXMaxT set to 5.05D-01
 The second derivative matrix:
                          R1        R2        A1
           R1           0.60901
           R2          -0.10340   0.63831
           A1           0.01480   0.05672   0.24454
 ITU=  1  0
 Use linear search instead of GDIIS.
     Eigenvalues ---    0.23412   0.52734   0.73040
 RFO step:  Lambda=-2.72399268D-03 EMin= 2.34119427D-01
 Quartic linear search produced a step of  1.35450.
 Iteration  1 RMS(Cart)=  0.11455192 RMS(Int)=  0.00582301
 Iteration  2 RMS(Cart)=  0.00786172 RMS(Int)=  0.00002065
 Iteration  3 RMS(Cart)=  0.00001637 RMS(Int)=  0.00000000
 Iteration  4 RMS(Cart)=  0.00000000 RMS(Int)=  0.00000000
 ClnCor:  largest displacement from symmetrization is 2.04D-15 for atom     1.
 Variable       Old X    -DE/DX   Delta X   Delta X   Delta X     New X
                                 (Linear)    (Quad)   (Total)
    R1        2.62555   0.01392   0.13439  -0.04468   0.08971   2.71526
    R2        2.34769   0.08848   0.17542   0.02591   0.20133   2.54902
    A1        2.28523  -0.01056  -0.07248  -0.06140  -0.13388   2.15135
         Item               Value     Threshold  Converged?
 Maximum Force            0.088482     0.000450     NO 
 RMS     Force            0.052071     0.000300     NO 
 Maximum Displacement     0.145512     0.001800     NO 
 RMS     Displacement     0.115461     0.001200     NO 
 Predicted change in Energy=-6.471802D-03
 GradGradGradGradGradGradGradGradGradGradGradGradGradGradGradGradGradGrad

                          Input orientation:                          
 ---------------------------------------------------------------------
 Center     Atomic      Atomic             Coordinates (Angstroms)
 Number     Number       Type             X           Y           Z
 ---------------------------------------------------------------------
      1          7           0        3.807528    6.317492    1.819918
      2          8           0        2.413430    6.277595    2.165527
      3          8           0        4.593854    5.221932    1.789426
 ---------------------------------------------------------------------
                    Distance matrix (angstroms):
                    1          2          3
     1  N    0.000000
     2  O    1.436853   0.000000
     3  O    1.348885   2.451556   0.000000
 Stoichiometry    NO2(2)
 Framework group  CS[SG(NO2)]
 Deg. of freedom     3
 Full point group                 CS      NOp   2
 Largest Abelian subgroup         CS      NOp   2
 Largest concise Abelian subgroup C1      NOp   1
                         Standard orientation:                         
 ---------------------------------------------------------------------
 Center     Atomic      Atomic             Coordinates (Angstroms)
 Number     Number       Type             X           Y           Z
 ---------------------------------------------------------------------
      1          7           0        0.000000    0.461175    0.000000
      2          8           0        1.222289   -0.294177    0.000000
      3          8           0       -1.222289   -0.109351    0.000000
 ---------------------------------------------------------------------
 Rotational constants (GHZ):    118.8071850     10.5084963      9.6545512
 Standard basis: VSTO-6G (5D, 7F)
 There are     9 symmetry adapted cartesian basis functions of A'  symmetry.
 There are     3 symmetry adapted cartesian basis functions of A"  symmetry.
 There are     9 symmetry adapted basis functions of A'  symmetry.
 There are     3 symmetry adapted basis functions of A"  symmetry.
    12 basis functions,    72 primitive gaussians,    12 cartesian basis functions
     9 alpha electrons        8 beta electrons
       nuclear repulsion energy        52.4840107962 Hartrees.
 Integral buffers will be    262144 words long.
 Regular integral format.
 Two-electron integral symmetry is turned off.
 Do NDO integrals.
 One-electron integrals computed using PRISM.
 NBasis=    12 RedAO= T EigKep=  1.41D+00  NBF=     9     3
 NBsUse=    12 1.00D-06 EigRej= -1.00D+00 NBFU=     9     3
 Initial guess from the checkpoint file:  "C:\Users\User\Desktop\IMRG\Thesis\Pending Journal Work\Individual Gas\NO2\NO2_freq.chk"
 B after Tr=     0.000000    0.000000    0.000000
         Rot=    0.999442    0.000000    0.000000   -0.033387 Ang=  -3.83 deg.
 Initial guess orbital symmetries:
 Alpha Orbitals:
       Occupied  (A') (A') (A') (A') (A") (A') (A') (A') (A')
       Virtual   (A") (A") (A')
 Beta  Orbitals:
       Occupied  (A') (A') (A') (A') (A") (A') (A') (A')
       Virtual   (A") (A") (A') (A')
 Initial guess <Sx>= 0.0000 <Sy>= 0.0000 <Sz>= 0.5000 <S**2>= 1.4018 S= 0.7852
 Keep J ints in memory in canonical form, NReq=859673.
 Gradient too large for Newton-Raphson -- use scaled steepest descent instead.
     Accept linear search using points  4 and  5.
 Gradient too large for Newton-Raphson -- use scaled steepest descent instead.
     Accept linear search using points  3 and  4.
 Gradient too large for Newton-Raphson -- use scaled steepest descent instead.
     Accept linear search using points  1 and  2.
     Minimum is close to point  2 DX= -8.66D-02 DF= -2.71D-06 DXR=  5.37D-02 DFR=  5.98D-03 which will be used.
 LinEq1:  Iter=  0 NonCon=     1 RMS=1.89D-03 Max=9.84D-03 NDo=     1
 AX will form     1 AO Fock derivatives at one time.
 LinEq1:  Iter=  1 NonCon=     1 RMS=6.19D-04 Max=2.01D-03 NDo=     1
 LinEq1:  Iter=  2 NonCon=     1 RMS=4.85D-05 Max=2.13D-04 NDo=     1
 LinEq1:  Iter=  3 NonCon=     1 RMS=1.19D-05 Max=4.50D-05 NDo=     1
 LinEq1:  Iter=  4 NonCon=     1 RMS=2.05D-06 Max=8.42D-06 NDo=     1
 LinEq1:  Iter=  5 NonCon=     1 RMS=2.79D-07 Max=8.43D-07 NDo=     1
 LinEq1:  Iter=  6 NonCon=     1 RMS=2.75D-08 Max=7.62D-08 NDo=     1
 LinEq1:  Iter=  7 NonCon=     1 RMS=3.87D-09 Max=1.07D-08 NDo=     1
 LinEq1:  Iter=  8 NonCon=     0 RMS=5.56D-10 Max=1.84D-09 NDo=     1
 Linear equations converged to 1.000D-09 1.000D-08 after     8 iterations.
     Accept linear search using points  1 and  2.
     Minimum is close to point  2 DX= -2.30D-04 DF= -1.32D-11 DXR=  2.30D-04 DFR=  5.29D-08 which will be used.
 LinEq1:  Iter=  0 NonCon=     1 RMS=5.02D-05 Max=2.13D-04 NDo=     1
 LinEq1:  Iter=  1 NonCon=     1 RMS=1.06D-05 Max=4.83D-05 NDo=     1
 LinEq1:  Iter=  2 NonCon=     1 RMS=1.93D-06 Max=8.76D-06 NDo=     1
 LinEq1:  Iter=  3 NonCon=     1 RMS=1.80D-06 Max=1.29D-05 NDo=     1
 LinEq1:  Iter=  4 NonCon=     1 RMS=9.71D-07 Max=4.10D-06 NDo=     1
 LinEq1:  Iter=  5 NonCon=     1 RMS=2.02D-07 Max=6.58D-07 NDo=     1
 LinEq1:  Iter=  6 NonCon=     1 RMS=3.55D-08 Max=1.18D-07 NDo=     1
 LinEq1:  Iter=  7 NonCon=     1 RMS=5.85D-09 Max=2.18D-08 NDo=     1
 LinEq1:  Iter=  8 NonCon=     0 RMS=9.12D-10 Max=3.26D-09 NDo=     1
 Linear equations converged to 1.000D-09 1.000D-08 after     8 iterations.
     Minimum is close to point  2 DX=  1.71D-04 DF= -4.61D-15 DXR=  1.71D-04 DFR=  2.94D-08 which will be used.
 LinEq1:  Iter=  0 NonCon=     1 RMS=8.90D-08 Max=3.04D-07 NDo=     1
 LinEq1:  Iter=  1 NonCon=     1 RMS=3.20D-08 Max=1.90D-07 NDo=     1
 LinEq1:  Iter=  2 NonCon=     1 RMS=1.56D-08 Max=5.61D-08 NDo=     1
 LinEq1:  Iter=  3 NonCon=     1 RMS=7.68D-09 Max=5.15D-08 NDo=     1
 LinEq1:  Iter=  4 NonCon=     1 RMS=9.58D-09 Max=3.39D-08 NDo=     1
 LinEq1:  Iter=  5 NonCon=     1 RMS=2.16D-09 Max=7.32D-09 NDo=     1
 LinEq1:  Iter=  6 NonCon=     1 RMS=9.33D-10 Max=4.87D-09 NDo=     1
 LinEq1:  Iter=  7 NonCon=     1 RMS=3.03D-10 Max=1.31D-09 NDo=     1
 LinEq1:  Iter=  8 NonCon=     1 RMS=5.44D-11 Max=2.13D-10 NDo=     1
 LinEq1:  Iter=  9 NonCon=     1 RMS=1.10D-11 Max=3.31D-11 NDo=     1
 LinEq1:  Iter= 10 NonCon=     0 RMS=3.26D-12 Max=9.84D-12 NDo=     1
 Linear equations converged to 6.227D-12 6.227D-11 after    10 iterations.
 SCF Done:  E(UPM6) =  0.352565620096     a.u. after    7 cycles
            Convg  =    0.3625D-08                    41 Fock formations.
              S**2 =  1.6234                  -V/T =  1.0484
 <Sx>= 0.0000 <Sy>= 0.0000 <Sz>= 0.5000 <S**2>= 1.6234 S= 0.8687
 <L.S>= 0.000000000000E+00
 Annihilation of the first spin contaminant:
 S**2 before annihilation     1.6234,   after     0.9013
 Calling FoFJK, ICntrl=      2127 FMM=F ISym2X=1 I1Cent= 0 IOpClX= 1 NMat=1 NMatS=1 NMatT=0.
 ***** Axes restored to original set *****
 -------------------------------------------------------------------
 Center     Atomic                   Forces (Hartrees/Bohr)
 Number     Number              X              Y              Z
 -------------------------------------------------------------------
      1        7          -0.012086095   -0.001826686    0.003214051
      2        8           0.010308330    0.001740624   -0.002768152
      3        8           0.001777765    0.000086062   -0.000445899
 -------------------------------------------------------------------
 Cartesian Forces:  Max     0.012086095 RMS     0.005578345

 GradGradGradGradGradGradGradGradGradGradGradGradGradGradGradGradGradGrad
 Berny optimization.
 Using GEDIIS/GDIIS optimizer.
 FormGI is forming the generalized inverse of G from B-inverse, IUseBI=4.
 Internal  Forces:  Max     0.010715756 RMS     0.006619671
 Search for a local minimum.
 Step number   3 out of a maximum of   20
 All quantities printed in internal units (Hartrees-Bohrs-Radians)
 Mixed Optimization -- RFO/linear search
 Update second derivatives using D2CorX and points    1    2    3
 DE= -9.07D-03 DEPred=-6.47D-03 R= 1.40D+00
 TightC=F SS=  1.41D+00  RLast= 2.58D-01 DXNew= 8.4853D-01 7.7368D-01
 Trust test= 1.40D+00 RLast= 2.58D-01 DXMaxT set to 7.74D-01
 The second derivative matrix:
                          R1        R2        A1
           R1           0.60180
           R2          -0.13126   0.54497
           A1           0.02188   0.07798   0.24039
 ITU=  1  1  0
 Use linear search instead of GDIIS.
     Eigenvalues ---    0.21374   0.46346   0.70996
 RFO step:  Lambda=-2.19718691D-04 EMin= 2.13738347D-01
 Quartic linear search produced a step of -0.06838.
 Iteration  1 RMS(Cart)=  0.01575250 RMS(Int)=  0.00015313
 Iteration  2 RMS(Cart)=  0.00017834 RMS(Int)=  0.00000001
 Iteration  3 RMS(Cart)=  0.00000000 RMS(Int)=  0.00000000
 ClnCor:  largest displacement from symmetrization is 2.81D-15 for atom     2.
 Variable       Old X    -DE/DX   Delta X   Delta X   Delta X     New X
                                 (Linear)    (Quad)   (Total)
    R1        2.71526  -0.01072  -0.00613  -0.01454  -0.02068   2.69458
    R2        2.54902   0.00098  -0.01377   0.00630  -0.00747   2.54155
    A1        2.15135   0.00396   0.00916   0.01324   0.02239   2.17374
         Item               Value     Threshold  Converged?
 Maximum Force            0.010716     0.000450     NO 
 RMS     Force            0.006620     0.000300     NO 
 Maximum Displacement     0.017058     0.001800     NO 
 RMS     Displacement     0.015712     0.001200     NO 
 Predicted change in Energy=-1.422704D-04
 GradGradGradGradGradGradGradGradGradGradGradGradGradGradGradGradGradGrad

                          Input orientation:                          
 ---------------------------------------------------------------------
 Center     Atomic      Atomic             Coordinates (Angstroms)
 Number     Number       Type             X           Y           Z
 ---------------------------------------------------------------------
      1          7           0        3.800684    6.308466    1.822913
      2          8           0        2.416414    6.282843    2.164028
      3          8           0        4.597713    5.225710    1.787930
 ---------------------------------------------------------------------
                    Distance matrix (angstroms):
                    1          2          3
     1  N    0.000000
     2  O    1.425910   0.000000
     3  O    1.344931   2.452966   0.000000
 Stoichiometry    NO2(2)
 Framework group  CS[SG(NO2)]
 Deg. of freedom     3
 Full point group                 CS      NOp   2
 Largest Abelian subgroup         CS      NOp   2
 Largest concise Abelian subgroup C1      NOp   1
                         Standard orientation:                         
 ---------------------------------------------------------------------
 Center     Atomic      Atomic             Coordinates (Angstroms)
 Number     Number       Type             X           Y           Z
 ---------------------------------------------------------------------
      1          7           0        0.000000    0.449096    0.000000
      2          8           0        1.223401   -0.283371    0.000000
      3          8           0       -1.223401   -0.109588    0.000000
 ---------------------------------------------------------------------
 Rotational constants (GHZ):    125.1885128     10.4973913      9.6852567
 Standard basis: VSTO-6G (5D, 7F)
 There are     9 symmetry adapted cartesian basis functions of A'  symmetry.
 There are     3 symmetry adapted cartesian basis functions of A"  symmetry.
 There are     9 symmetry adapted basis functions of A'  symmetry.
 There are     3 symmetry adapted basis functions of A"  symmetry.
    12 basis functions,    72 primitive gaussians,    12 cartesian basis functions
     9 alpha electrons        8 beta electrons
       nuclear repulsion energy        52.5449689770 Hartrees.
 Integral buffers will be    262144 words long.
 Regular integral format.
 Two-electron integral symmetry is turned off.
 Do NDO integrals.
 One-electron integrals computed using PRISM.
 NBasis=    12 RedAO= T EigKep=  1.41D+00  NBF=     9     3
 NBsUse=    12 1.00D-06 EigRej= -1.00D+00 NBFU=     9     3
 Initial guess from the checkpoint file:  "C:\Users\User\Desktop\IMRG\Thesis\Pending Journal Work\Individual Gas\NO2\NO2_freq.chk"
 B after Tr=     0.000000    0.000000    0.000000
         Rot=    0.999998    0.000000    0.000000   -0.002097 Ang=  -0.24 deg.
 Initial guess orbital symmetries:
 Alpha Orbitals:
       Occupied  (A') (A') (A') (A') (A") (A') (A') (A') (A')
       Virtual   (A") (A") (A')
 Beta  Orbitals:
       Occupied  (A') (A') (A') (A') (A") (A') (A') (A')
       Virtual   (A") (A") (A') (A')
 Initial guess <Sx>= 0.0000 <Sy>= 0.0000 <Sz>= 0.5000 <S**2>= 1.6234 S= 0.8687
 Keep J ints in memory in canonical form, NReq=859673.
 LinEq1:  Iter=  0 NonCon=     1 RMS=1.59D-03 Max=5.49D-03 NDo=     1
 AX will form     1 AO Fock derivatives at one time.
 LinEq1:  Iter=  1 NonCon=     1 RMS=2.54D-04 Max=9.83D-04 NDo=     1
 LinEq1:  Iter=  2 NonCon=     1 RMS=5.91D-05 Max=2.87D-04 NDo=     1
 LinEq1:  Iter=  3 NonCon=     1 RMS=1.01D-05 Max=5.16D-05 NDo=     1
 LinEq1:  Iter=  4 NonCon=     1 RMS=1.39D-06 Max=4.33D-06 NDo=     1
 LinEq1:  Iter=  5 NonCon=     1 RMS=2.37D-07 Max=9.89D-07 NDo=     1
 LinEq1:  Iter=  6 NonCon=     1 RMS=5.43D-08 Max=1.92D-07 NDo=     1
 LinEq1:  Iter=  7 NonCon=     1 RMS=1.01D-08 Max=3.90D-08 NDo=     1
 LinEq1:  Iter=  8 NonCon=     1 RMS=1.05D-09 Max=3.23D-09 NDo=     1
 LinEq1:  Iter=  9 NonCon=     0 RMS=1.30D-10 Max=4.99D-10 NDo=     1
 Linear equations converged to 1.000D-09 1.000D-08 after     9 iterations.
     Accept linear search using points  1 and  2.
     Minimum is close to point  2 DX= -7.19D-04 DF= -9.01D-11 DXR=  7.19D-04 DFR=  5.17D-07 which will be used.
 LinEq1:  Iter=  0 NonCon=     1 RMS=1.17D-05 Max=4.56D-05 NDo=     1
 LinEq1:  Iter=  1 NonCon=     1 RMS=2.98D-06 Max=1.35D-05 NDo=     1
 LinEq1:  Iter=  2 NonCon=     1 RMS=6.18D-07 Max=2.03D-06 NDo=     1
 LinEq1:  Iter=  3 NonCon=     1 RMS=1.60D-07 Max=8.24D-07 NDo=     1
 LinEq1:  Iter=  4 NonCon=     1 RMS=2.52D-07 Max=1.42D-06 NDo=     1
 LinEq1:  Iter=  5 NonCon=     1 RMS=6.71D-08 Max=2.18D-07 NDo=     1
 LinEq1:  Iter=  6 NonCon=     1 RMS=1.15D-08 Max=3.19D-08 NDo=     1
 LinEq1:  Iter=  7 NonCon=     1 RMS=1.73D-09 Max=5.78D-09 NDo=     1
 LinEq1:  Iter=  8 NonCon=     0 RMS=2.40D-10 Max=8.50D-10 NDo=     1
 Linear equations converged to 4.979D-10 4.979D-09 after     8 iterations.
 LinEq1:  Iter=  0 NonCon=     1 RMS=1.79D-08 Max=6.26D-08 NDo=     1
 LinEq1:  Iter=  1 NonCon=     1 RMS=3.47D-09 Max=1.29D-08 NDo=     1
 LinEq1:  Iter=  2 NonCon=     1 RMS=1.51D-09 Max=8.88D-09 NDo=     1
 LinEq1:  Iter=  3 NonCon=     1 RMS=6.40D-10 Max=2.61D-09 NDo=     1
 LinEq1:  Iter=  4 NonCon=     1 RMS=8.86D-10 Max=5.68D-09 NDo=     1
 LinEq1:  Iter=  5 NonCon=     1 RMS=3.80D-10 Max=2.06D-09 NDo=     1
 LinEq1:  Iter=  6 NonCon=     1 RMS=9.14D-11 Max=2.69D-10 NDo=     1
 LinEq1:  Iter=  7 NonCon=     1 RMS=3.59D-11 Max=1.42D-10 NDo=     1
 LinEq1:  Iter=  8 NonCon=     1 RMS=1.65D-11 Max=5.78D-11 NDo=     1
 LinEq1:  Iter=  9 NonCon=     1 RMS=3.47D-12 Max=1.20D-11 NDo=     1
 LinEq1:  Iter= 10 NonCon=     1 RMS=1.39D-12 Max=4.39D-12 NDo=     1
 LinEq1:  Iter= 11 NonCon=     0 RMS=3.81D-13 Max=1.77D-12 NDo=     1
 Linear equations converged to 1.249D-12 1.249D-11 after    11 iterations.
 SCF Done:  E(UPM6) =  0.352330189134     a.u. after    4 cycles
            Convg  =    0.6077D-07                    34 Fock formations.
              S**2 =  1.6138                  -V/T =  1.0482
 <Sx>= 0.0000 <Sy>= 0.0000 <Sz>= 0.5000 <S**2>= 1.6138 S= 0.8652
 <L.S>= 0.000000000000E+00
 Annihilation of the first spin contaminant:
 S**2 before annihilation     1.6138,   after     0.8972
 Calling FoFJK, ICntrl=      2127 FMM=F ISym2X=1 I1Cent= 0 IOpClX= 1 NMat=1 NMatS=1 NMatT=0.
 ***** Axes restored to original set *****
 -------------------------------------------------------------------
 Center     Atomic                   Forces (Hartrees/Bohr)
 Number     Number              X              Y              Z
 -------------------------------------------------------------------
      1        7          -0.010224425    0.002076559    0.002186268
      2        8           0.006954249    0.000946186   -0.001833916
      3        8           0.003270176   -0.003022745   -0.000352352
 -------------------------------------------------------------------
 Cartesian Forces:  Max     0.010224425 RMS     0.004548578

 GradGradGradGradGradGradGradGradGradGradGradGradGradGradGradGradGradGrad
 Berny optimization.
 Using GEDIIS/GDIIS optimizer.
 FormGI is forming the generalized inverse of G from B-inverse, IUseBI=4.
 Internal  Forces:  Max     0.007206891 RMS     0.005035620
 Search for a local minimum.
 Step number   4 out of a maximum of   20
 All quantities printed in internal units (Hartrees-Bohrs-Radians)
 Mixed Optimization -- RFO/linear search
 Update second derivatives using D2CorX and points    1    2    3    4
 DE= -2.35D-04 DEPred=-1.42D-04 R= 1.65D+00
 TightC=F SS=  1.41D+00  RLast= 3.14D-02 DXNew= 1.3012D+00 9.4147D-02
 Trust test= 1.65D+00 RLast= 3.14D-02 DXMaxT set to 7.74D-01
 The second derivative matrix:
                          R1        R2        A1
           R1           0.31374
           R2          -0.02135   0.59540
           A1           0.12593   0.02696   0.20285
 ITU=  1  1  1  0
 Use linear search instead of GDIIS.
     Eigenvalues ---    0.11824   0.39583   0.59790
 RFO step:  Lambda=-1.42075225D-04 EMin= 1.18242670D-01
 Quartic linear search produced a step of  1.11717.
 Iteration  1 RMS(Cart)=  0.02208997 RMS(Int)=  0.00026663
 Iteration  2 RMS(Cart)=  0.00027655 RMS(Int)=  0.00000001
 Iteration  3 RMS(Cart)=  0.00000001 RMS(Int)=  0.00000000
 ClnCor:  largest displacement from symmetrization is 1.78D-15 for atom     3.
 Variable       Old X    -DE/DX   Delta X   Delta X   Delta X     New X
                                 (Linear)    (Quad)   (Total)
    R1        2.69458  -0.00721  -0.02310  -0.01058  -0.03368   2.66090
    R2        2.54155   0.00438  -0.00835   0.01332   0.00497   2.54652
    A1        2.17374   0.00222   0.02501   0.00471   0.02973   2.20347
         Item               Value     Threshold  Converged?
 Maximum Force            0.007207     0.000450     NO 
 RMS     Force            0.005036     0.000300     NO 
 Maximum Displacement     0.022929     0.001800     NO 
 RMS     Displacement     0.022016     0.001200     NO 
 Predicted change in Energy=-1.741908D-04
 GradGradGradGradGradGradGradGradGradGradGradGradGradGradGradGradGradGrad

                          Input orientation:                          
 ---------------------------------------------------------------------
 Center     Atomic      Atomic             Coordinates (Angstroms)
 Number     Number       Type             X           Y           Z
 ---------------------------------------------------------------------
      1          7           0        3.788551    6.298849    1.827284
      2          8           0        2.420819    6.290246    2.161866
      3          8           0        4.605442    5.227925    1.785721
 ---------------------------------------------------------------------
                    Distance matrix (angstroms):
                    1          2          3
     1  N    0.000000
     2  O    1.408087   0.000000
     3  O    1.347560   2.458168   0.000000
 Stoichiometry    NO2(2)
 Framework group  CS[SG(NO2)]
 Deg. of freedom     3
 Full point group                 CS      NOp   2
 Largest Abelian subgroup         CS      NOp   2
 Largest concise Abelian subgroup C1      NOp   1
                         Standard orientation:                         
 ---------------------------------------------------------------------
 Center     Atomic      Atomic             Coordinates (Angstroms)
 Number     Number       Type             X           Y           Z
 ---------------------------------------------------------------------
      1          7           0        0.000000    0.433691    0.000000
      2          8           0        1.227263   -0.256625    0.000000
      3          8           0       -1.227263   -0.122855    0.000000
 ---------------------------------------------------------------------
 Rotational constants (GHZ):    133.9347157     10.4552117      9.6981544
 Standard basis: VSTO-6G (5D, 7F)
 There are     9 symmetry adapted cartesian basis functions of A'  symmetry.
 There are     3 symmetry adapted cartesian basis functions of A"  symmetry.
 There are     9 symmetry adapted basis functions of A'  symmetry.
 There are     3 symmetry adapted basis functions of A"  symmetry.
    12 basis functions,    72 primitive gaussians,    12 cartesian basis functions
     9 alpha electrons        8 beta electrons
       nuclear repulsion energy        52.5973285265 Hartrees.
 Integral buffers will be    262144 words long.
 Regular integral format.
 Two-electron integral symmetry is turned off.
 Do NDO integrals.
 One-electron integrals computed using PRISM.
 NBasis=    12 RedAO= T EigKep=  1.41D+00  NBF=     9     3
 NBsUse=    12 1.00D-06 EigRej= -1.00D+00 NBFU=     9     3
 Initial guess from the checkpoint file:  "C:\Users\User\Desktop\IMRG\Thesis\Pending Journal Work\Individual Gas\NO2\NO2_freq.chk"
 B after Tr=     0.000000    0.000000    0.000000
         Rot=    0.999971    0.000000    0.000000   -0.007612 Ang=  -0.87 deg.
 Initial guess orbital symmetries:
 Alpha Orbitals:
       Occupied  (A') (A') (A') (A') (A") (A') (A') (A') (A')
       Virtual   (A") (A") (A')
 Beta  Orbitals:
       Occupied  (A') (A') (A') (A') (A") (A') (A') (A')
       Virtual   (A") (A") (A') (A')
 Initial guess <Sx>= 0.0000 <Sy>= 0.0000 <Sz>= 0.5000 <S**2>= 1.6138 S= 0.8652
 Keep J ints in memory in canonical form, NReq=859673.
 Gradient too large for Newton-Raphson -- use scaled steepest descent instead.
 LinEq1:  Iter=  0 NonCon=     1 RMS=7.18D-04 Max=3.07D-03 NDo=     1
 AX will form     1 AO Fock derivatives at one time.
 LinEq1:  Iter=  1 NonCon=     1 RMS=2.32D-04 Max=1.33D-03 NDo=     1
 LinEq1:  Iter=  2 NonCon=     1 RMS=4.12D-05 Max=2.14D-04 NDo=     1
 LinEq1:  Iter=  3 NonCon=     1 RMS=7.70D-06 Max=2.06D-05 NDo=     1
 LinEq1:  Iter=  4 NonCon=     1 RMS=1.29D-06 Max=4.88D-06 NDo=     1
 LinEq1:  Iter=  5 NonCon=     1 RMS=1.38D-07 Max=5.35D-07 NDo=     1
 LinEq1:  Iter=  6 NonCon=     1 RMS=2.79D-08 Max=8.99D-08 NDo=     1
 LinEq1:  Iter=  7 NonCon=     1 RMS=3.56D-09 Max=1.57D-08 NDo=     1
 LinEq1:  Iter=  8 NonCon=     0 RMS=3.71D-10 Max=1.10D-09 NDo=     1
 Linear equations converged to 1.000D-09 1.000D-08 after     8 iterations.
     Minimum is close to point  2 DX=  1.16D-02 DF= -5.36D-09 DXR=  1.15D-02 DFR=  1.32D-04 which will be used.
 LinEq1:  Iter=  0 NonCon=     1 RMS=7.19D-06 Max=3.85D-05 NDo=     1
 LinEq1:  Iter=  1 NonCon=     1 RMS=1.01D-06 Max=4.00D-06 NDo=     1
 LinEq1:  Iter=  2 NonCon=     1 RMS=1.73D-07 Max=6.22D-07 NDo=     1
 LinEq1:  Iter=  3 NonCon=     1 RMS=2.95D-08 Max=8.61D-08 NDo=     1
 LinEq1:  Iter=  4 NonCon=     1 RMS=9.89D-09 Max=5.64D-08 NDo=     1
 LinEq1:  Iter=  5 NonCon=     1 RMS=1.53D-08 Max=7.75D-08 NDo=     1
 LinEq1:  Iter=  6 NonCon=     1 RMS=4.21D-09 Max=1.42D-08 NDo=     1
 LinEq1:  Iter=  7 NonCon=     1 RMS=6.05D-10 Max=2.10D-09 NDo=     1
 LinEq1:  Iter=  8 NonCon=     0 RMS=8.11D-11 Max=2.37D-10 NDo=     1
 Linear equations converged to 2.598D-10 2.598D-09 after     8 iterations.
 SCF Done:  E(UPM6) =  0.352135742523     a.u. after    4 cycles
            Convg  =    0.5121D-07                    25 Fock formations.
              S**2 =  1.6077                  -V/T =  1.0481
 <Sx>= 0.0000 <Sy>= 0.0000 <Sz>= 0.5000 <S**2>= 1.6077 S= 0.8630
 <L.S>= 0.000000000000E+00
 Annihilation of the first spin contaminant:
 S**2 before annihilation     1.6077,   after     0.8933
 Calling FoFJK, ICntrl=      2127 FMM=F ISym2X=1 I1Cent= 0 IOpClX= 1 NMat=1 NMatS=1 NMatT=0.
 ***** Axes restored to original set *****
 -------------------------------------------------------------------
 Center     Atomic                   Forces (Hartrees/Bohr)
 Number     Number              X              Y              Z
 -------------------------------------------------------------------
      1        7          -0.003186985    0.002908979    0.000348812
      2        8           0.000917104    0.000028576   -0.000227701
      3        8           0.002269881   -0.002937555   -0.000121110
 -------------------------------------------------------------------
 Cartesian Forces:  Max     0.003186985 RMS     0.001927310

 GradGradGradGradGradGradGradGradGradGradGradGradGradGradGradGradGradGrad
 Berny optimization.
 Using GEDIIS/GDIIS optimizer.
 FormGI is forming the generalized inverse of G from B-inverse, IUseBI=4.
 Internal  Forces:  Max     0.003714255 RMS     0.002213042
 Search for a local minimum.
 Step number   5 out of a maximum of   20
 All quantities printed in internal units (Hartrees-Bohrs-Radians)
 Mixed Optimization -- RFO/linear search
 Update second derivatives using D2CorX and points    2    3    4    5
 DE= -1.94D-04 DEPred=-1.74D-04 R= 1.12D+00
 TightC=F SS=  1.41D+00  RLast= 4.52D-02 DXNew= 1.3012D+00 1.3559D-01
 Trust test= 1.12D+00 RLast= 4.52D-02 DXMaxT set to 7.74D-01
 The second derivative matrix:
                          R1        R2        A1
           R1           0.30049
           R2           0.05381   0.40970
           A1           0.12080   0.01490   0.20709
 ITU=  1  1  1  1
 Use linear search instead of GDIIS.
     Eigenvalues ---    0.12308   0.34263   0.45156
 RFO step:  Lambda=-3.26588210D-05 EMin= 1.23083058D-01
 Quartic linear search produced a step of  0.17333.
 Iteration  1 RMS(Cart)=  0.00486983 RMS(Int)=  0.00000566
 Iteration  2 RMS(Cart)=  0.00000589 RMS(Int)=  0.00000000
 Iteration  3 RMS(Cart)=  0.00000000 RMS(Int)=  0.00000000
 ClnCor:  largest displacement from symmetrization is 1.78D-15 for atom     3.
 Variable       Old X    -DE/DX   Delta X   Delta X   Delta X     New X
                                 (Linear)    (Quad)   (Total)
    R1        2.66090  -0.00095  -0.00584   0.00009  -0.00575   2.65515
    R2        2.54652   0.00371   0.00086   0.00884   0.00970   2.55622
    A1        2.20347   0.00006   0.00515  -0.00247   0.00268   2.20615
         Item               Value     Threshold  Converged?
 Maximum Force            0.003714     0.000450     NO 
 RMS     Force            0.002213     0.000300     NO 
 Maximum Displacement     0.005303     0.001800     NO 
 RMS     Displacement     0.004872     0.001200     NO 
 Predicted change in Energy=-2.111678D-05
 GradGradGradGradGradGradGradGradGradGradGradGradGradGradGradGradGradGrad

                          Input orientation:                          
 ---------------------------------------------------------------------
 Center     Atomic      Atomic             Coordinates (Angstroms)
 Number     Number       Type             X           Y           Z
 ---------------------------------------------------------------------
      1          7           0        3.785744    6.299414    1.827885
      2          8           0        2.420947    6.291348    2.161673
      3          8           0        4.608120    5.226258    1.785314
 ---------------------------------------------------------------------
                    Distance matrix (angstroms):
                    1          2          3
     1  N    0.000000
     2  O    1.405045   0.000000
     3  O    1.352693   2.461663   0.000000
 Stoichiometry    NO2(2)
 Framework group  CS[SG(NO2)]
 Deg. of freedom     3
 Full point group                 CS      NOp   2
 Largest Abelian subgroup         CS      NOp   2
 Largest concise Abelian subgroup C1      NOp   1
                         Standard orientation:                         
 ---------------------------------------------------------------------
 Center     Atomic      Atomic             Coordinates (Angstroms)
 Number     Number       Type             X           Y           Z
 ---------------------------------------------------------------------
      1          7           0        0.000000    0.432770    0.000000
      2          8           0        1.229464   -0.247355    0.000000
      3          8           0       -1.229464   -0.131319    0.000000
 ---------------------------------------------------------------------
 Rotational constants (GHZ):    134.3969648     10.4262123      9.6756011
 Standard basis: VSTO-6G (5D, 7F)
 There are     9 symmetry adapted cartesian basis functions of A'  symmetry.
 There are     3 symmetry adapted cartesian basis functions of A"  symmetry.
 There are     9 symmetry adapted basis functions of A'  symmetry.
 There are     3 symmetry adapted basis functions of A"  symmetry.
    12 basis functions,    72 primitive gaussians,    12 cartesian basis functions
     9 alpha electrons        8 beta electrons
       nuclear repulsion energy        52.5792555237 Hartrees.
 Integral buffers will be    262144 words long.
 Regular integral format.
 Two-electron integral symmetry is turned off.
 Do NDO integrals.
 One-electron integrals computed using PRISM.
 NBasis=    12 RedAO= T EigKep=  1.41D+00  NBF=     9     3
 NBsUse=    12 1.00D-06 EigRej= -1.00D+00 NBFU=     9     3
 Initial guess from the checkpoint file:  "C:\Users\User\Desktop\IMRG\Thesis\Pending Journal Work\Individual Gas\NO2\NO2_freq.chk"
 B after Tr=     0.000000    0.000000    0.000000
         Rot=    0.999994    0.000000    0.000000   -0.003382 Ang=  -0.39 deg.
 Initial guess orbital symmetries:
 Alpha Orbitals:
       Occupied  (A') (A') (A') (A') (A") (A') (A') (A') (A')
       Virtual   (A") (A") (A')
 Beta  Orbitals:
       Occupied  (A') (A') (A') (A') (A") (A') (A') (A')
       Virtual   (A") (A") (A') (A')
 Initial guess <Sx>= 0.0000 <Sy>= 0.0000 <Sz>= 0.5000 <S**2>= 1.6077 S= 0.8630
 Keep J ints in memory in canonical form, NReq=859673.
 LinEq1:  Iter=  0 NonCon=     1 RMS=6.54D-04 Max=1.97D-03 NDo=     1
 AX will form     1 AO Fock derivatives at one time.
 LinEq1:  Iter=  1 NonCon=     1 RMS=1.56D-04 Max=9.07D-04 NDo=     1
 LinEq1:  Iter=  2 NonCon=     1 RMS=3.11D-05 Max=1.21D-04 NDo=     1
 LinEq1:  Iter=  3 NonCon=     1 RMS=5.12D-06 Max=1.86D-05 NDo=     1
 LinEq1:  Iter=  4 NonCon=     1 RMS=8.84D-07 Max=2.87D-06 NDo=     1
 LinEq1:  Iter=  5 NonCon=     1 RMS=1.55D-07 Max=5.26D-07 NDo=     1
 LinEq1:  Iter=  6 NonCon=     1 RMS=2.01D-08 Max=7.55D-08 NDo=     1
 LinEq1:  Iter=  7 NonCon=     1 RMS=3.11D-09 Max=1.38D-08 NDo=     1
 LinEq1:  Iter=  8 NonCon=     0 RMS=3.45D-10 Max=1.28D-09 NDo=     1
 Linear equations converged to 1.000D-09 1.000D-08 after     8 iterations.
     Accept linear search using points  1 and  2.
     Minimum is close to point  2 DX= -2.46D-03 DF= -1.52D-10 DXR=  2.46D-03 DFR=  6.08D-06 which will be used.
 LinEq1:  Iter=  0 NonCon=     1 RMS=2.76D-06 Max=1.16D-05 NDo=     1
 LinEq1:  Iter=  1 NonCon=     1 RMS=5.05D-07 Max=2.64D-06 NDo=     1
 LinEq1:  Iter=  2 NonCon=     1 RMS=1.03D-07 Max=4.56D-07 NDo=     1
 LinEq1:  Iter=  3 NonCon=     1 RMS=1.91D-08 Max=8.47D-08 NDo=     1
 LinEq1:  Iter=  4 NonCon=     1 RMS=3.25D-09 Max=1.03D-08 NDo=     1
 LinEq1:  Iter=  5 NonCon=     1 RMS=1.49D-09 Max=1.03D-08 NDo=     1
 LinEq1:  Iter=  6 NonCon=     1 RMS=1.56D-09 Max=5.83D-09 NDo=     1
 LinEq1:  Iter=  7 NonCon=     1 RMS=3.60D-10 Max=1.21D-09 NDo=     1
 LinEq1:  Iter=  8 NonCon=     0 RMS=6.21D-11 Max=1.55D-10 NDo=     1
 Linear equations converged to 1.038D-10 1.038D-09 after     8 iterations.
 SCF Done:  E(UPM6) =  0.352113087270     a.u. after    3 cycles
            Convg  =    0.3015D-07                    19 Fock formations.
              S**2 =  1.6117                  -V/T =  1.0481
 <Sx>= 0.0000 <Sy>= 0.0000 <Sz>= 0.5000 <S**2>= 1.6117 S= 0.8644
 <L.S>= 0.000000000000E+00
 Annihilation of the first spin contaminant:
 S**2 before annihilation     1.6117,   after     0.8942
 Calling FoFJK, ICntrl=      2127 FMM=F ISym2X=1 I1Cent= 0 IOpClX= 1 NMat=1 NMatS=1 NMatT=0.
 ***** Axes restored to original set *****
 -------------------------------------------------------------------
 Center     Atomic                   Forces (Hartrees/Bohr)
 Number     Number              X              Y              Z
 -------------------------------------------------------------------
      1        7          -0.000207786    0.000313421    0.000004539
      2        8          -0.000050395    0.000008648    0.000011009
      3        8           0.000258181   -0.000322069   -0.000015548
 -------------------------------------------------------------------
 Cartesian Forces:  Max     0.000322069 RMS     0.000187021

 GradGradGradGradGradGradGradGradGradGradGradGradGradGradGradGradGradGrad
 Berny optimization.
 Using GEDIIS/GDIIS optimizer.
 FormGI is forming the generalized inverse of G from B-inverse, IUseBI=4.
 Internal  Forces:  Max     0.000412964 RMS     0.000240672
 Search for a local minimum.
 Step number   6 out of a maximum of   20
 All quantities printed in internal units (Hartrees-Bohrs-Radians)
 Mixed Optimization -- En-DIIS/RFO-DIIS
 Update second derivatives using D2CorX and points    3    4    5    6
 DE= -2.27D-05 DEPred=-2.11D-05 R= 1.07D+00
 TightC=F SS=  1.41D+00  RLast= 1.16D-02 DXNew= 1.3012D+00 3.4772D-02
 Trust test= 1.07D+00 RLast= 1.16D-02 DXMaxT set to 7.74D-01
 The second derivative matrix:
                          R1        R2        A1
           R1           0.31267
           R2           0.04974   0.36512
           A1           0.11883   0.01701   0.20709
 ITU=  1  1  1  1
 Use linear search instead of GDIIS.
     Eigenvalues ---    0.12913   0.32558   0.43018
 RFO step:  Lambda=-9.02396698D-08 EMin= 1.29125938D-01
 Quartic linear search produced a step of  0.10048.
 Iteration  1 RMS(Cart)=  0.00052584 RMS(Int)=  0.00000003
 Iteration  2 RMS(Cart)=  0.00000003 RMS(Int)=  0.00000000
 ClnCor:  largest displacement from symmetrization is 1.99D-15 for atom     2.
 Variable       Old X    -DE/DX   Delta X   Delta X   Delta X     New X
                                 (Linear)    (Quad)   (Total)
    R1        2.65515   0.00005  -0.00058   0.00054  -0.00004   2.65511
    R2        2.55622   0.00041   0.00097   0.00017   0.00114   2.55736
    A1        2.20615   0.00002   0.00027  -0.00022   0.00005   2.20620
         Item               Value     Threshold  Converged?
 Maximum Force            0.000413     0.000450     YES
 RMS     Force            0.000241     0.000300     YES
 Maximum Displacement     0.000572     0.001800     YES
 RMS     Displacement     0.000526     0.001200     YES
 Predicted change in Energy=-2.336936D-07
 Optimization completed.
    -- Stationary point found.
                           ----------------------------
                           !   Optimized Parameters   !
                           ! (Angstroms and Degrees)  !
 --------------------------                            --------------------------
 ! Name  Definition              Value          Derivative Info.                !
 --------------------------------------------------------------------------------
 ! R1    R(1,2)                  1.405          -DE/DX =    0.0001              !
 ! R2    R(1,3)                  1.3527         -DE/DX =    0.0004              !
 ! A1    A(2,1,3)              126.403          -DE/DX =    0.0                 !
 --------------------------------------------------------------------------------
 GradGradGradGradGradGradGradGradGradGradGradGradGradGradGradGradGradGrad

                          Input orientation:                          
 ---------------------------------------------------------------------
 Center     Atomic      Atomic             Coordinates (Angstroms)
 Number     Number       Type             X           Y           Z
 ---------------------------------------------------------------------
      1          7           0        3.785744    6.299414    1.827885
      2          8           0        2.420947    6.291348    2.161673
      3          8           0        4.608120    5.226258    1.785314
 ---------------------------------------------------------------------
                    Distance matrix (angstroms):
                    1          2          3
     1  N    0.000000
     2  O    1.405045   0.000000
     3  O    1.352693   2.461663   0.000000
 Stoichiometry    NO2(2)
 Framework group  CS[SG(NO2)]
 Deg. of freedom     3
 Full point group                 CS      NOp   2
 Largest Abelian subgroup         CS      NOp   2
 Largest concise Abelian subgroup C1      NOp   1
                         Standard orientation:                         
 ---------------------------------------------------------------------
 Center     Atomic      Atomic             Coordinates (Angstroms)
 Number     Number       Type             X           Y           Z
 ---------------------------------------------------------------------
      1          7           0        0.000000    0.432770    0.000000
      2          8           0        1.229464   -0.247355    0.000000
      3          8           0       -1.229464   -0.131319    0.000000
 ---------------------------------------------------------------------
 Rotational constants (GHZ):    134.3969648     10.4262123      9.6756011

 **********************************************************************

            Population analysis using the SCF density.

 **********************************************************************

 Orbital symmetries:
 Alpha Orbitals:
       Occupied  (A') (A') (A') (A') (A") (A') (A') (A') (A')
       Virtual   (A") (A") (A')
 Beta  Orbitals:
       Occupied  (A') (A') (A') (A') (A") (A') (A') (A')
       Virtual   (A") (A") (A') (A')
 The electronic state is 2-A'.
 Alpha  occ. eigenvalues --   -1.16861  -1.09475  -0.89574  -0.68331  -0.61152
 Alpha  occ. eigenvalues --   -0.57843  -0.45028  -0.39081  -0.30227
 Alpha virt. eigenvalues --   -0.21877  -0.05347   0.08469
  Beta  occ. eigenvalues --   -1.18377  -0.98776  -0.86649  -0.65527  -0.62429
  Beta  occ. eigenvalues --   -0.54835  -0.41647  -0.36111
  Beta virt. eigenvalues --   -0.17578  -0.02914   0.06579   0.14905
          Condensed to atoms (all electrons):
               1          2          3
     1  N    4.868310   0.000000   0.000000
     2  O    0.000000   6.087905   0.000000
     3  O    0.000000   0.000000   6.043785
          Atomic-Atomic Spin Densities.
               1          2          3
     1  N    0.541909   0.000000   0.000000
     2  O    0.000000   1.225046   0.000000
     3  O    0.000000   0.000000  -0.766955
 Mulliken charges and spin densities:
               1          2
     1  N    0.131690   0.541909
     2  O   -0.087905   1.225046
     3  O   -0.043785  -0.766955
 Sum of Mulliken charges =   0.00000   1.00000
 Mulliken charges and spin densities with hydrogens summed into heavy atoms:
               1          2
     1  N    0.131690   0.541909
     2  O   -0.087905   1.225046
     3  O   -0.043785  -0.766955
 Charge=              0.0000 electrons
 Dipole moment (field-independent basis, Debye):
    X=             -0.4574    Y=             -0.1010    Z=              0.0000  Tot=              0.4684
 N-N= 5.257925552373D+01 E-N=-8.531991889954D+01  KE=-7.315142505457D+00
 Symmetry A'   KE=-6.726658075449D+00
 Symmetry A"   KE=-5.884844300082D-01
 1|1|UNPC-AHELI-09|FOpt|UPM6|ZDO|N1O2(2)|USER|10-Mar-2026|0||# opt freq
  pm6 guess=huckel scf=qc geom=connectivity||NO2_freq||0,2|N,3.78574443
 78,6.2994138911,1.8278852389|O,2.4209471544,6.2913476542,2.1616726027|
 O,4.6081197678,5.2262576947,1.7853136384||Version=IA32W-G09RevD.01|Sta
 te=2-A'|HF=0.3521131|S2=1.611715|S2-1=0.|S2A=0.894218|RMSD=0.000e+000|
 RMSF=1.870e-004|Dipole=0.1390344,-0.1198408,-0.0162563|PG=CS [SG(N1O2)
 ]||@


 LOVE IS BLIND, THAT'S WHY ALL THE WORLD LOVES A LOUVER.
 Job cpu time:       0 days  0 hours  0 minutes  6.0 seconds.
 File lengths (MBytes):  RWF=      5 Int=      0 D2E=      0 Chk=      1 Scr=      1
 Normal termination of Gaussian 09 at Tue Mar 10 12:03:27 2026.
 Link1:  Proceeding to internal job step number  2.
 -------------------------------------------------------------
 #N Geom=AllCheck Guess=TCheck SCRF=Check GenChk UPM6/ZDO Freq
 -------------------------------------------------------------
 1/10=4,29=7,30=1,38=1,40=1/1,3;
 2/12=2,40=1/2;
 3/5=2,14=-4,16=1,25=1,41=3900000,70=2,71=2,116=2,135=40,140=1/1,2,3;
 4/5=101,35=1/1;
 5/5=2,8=3,35=1,98=1/8;
 8/6=4,10=90,11=11/1;
 11/6=1,8=1,9=11,15=111,16=1/1,2,10;
 10/6=1/2;
 6/7=2,8=2,9=2,10=2,18=1,28=1/1;
 7/8=1,10=1,25=1/1,2,3,16;
 1/10=4,30=1/3;
 99//99;
 Structure from the checkpoint file:  "C:\Users\User\Desktop\IMRG\Thesis\Pending Journal Work\Individual Gas\NO2\NO2_freq.chk"
 --------
 NO2_freq
 --------
 Charge =  0 Multiplicity = 2
 Redundant internal coordinates found in file.
 N,0,3.7857444378,6.2994138911,1.8278852389
 O,0,2.4209471544,6.2913476542,2.1616726027
 O,0,4.6081197678,5.2262576947,1.7853136384
 Recover connectivity data from disk.

 GradGradGradGradGradGradGradGradGradGradGradGradGradGradGradGradGradGrad
 Berny optimization.
 Initialization pass.
                           ----------------------------
                           !    Initial Parameters    !
                           ! (Angstroms and Degrees)  !
 --------------------------                            --------------------------
 ! Name  Definition              Value          Derivative Info.                !
 --------------------------------------------------------------------------------
 ! R1    R(1,2)                  1.405          calculate D2E/DX2 analytically  !
 ! R2    R(1,3)                  1.3527         calculate D2E/DX2 analytically  !
 ! A1    A(2,1,3)              126.403          calculate D2E/DX2 analytically  !
 --------------------------------------------------------------------------------
 Trust Radius=3.00D-01 FncErr=1.00D-07 GrdErr=1.00D-07
 Number of steps in this run=      2 maximum allowed number of steps=      2.
 GradGradGradGradGradGradGradGradGradGradGradGradGradGradGradGradGradGrad

                          Input orientation:                          
 ---------------------------------------------------------------------
 Center     Atomic      Atomic             Coordinates (Angstroms)
 Number     Number       Type             X           Y           Z
 ---------------------------------------------------------------------
      1          7           0        3.785744    6.299414    1.827885
      2          8           0        2.420947    6.291348    2.161673
      3          8           0        4.608120    5.226258    1.785314
 ---------------------------------------------------------------------
                    Distance matrix (angstroms):
                    1          2          3
     1  N    0.000000
     2  O    1.405045   0.000000
     3  O    1.352693   2.461663   0.000000
 Stoichiometry    NO2(2)
 Framework group  CS[SG(NO2)]
 Deg. of freedom     3
 Full point group                 CS      NOp   2
 Largest Abelian subgroup         CS      NOp   2
 Largest concise Abelian subgroup C1      NOp   1
                         Standard orientation:                         
 ---------------------------------------------------------------------
 Center     Atomic      Atomic             Coordinates (Angstroms)
 Number     Number       Type             X           Y           Z
 ---------------------------------------------------------------------
      1          7           0        0.000000    0.432770    0.000000
      2          8           0        1.229464   -0.247355    0.000000
      3          8           0       -1.229464   -0.131319    0.000000
 ---------------------------------------------------------------------
 Rotational constants (GHZ):    134.3969648     10.4262123      9.6756011
 Standard basis: VSTO-6G (5D, 7F)
 There are     9 symmetry adapted cartesian basis functions of A'  symmetry.
 There are     3 symmetry adapted cartesian basis functions of A"  symmetry.
 There are     9 symmetry adapted basis functions of A'  symmetry.
 There are     3 symmetry adapted basis functions of A"  symmetry.
    12 basis functions,    72 primitive gaussians,    12 cartesian basis functions
     9 alpha electrons        8 beta electrons
       nuclear repulsion energy        52.5792555237 Hartrees.
 Integral buffers will be    262144 words long.
 Regular integral format.
 Two-electron integral symmetry is turned off.
 Do NDO integrals.
 One-electron integrals computed using PRISM.
 NBasis=    12 RedAO= T EigKep=  1.41D+00  NBF=     9     3
 NBsUse=    12 1.00D-06 EigRej= -1.00D+00 NBFU=     9     3
 Initial guess from the checkpoint file:  "C:\Users\User\Desktop\IMRG\Thesis\Pending Journal Work\Individual Gas\NO2\NO2_freq.chk"
 B after Tr=     0.000000    0.000000    0.000000
         Rot=    1.000000    0.000000    0.000000    0.000000 Ang=   0.00 deg.
 Initial guess orbital symmetries:
 Alpha Orbitals:
       Occupied  (A') (A') (A') (A') (A") (A') (A') (A') (A')
       Virtual   (A") (A") (A')
 Beta  Orbitals:
       Occupied  (A') (A') (A') (A') (A") (A') (A') (A')
       Virtual   (A") (A") (A') (A')
 Initial guess <Sx>= 0.0000 <Sy>= 0.0000 <Sz>= 0.5000 <S**2>= 1.6117 S= 0.8644
 Keep J ints in memory in canonical form, NReq=859673.
 SCF Done:  E(UPM6) =  0.352113087270     a.u. after    1 cycles
            Convg  =    0.3015D-07                     1 Fock formations.
              S**2 =  1.6117                  -V/T =  1.0481
 <Sx>= 0.0000 <Sy>= 0.0000 <Sz>= 0.5000 <S**2>= 1.6117 S= 0.8644
 <L.S>= 0.000000000000E+00
 Annihilation of the first spin contaminant:
 S**2 before annihilation     1.6117,   after     0.8942
 Range of M.O.s used for correlation:     1    12
 NBasis=    12 NAE=     9 NBE=     8 NFC=     0 NFV=     0
 NROrb=     12 NOA=     9 NOB=     8 NVA=     3 NVB=     4

 **** Warning!!: The smallest alpha delta epsilon is  0.83492935D-01

 Symmetrizing basis deriv contribution to polar:
 IMax=3 JMax=2 DiffMx= 0.00D+00
 G2DrvN: will do     4 centers at a time, making    1 passes.
 Calling FoFCou, ICntrl=  3107 FMM=F I1Cent=   0 AccDes= 0.00D+00.
 End of G2Drv F.D. properties file   721 does not exist.
 End of G2Drv F.D. properties file   722 does not exist.
 End of G2Drv F.D. properties file   788 does not exist.
          IDoAtm=111
          Differentiating once with respect to electric field.
                with respect to dipole field.
          Differentiating once with respect to nuclear coordinates.
          Electric field/nuclear overlap derivatives assumed to be zero.
 Keep J ints in memory in canonical form, NReq=859334.
          There are    12 degrees of freedom in the 1st order CPHF.  IDoFFX=5 NUNeed=    12.
 LinEq1:  Iter=  0 NonCon=    12 RMS=7.47D-01 Max=2.96D+00 NDo=    12
 AX will form    12 AO Fock derivatives at one time.
 LinEq1:  Iter=  1 NonCon=    12 RMS=3.52D-01 Max=2.06D+00 NDo=    12
 LinEq1:  Iter=  2 NonCon=    12 RMS=2.68D-01 Max=1.21D+00 NDo=    12
 LinEq1:  Iter=  3 NonCon=    12 RMS=9.97D-02 Max=3.03D-01 NDo=    12
 LinEq1:  Iter=  4 NonCon=    12 RMS=2.36D-02 Max=1.02D-01 NDo=    12
 LinEq1:  Iter=  5 NonCon=    12 RMS=8.66D-03 Max=2.68D-02 NDo=    12
 LinEq1:  Iter=  6 NonCon=    12 RMS=2.83D-03 Max=1.22D-02 NDo=    12
 LinEq1:  Iter=  7 NonCon=    12 RMS=5.96D-04 Max=2.19D-03 NDo=    12
 LinEq1:  Iter=  8 NonCon=    12 RMS=1.64D-04 Max=4.41D-04 NDo=    12
 LinEq1:  Iter=  9 NonCon=     6 RMS=5.06D-05 Max=1.81D-04 NDo=    12
 LinEq1:  Iter= 10 NonCon=     4 RMS=1.47D-05 Max=5.06D-05 NDo=    12
 LinEq1:  Iter= 11 NonCon=     4 RMS=5.03D-06 Max=1.88D-05 NDo=    12
 LinEq1:  Iter= 12 NonCon=     4 RMS=1.23D-06 Max=3.86D-06 NDo=    12
 LinEq1:  Iter= 13 NonCon=     4 RMS=1.86D-07 Max=6.79D-07 NDo=    12
 LinEq1:  Iter= 14 NonCon=     4 RMS=3.07D-08 Max=1.15D-07 NDo=    12
 LinEq1:  Iter= 15 NonCon=     0 RMS=5.91D-09 Max=1.78D-08 NDo=    12
 Linear equations converged to 1.000D-08 1.000D-07 after    15 iterations.
 Isotropic polarizability for W=    0.000000       16.76 Bohr**3.
 End of Minotr F.D. properties file   721 does not exist.
 End of Minotr F.D. properties file   722 does not exist.
 End of Minotr F.D. properties file   788 does not exist.

 **********************************************************************

            Population analysis using the SCF density.

 **********************************************************************

 Orbital symmetries:
 Alpha Orbitals:
       Occupied  (A') (A') (A') (A') (A") (A') (A') (A') (A')
       Virtual   (A") (A") (A')
 Beta  Orbitals:
       Occupied  (A') (A') (A') (A') (A") (A') (A') (A')
       Virtual   (A") (A") (A') (A')
 The electronic state is 2-A'.
 Alpha  occ. eigenvalues --   -1.16861  -1.09475  -0.89574  -0.68331  -0.61152
 Alpha  occ. eigenvalues --   -0.57843  -0.45028  -0.39081  -0.30227
 Alpha virt. eigenvalues --   -0.21877  -0.05347   0.08469
  Beta  occ. eigenvalues --   -1.18377  -0.98776  -0.86649  -0.65527  -0.62429
  Beta  occ. eigenvalues --   -0.54835  -0.41647  -0.36111
  Beta virt. eigenvalues --   -0.17578  -0.02914   0.06579   0.14905
          Condensed to atoms (all electrons):
               1          2          3
     1  N    4.868310   0.000000   0.000000
     2  O    0.000000   6.087905   0.000000
     3  O    0.000000   0.000000   6.043785
          Atomic-Atomic Spin Densities.
               1          2          3
     1  N    0.541909   0.000000   0.000000
     2  O    0.000000   1.225046   0.000000
     3  O    0.000000   0.000000  -0.766955
 Mulliken charges and spin densities:
               1          2
     1  N    0.131690   0.541909
     2  O   -0.087905   1.225046
     3  O   -0.043785  -0.766955
 Sum of Mulliken charges =   0.00000   1.00000
 Mulliken charges and spin densities with hydrogens summed into heavy atoms:
               1          2
     1  N    0.131690   0.541909
     2  O   -0.087905   1.225046
     3  O   -0.043785  -0.766955
 APT charges:
               1
     1  N    0.605695
     2  O   -0.363703
     3  O   -0.243853
 Sum of APT charges =  -0.00186
 APT charges with hydrogens summed into heavy atoms:
               1
     1  N    0.605695
     2  O   -0.363703
     3  O   -0.243853
 Charge=              0.0000 electrons
 Dipole moment (field-independent basis, Debye):
    X=             -0.4574    Y=             -0.1010    Z=              0.0000  Tot=              0.4684
 N-N= 5.257925552373D+01 E-N=-8.531991889954D+01  KE=-7.315142505457D+00
 Symmetry A'   KE=-6.726658075449D+00
 Symmetry A"   KE=-5.884844300082D-01
  Exact polarizability:  38.526  -1.990   6.243   0.000   0.000   5.517
 Approx polarizability:  30.082  -0.680   4.054   0.000   0.000   2.757
 Calling FoFJK, ICntrl=    100127 FMM=F ISym2X=1 I1Cent= 0 IOpClX= 1 NMat=1 NMatS=1 NMatT=0.
 Full mass-weighted force constant matrix:
 Low frequencies ---  -52.4890  -13.3079   -0.0029    0.1008   19.4029   58.8300
 Low frequencies ---  346.7298  827.8087 1162.2653
 Diagonal vibrational polarizability:
        6.3430745       1.6000416       0.0000000
 Harmonic frequencies (cm**-1), IR intensities (KM/Mole), Raman scattering
 activities (A**4/AMU), depolarization ratios for plane and unpolarized
 incident light, reduced masses (AMU), force constants (mDyne/A),
 and normal coordinates:
                      1                      2                      3
                     A'                     A'                     A'
 Frequencies --    346.7294               827.8086              1162.2653
 Red. masses --     15.2368                15.1747                14.7158
 Frc consts  --      1.0793                 6.1267                11.7124
 IR Inten    --      3.6577               103.6803               153.2367
  Atom  AN      X      Y      Z        X      Y      Z        X      Y      Z
     1   7    -0.02   0.62   0.00    -0.30   0.57   0.00     0.77   0.23   0.00
     2   8    -0.48  -0.25   0.00     0.59  -0.34   0.00    -0.16   0.06   0.00
     3   8     0.49  -0.29   0.00    -0.32  -0.16   0.00    -0.51  -0.26   0.00

 -------------------
 - Thermochemistry -
 -------------------
 Temperature   298.150 Kelvin.  Pressure   1.00000 Atm.
 Atom     1 has atomic number  7 and mass  14.00307
 Atom     2 has atomic number  8 and mass  15.99491
 Atom     3 has atomic number  8 and mass  15.99491
 Molecular mass:    45.99290 amu.
 Principal axes and moments of inertia in atomic units:
                           1         2         3
     Eigenvalues --    13.42844 173.09653 186.52497
           X            0.99869   0.05110   0.00000
           Y           -0.05110   0.99869   0.00000
           Z            0.00000   0.00000   1.00000
 This molecule is an asymmetric top.
 Rotational symmetry number  1.
 Rotational temperatures (Kelvin)      6.45003     0.50038     0.46436
 Rotational constants (GHZ):         134.39696    10.42621     9.67560
 Zero-point vibrational energy      13977.2 (Joules/Mol)
                                    3.34063 (Kcal/Mol)
 Warning -- explicit consideration of   1 degrees of freedom as
           vibrations may cause significant error
 Vibrational temperatures:    498.87  1191.03  1672.24
          (Kelvin)
 
 Zero-point correction=                           0.005324 (Hartree/Particle)
 Thermal correction to Energy=                    0.008611
 Thermal correction to Enthalpy=                  0.009556
 Thermal correction to Gibbs Free Energy=        -0.019378
 Sum of electronic and zero-point Energies=              0.357437
 Sum of electronic and thermal Energies=                 0.360724
 Sum of electronic and thermal Enthalpies=               0.361669
 Sum of electronic and thermal Free Energies=            0.332735
 
                     E (Thermal)             CV                S
                      KCal/Mol        Cal/Mol-Kelvin    Cal/Mol-Kelvin
 Total                    5.404              8.380             60.895
 Electronic               0.000              0.000              1.377
 Translational            0.889              2.981             37.403
 Rotational               0.889              2.981             20.700
 Vibrational              3.626              2.419              1.415
 Vibration     1          0.725              1.582              1.181
                       Q            Log10(Q)             Ln(Q)
 Total Bot       0.818689D+09          8.913119         20.523214
 Total V=0       0.230045D+12         11.361813         26.161542
 Vib (Bot)       0.447946D-02         -2.348774         -5.408253
 Vib (Bot)    1  0.533240D+00         -0.273077         -0.628784
 Vib (V=0)       0.125869D+01          0.099920          0.230074
 Vib (V=0)    1  0.123099D+01          0.090254          0.207818
 Electronic      0.200000D+01          0.301030          0.693147
 Translational   0.122600D+08          7.088491         16.321855
 Rotational      0.745370D+04          3.872372          8.916466
 ***** Axes restored to original set *****
 -------------------------------------------------------------------
 Center     Atomic                   Forces (Hartrees/Bohr)
 Number     Number              X              Y              Z
 -------------------------------------------------------------------
      1        7          -0.000207786    0.000313421    0.000004539
      2        8          -0.000050395    0.000008648    0.000011009
      3        8           0.000258181   -0.000322069   -0.000015548
 -------------------------------------------------------------------
 Cartesian Forces:  Max     0.000322069 RMS     0.000187021
 FormGI is forming the generalized inverse of G from B-inverse, IUseBI=4.

 GradGradGradGradGradGradGradGradGradGradGradGradGradGradGradGradGradGrad
 Berny optimization.
 Internal  Forces:  Max     0.000412964 RMS     0.000240672
 Search for a local minimum.
 Step number   1 out of a maximum of    2
 All quantities printed in internal units (Hartrees-Bohrs-Radians)
 Second derivative matrix not updated -- analytic derivatives used.
 The second derivative matrix:
                          R1        R2        A1
           R1           0.23376
           R2           0.02640   0.35505
           A1           0.03046  -0.00951   0.11459
 ITU=  0
     Eigenvalues ---    0.10628   0.23653   0.36059
 Angle between quadratic step and forces=  11.70 degrees.
 Linear search not attempted -- first point.
 Iteration  1 RMS(Cart)=  0.00064862 RMS(Int)=  0.00000007
 Iteration  2 RMS(Cart)=  0.00000008 RMS(Int)=  0.00000000
 ClnCor:  largest displacement from symmetrization is 2.04D-15 for atom     1.
 Variable       Old X    -DE/DX   Delta X   Delta X   Delta X     New X
                                 (Linear)    (Quad)   (Total)
    R1        2.65515   0.00005   0.00000   0.00005   0.00005   2.65520
    R2        2.55622   0.00041   0.00000   0.00117   0.00117   2.55739
    A1        2.20615   0.00002   0.00000   0.00029   0.00029   2.20644
         Item               Value     Threshold  Converged?
 Maximum Force            0.000413     0.000450     YES
 RMS     Force            0.000241     0.000300     YES
 Maximum Displacement     0.000775     0.001800     YES
 RMS     Displacement     0.000649     0.001200     YES
 Predicted change in Energy=-2.458177D-07
 Optimization completed.
    -- Stationary point found.
                           ----------------------------
                           !   Optimized Parameters   !
                           ! (Angstroms and Degrees)  !
 --------------------------                            --------------------------
 ! Name  Definition              Value          Derivative Info.                !
 --------------------------------------------------------------------------------
 ! R1    R(1,2)                  1.405          -DE/DX =    0.0001              !
 ! R2    R(1,3)                  1.3527         -DE/DX =    0.0004              !
 ! A1    A(2,1,3)              126.403          -DE/DX =    0.0                 !
 --------------------------------------------------------------------------------
 GradGradGradGradGradGradGradGradGradGradGradGradGradGradGradGradGradGrad

 1|1|UNPC-AHELI-09|Freq|UPM6|ZDO|N1O2(2)|USER|10-Mar-2026|0||#N Geom=Al
 lCheck Guess=TCheck SCRF=Check GenChk UPM6/ZDO Freq||NO2_freq||0,2|N,3
 .7857444378,6.2994138911,1.8278852389|O,2.4209471544,6.2913476542,2.16
 16726027|O,4.6081197678,5.2262576947,1.7853136384||Version=IA32W-G09Re
 vD.01|State=2-A'|HF=0.3521131|S2=1.611715|S2-1=0.|S2A=0.894218|RMSD=0.
 000e+000|RMSF=1.870e-004|ZeroPoint=0.0053236|Thermal=0.0086113|Dipole=
 0.1390344,-0.1198408,-0.0162563|DipoleDeriv=1.1356236,-0.6575194,-0.18
 51143,0.0095139,0.6424701,-0.0998748,-0.2832224,0.0626811,0.0389907,-0
 .9587396,0.2028626,0.1969294,-0.1226921,-0.0512581,0.033288,0.2448124,
 -0.0460497,-0.0811113,-0.1772074,0.4544717,-0.0130649,0.1130123,-0.591
 3251,0.0658256,0.0371574,-0.017388,0.0369737|Polar=32.0843451,-12.2337
 255,11.8464718,-4.6750767,2.0504295,6.354862|HyperPolar=300.0243361,2.
 1644122,-24.9690618,37.7320031,-21.4103788,20.6731773,2.743094,102.306
 5056,-1.9243426,-78.8807269|PG=CS [SG(N1O2)]|NImag=0||0.30969756,-0.14
 953022,0.27441883,-0.05341602,-0.00388266,0.01385177,-0.19667452,-0.00
 263088,0.04829379,0.22147386,-0.00002502,-0.02857533,0.00419528,-0.010
 34593,0.01579147,0.04791052,0.00483033,-0.01247949,-0.05236861,0.00024
 868,0.01306565,-0.11308955,0.15211957,0.00485115,-0.02472192,0.0104185
 2,0.00477464,0.13780055,0.14951283,-0.24586913,-0.00047559,0.01302581,
 0.01281364,-0.00488867,-0.16254468,0.23305135,0.00523455,-0.00111086,-
 0.00248619,0.00439116,-0.00425327,0.00071377,-0.00967117,0.00533676,0.
 00158640||0.00020779,-0.00031342,-0.00000454,0.00005039,-0.00000865,-0
 .00001101,-0.00025818,0.00032207,0.00001555|||@


 LOVE IS BLIND, THAT'S WHY ALL THE WORLD LOVES A LOUVER.
 Job cpu time:       0 days  0 hours  0 minutes  1.0 seconds.
 File lengths (MBytes):  RWF=      5 Int=      0 D2E=      0 Chk=      1 Scr=      1
 Normal termination of Gaussian 09 at Tue Mar 10 12:03:28 2026.
