 Entering Link 1 = C:\Gaussian\G09W\l1.exe PID=      3980.
  
 Copyright (c) 1988,1990,1992,1993,1995,1998,2003,2009,2013,
            Gaussian, Inc.  All Rights Reserved.
  
 This is part of the Gaussian(R) 09 program.  It is based on
 the Gaussian(R) 03 system (copyright 2003, Gaussian, Inc.),
 the Gaussian(R) 98 system (copyright 1998, Gaussian, Inc.),
 the Gaussian(R) 94 system (copyright 1995, Gaussian, Inc.),
 the Gaussian 92(TM) system (copyright 1992, Gaussian, Inc.),
 the Gaussian 90(TM) system (copyright 1990, Gaussian, Inc.),
 the Gaussian 88(TM) system (copyright 1988, Gaussian, Inc.),
 the Gaussian 86(TM) system (copyright 1986, Carnegie Mellon
 University), and the Gaussian 82(TM) system (copyright 1983,
 Carnegie Mellon University). Gaussian is a federally registered
 trademark of Gaussian, Inc.
  
 This software contains proprietary and confidential information,
 including trade secrets, belonging to Gaussian, Inc.
  
 This software is provided under written license and may be
 used, copied, transmitted, or stored only in accord with that
 written license.
  
 The following legend is applicable only to US Government
 contracts under FAR:
  
                    RESTRICTED RIGHTS LEGEND
  
 Use, reproduction and disclosure by the US Government is
 subject to restrictions as set forth in subparagraphs (a)
 and (c) of the Commercial Computer Software - Restricted
 Rights clause in FAR 52.227-19.
  
 Gaussian, Inc.
 340 Quinnipiac St., Bldg. 40, Wallingford CT 06492
  
  
 ---------------------------------------------------------------
 Warning -- This program may not be used in any manner that
 competes with the business of Gaussian, Inc. or will provide
 assistance to any competitor of Gaussian, Inc.  The licensee
 of this program is prohibited from giving any competitor of
 Gaussian, Inc. access to this program.  By using this program,
 the user acknowledges that Gaussian, Inc. is engaged in the
 business of creating and licensing software in the field of
 computational chemistry and represents and warrants to the
 licensee that it is not a competitor of Gaussian, Inc. and that
 it will not use this program in any manner prohibited above.
 ---------------------------------------------------------------
  

 Cite this work as:
 Gaussian 09, Revision D.01,
 M. J. Frisch, G. W. Trucks, H. B. Schlegel, G. E. Scuseria, 
 M. A. Robb, J. R. Cheeseman, G. Scalmani, V. Barone, B. Mennucci, 
 G. A. Petersson, H. Nakatsuji, M. Caricato, X. Li, H. P. Hratchian, 
 A. F. Izmaylov, J. Bloino, G. Zheng, J. L. Sonnenberg, M. Hada, 
 M. Ehara, K. Toyota, R. Fukuda, J. Hasegawa, M. Ishida, T. Nakajima, 
 Y. Honda, O. Kitao, H. Nakai, T. Vreven, J. A. Montgomery, Jr., 
 J. E. Peralta, F. Ogliaro, M. Bearpark, J. J. Heyd, E. Brothers, 
 K. N. Kudin, V. N. Staroverov, T. Keith, R. Kobayashi, J. Normand, 
 K. Raghavachari, A. Rendell, J. C. Burant, S. S. Iyengar, J. Tomasi, 
 M. Cossi, N. Rega, J. M. Millam, M. Klene, J. E. Knox, J. B. Cross, 
 V. Bakken, C. Adamo, J. Jaramillo, R. Gomperts, R. E. Stratmann, 
 O. Yazyev, A. J. Austin, R. Cammi, C. Pomelli, J. W. Ochterski, 
 R. L. Martin, K. Morokuma, V. G. Zakrzewski, G. A. Voth, 
 P. Salvador, J. J. Dannenberg, S. Dapprich, A. D. Daniels, 
 O. Farkas, J. B. Foresman, J. V. Ortiz, J. Cioslowski, 
 and D. J. Fox, Gaussian, Inc., Wallingford CT, 2013.
 
 ******************************************
 Gaussian 09:  IA32W-G09RevD.01 24-Apr-2013
                15-Mar-2026 
 ******************************************
 %chk=C:\Users\User\Desktop\IMRG\ECE+ML\Os_Gr_NS.chk
 ---------------------------------------
 # opt freq pm6 scf=qc geom=connectivity
 ---------------------------------------
 1/14=-1,18=20,19=15,26=1,38=1,57=2/1,3;
 2/9=110,12=2,17=6,18=5,40=1/2;
 3/5=2,16=1,25=1,41=3900000,71=1/1,2,3;
 4/35=1/1;
 5/5=2,8=3,35=1,38=5/8;
 6/7=2,8=2,9=2,10=2,28=1/1;
 7//1,2,3,16;
 1/14=-1,18=20,19=15,26=1/3(2);
 2/9=110/2;
 99//99;
 2/9=110/2;
 3/5=2,16=1,25=1,41=3900000,71=1,135=20/1,2,3;
 4/5=5,16=3,35=1/1;
 5/5=2,8=3,35=1,38=5/8;
 7//1,2,3,16;
 1/14=-1,18=20,19=15,26=1/3(-5);
 2/9=110/2;
 6/7=2,8=2,9=2,10=2,19=2,28=1/1;
 99/9=1/99;
 --------
 Os_Gr_NS
 --------
 Symbolic Z-matrix:
 Charge =  0 Multiplicity = 1
 C                     0.17695   1.02371   2.99497 
 C                     1.43495   0.29741   2.57781 
 C                     2.69295   1.02371   2.99497 
 C                     5.20895   1.02371   2.99497 
 C                     7.72495   1.02371   2.99497 
 C                     3.95095   0.29741   2.57781 
 C                     6.46695   0.29741   2.57781 
 C                    -1.08105   3.20263   2.99497 
 C                    -2.33905   5.38155   2.99497 
 C                     0.17695   2.47633   2.57781 
 C                    -1.08105   4.65525   2.57781 
 C                    -2.33905   6.83417   2.57781 
 C                     1.43495   3.20263   2.99497 
 C                     0.17695   5.38155   2.99497 
 C                    -1.08105   7.56047   2.99497 
 C                     3.95095   3.20263   2.99497 
 C                     2.69295   5.38155   2.99497 
 C                     1.43495   7.56047   2.99497 
 C                     6.46695   3.20263   2.99497 
 C                     5.20895   5.38155   2.99497 
 C                     3.95095   7.56047   2.99497 
 C                     2.69295   2.47633   2.57781 
 C                     0.17695   6.83417   2.57781 
 C                     5.20895   2.47633   2.57781 
 C                     3.95095   4.65525   2.57781 
 C                     2.69295   6.83417   2.57781 
 C                     7.72495   2.47633   2.57781 
 C                     6.46695   4.65525   2.57781 
 C                     5.20895   6.83417   2.57781 
 H                     8.6156    2.99054   2.87315 
 H                     7.3576    5.16946   2.87315 
 H                     6.0996    7.34838   2.87315 
 H                     3.95095   8.58891   2.69962 
 H                     1.43495   8.58891   2.69962 
 H                    -1.08105   8.58891   2.69962 
 H                    -3.2297    7.34838   2.87315 
 H                    -3.2297    4.86734   2.69962 
 H                    -1.9717    2.68842   2.69962 
 H                    -0.7137    0.5095    2.69962 
 H                     1.43495  -0.73103   2.87315 
 H                     3.95095  -0.73103   2.87315 
 H                     6.49522  -0.60455   3.15277 
 H                     8.37341   0.35071   3.51599 
 Os                    1.43495   4.65525   2.57781 
 

 GradGradGradGradGradGradGradGradGradGradGradGradGradGradGradGradGradGrad
 Berny optimization.
 Initialization pass.
                           ----------------------------
                           !    Initial Parameters    !
                           ! (Angstroms and Degrees)  !
 --------------------------                            --------------------------
 ! Name  Definition              Value          Derivative Info.                !
 --------------------------------------------------------------------------------
 ! R1    R(1,2)                  1.5113         estimate D2E/DX2                !
 ! R2    R(1,10)                 1.5113         estimate D2E/DX2                !
 ! R3    R(1,39)                 1.07           estimate D2E/DX2                !
 ! R4    R(2,3)                  1.5113         estimate D2E/DX2                !
 ! R5    R(2,40)                 1.07           estimate D2E/DX2                !
 ! R6    R(3,6)                  1.5113         estimate D2E/DX2                !
 ! R7    R(3,22)                 1.5113         estimate D2E/DX2                !
 ! R8    R(4,6)                  1.5113         estimate D2E/DX2                !
 ! R9    R(4,7)                  1.5113         estimate D2E/DX2                !
 ! R10   R(4,24)                 1.5113         estimate D2E/DX2                !
 ! R11   R(5,7)                  1.5113         estimate D2E/DX2                !
 ! R12   R(5,27)                 1.5113         estimate D2E/DX2                !
 ! R13   R(5,43)                 1.07           estimate D2E/DX2                !
 ! R14   R(6,41)                 1.07           estimate D2E/DX2                !
 ! R15   R(7,42)                 1.07           estimate D2E/DX2                !
 ! R16   R(8,10)                 1.5113         estimate D2E/DX2                !
 ! R17   R(8,11)                 1.5113         estimate D2E/DX2                !
 ! R18   R(8,38)                 1.07           estimate D2E/DX2                !
 ! R19   R(9,11)                 1.5113         estimate D2E/DX2                !
 ! R20   R(9,12)                 1.5113         estimate D2E/DX2                !
 ! R21   R(9,37)                 1.07           estimate D2E/DX2                !
 ! R22   R(10,13)                1.5113         estimate D2E/DX2                !
 ! R23   R(11,14)                1.5113         estimate D2E/DX2                !
 ! R24   R(12,15)                1.5113         estimate D2E/DX2                !
 ! R25   R(12,36)                1.07           estimate D2E/DX2                !
 ! R26   R(13,22)                1.5113         estimate D2E/DX2                !
 ! R27   R(13,44)                1.5113         estimate D2E/DX2                !
 ! R28   R(14,23)                1.5113         estimate D2E/DX2                !
 ! R29   R(14,44)                1.5113         estimate D2E/DX2                !
 ! R30   R(15,23)                1.5113         estimate D2E/DX2                !
 ! R31   R(15,35)                1.07           estimate D2E/DX2                !
 ! R32   R(16,22)                1.5113         estimate D2E/DX2                !
 ! R33   R(16,24)                1.5113         estimate D2E/DX2                !
 ! R34   R(16,25)                1.5113         estimate D2E/DX2                !
 ! R35   R(17,25)                1.5113         estimate D2E/DX2                !
 ! R36   R(17,26)                1.5113         estimate D2E/DX2                !
 ! R37   R(17,44)                1.5113         estimate D2E/DX2                !
 ! R38   R(18,23)                1.5113         estimate D2E/DX2                !
 ! R39   R(18,26)                1.5113         estimate D2E/DX2                !
 ! R40   R(18,34)                1.07           estimate D2E/DX2                !
 ! R41   R(19,24)                1.5113         estimate D2E/DX2                !
 ! R42   R(19,27)                1.5113         estimate D2E/DX2                !
 ! R43   R(19,28)                1.5113         estimate D2E/DX2                !
 ! R44   R(20,25)                1.5113         estimate D2E/DX2                !
 ! R45   R(20,28)                1.5113         estimate D2E/DX2                !
 ! R46   R(20,29)                1.5113         estimate D2E/DX2                !
 ! R47   R(21,26)                1.5113         estimate D2E/DX2                !
 ! R48   R(21,29)                1.5113         estimate D2E/DX2                !
 ! R49   R(21,33)                1.07           estimate D2E/DX2                !
 ! R50   R(27,30)                1.07           estimate D2E/DX2                !
 ! R51   R(28,31)                1.07           estimate D2E/DX2                !
 ! R52   R(29,32)                1.07           estimate D2E/DX2                !
 ! A1    A(2,1,10)             112.6884         estimate D2E/DX2                !
 ! A2    A(2,1,39)             112.6884         estimate D2E/DX2                !
 ! A3    A(10,1,39)            112.6884         estimate D2E/DX2                !
 ! A4    A(1,2,3)              112.6884         estimate D2E/DX2                !
 ! A5    A(1,2,40)             112.6884         estimate D2E/DX2                !
 ! A6    A(3,2,40)             112.6884         estimate D2E/DX2                !
 ! A7    A(2,3,6)              112.6884         estimate D2E/DX2                !
 ! A8    A(2,3,22)             112.6884         estimate D2E/DX2                !
 ! A9    A(6,3,22)             112.6884         estimate D2E/DX2                !
 ! A10   A(6,4,7)              112.6884         estimate D2E/DX2                !
 ! A11   A(6,4,24)             112.6884         estimate D2E/DX2                !
 ! A12   A(7,4,24)             112.6884         estimate D2E/DX2                !
 ! A13   A(7,5,27)             112.6884         estimate D2E/DX2                !
 ! A14   A(7,5,43)             109.6693         estimate D2E/DX2                !
 ! A15   A(27,5,43)            137.6415         estimate D2E/DX2                !
 ! A16   A(3,6,4)              112.6884         estimate D2E/DX2                !
 ! A17   A(3,6,41)             112.6884         estimate D2E/DX2                !
 ! A18   A(4,6,41)             112.6884         estimate D2E/DX2                !
 ! A19   A(4,7,5)              112.6884         estimate D2E/DX2                !
 ! A20   A(4,7,42)             106.187          estimate D2E/DX2                !
 ! A21   A(5,7,42)             103.5792         estimate D2E/DX2                !
 ! A22   A(10,8,11)            112.6884         estimate D2E/DX2                !
 ! A23   A(10,8,38)            112.6884         estimate D2E/DX2                !
 ! A24   A(11,8,38)            112.6884         estimate D2E/DX2                !
 ! A25   A(11,9,12)            112.6884         estimate D2E/DX2                !
 ! A26   A(11,9,37)            112.6884         estimate D2E/DX2                !
 ! A27   A(12,9,37)            112.6884         estimate D2E/DX2                !
 ! A28   A(1,10,8)             112.6884         estimate D2E/DX2                !
 ! A29   A(1,10,13)            112.6884         estimate D2E/DX2                !
 ! A30   A(8,10,13)            112.6884         estimate D2E/DX2                !
 ! A31   A(8,11,9)             112.6884         estimate D2E/DX2                !
 ! A32   A(8,11,14)            112.6884         estimate D2E/DX2                !
 ! A33   A(9,11,14)            112.6884         estimate D2E/DX2                !
 ! A34   A(9,12,15)            112.6884         estimate D2E/DX2                !
 ! A35   A(9,12,36)            112.6884         estimate D2E/DX2                !
 ! A36   A(15,12,36)           112.6884         estimate D2E/DX2                !
 ! A37   A(10,13,22)           112.6884         estimate D2E/DX2                !
 ! A38   A(10,13,44)           112.6884         estimate D2E/DX2                !
 ! A39   A(22,13,44)           112.6884         estimate D2E/DX2                !
 ! A40   A(11,14,23)           112.6884         estimate D2E/DX2                !
 ! A41   A(11,14,44)           112.6884         estimate D2E/DX2                !
 ! A42   A(23,14,44)           112.6884         estimate D2E/DX2                !
 ! A43   A(12,15,23)           112.6884         estimate D2E/DX2                !
 ! A44   A(12,15,35)           112.6884         estimate D2E/DX2                !
 ! A45   A(23,15,35)           112.6884         estimate D2E/DX2                !
 ! A46   A(22,16,24)           112.6884         estimate D2E/DX2                !
 ! A47   A(22,16,25)           112.6884         estimate D2E/DX2                !
 ! A48   A(24,16,25)           112.6884         estimate D2E/DX2                !
 ! A49   A(25,17,26)           112.6884         estimate D2E/DX2                !
 ! A50   A(25,17,44)           112.6884         estimate D2E/DX2                !
 ! A51   A(26,17,44)           112.6884         estimate D2E/DX2                !
 ! A52   A(23,18,26)           112.6884         estimate D2E/DX2                !
 ! A53   A(23,18,34)           112.6884         estimate D2E/DX2                !
 ! A54   A(26,18,34)           112.6884         estimate D2E/DX2                !
 ! A55   A(24,19,27)           112.6884         estimate D2E/DX2                !
 ! A56   A(24,19,28)           112.6884         estimate D2E/DX2                !
 ! A57   A(27,19,28)           112.6884         estimate D2E/DX2                !
 ! A58   A(25,20,28)           112.6884         estimate D2E/DX2                !
 ! A59   A(25,20,29)           112.6884         estimate D2E/DX2                !
 ! A60   A(28,20,29)           112.6884         estimate D2E/DX2                !
 ! A61   A(26,21,29)           112.6884         estimate D2E/DX2                !
 ! A62   A(26,21,33)           112.6884         estimate D2E/DX2                !
 ! A63   A(29,21,33)           112.6884         estimate D2E/DX2                !
 ! A64   A(3,22,13)            112.6884         estimate D2E/DX2                !
 ! A65   A(3,22,16)            112.6884         estimate D2E/DX2                !
 ! A66   A(13,22,16)           112.6884         estimate D2E/DX2                !
 ! A67   A(14,23,15)           112.6884         estimate D2E/DX2                !
 ! A68   A(14,23,18)           112.6884         estimate D2E/DX2                !
 ! A69   A(15,23,18)           112.6884         estimate D2E/DX2                !
 ! A70   A(4,24,16)            112.6884         estimate D2E/DX2                !
 ! A71   A(4,24,19)            112.6884         estimate D2E/DX2                !
 ! A72   A(16,24,19)           112.6884         estimate D2E/DX2                !
 ! A73   A(16,25,17)           112.6884         estimate D2E/DX2                !
 ! A74   A(16,25,20)           112.6884         estimate D2E/DX2                !
 ! A75   A(17,25,20)           112.6884         estimate D2E/DX2                !
 ! A76   A(17,26,18)           112.6884         estimate D2E/DX2                !
 ! A77   A(17,26,21)           112.6884         estimate D2E/DX2                !
 ! A78   A(18,26,21)           112.6884         estimate D2E/DX2                !
 ! A79   A(5,27,19)            112.6884         estimate D2E/DX2                !
 ! A80   A(5,27,30)            112.6884         estimate D2E/DX2                !
 ! A81   A(19,27,30)           112.6884         estimate D2E/DX2                !
 ! A82   A(19,28,20)           112.6884         estimate D2E/DX2                !
 ! A83   A(19,28,31)           112.6884         estimate D2E/DX2                !
 ! A84   A(20,28,31)           112.6884         estimate D2E/DX2                !
 ! A85   A(20,29,21)           112.6884         estimate D2E/DX2                !
 ! A86   A(20,29,32)           112.6884         estimate D2E/DX2                !
 ! A87   A(21,29,32)           112.6884         estimate D2E/DX2                !
 ! A88   A(13,44,14)           112.6884         estimate D2E/DX2                !
 ! A89   A(13,44,17)           112.6884         estimate D2E/DX2                !
 ! A90   A(14,44,17)           112.6884         estimate D2E/DX2                !
 ! D1    D(10,1,2,3)            51.1032         estimate D2E/DX2                !
 ! D2    D(10,1,2,40)          180.0            estimate D2E/DX2                !
 ! D3    D(39,1,2,3)           180.0            estimate D2E/DX2                !
 ! D4    D(39,1,2,40)          -51.1032         estimate D2E/DX2                !
 ! D5    D(2,1,10,8)           180.0            estimate D2E/DX2                !
 ! D6    D(2,1,10,13)          -51.1032         estimate D2E/DX2                !
 ! D7    D(39,1,10,8)           51.1032         estimate D2E/DX2                !
 ! D8    D(39,1,10,13)         180.0            estimate D2E/DX2                !
 ! D9    D(1,2,3,6)            180.0            estimate D2E/DX2                !
 ! D10   D(1,2,3,22)           -51.1032         estimate D2E/DX2                !
 ! D11   D(40,2,3,6)            51.1032         estimate D2E/DX2                !
 ! D12   D(40,2,3,22)         -180.0            estimate D2E/DX2                !
 ! D13   D(2,3,6,4)            180.0            estimate D2E/DX2                !
 ! D14   D(2,3,6,41)           -51.1032         estimate D2E/DX2                !
 ! D15   D(22,3,6,4)            51.1032         estimate D2E/DX2                !
 ! D16   D(22,3,6,41)          180.0            estimate D2E/DX2                !
 ! D17   D(2,3,22,13)           51.1032         estimate D2E/DX2                !
 ! D18   D(2,3,22,16)          180.0            estimate D2E/DX2                !
 ! D19   D(6,3,22,13)          180.0            estimate D2E/DX2                !
 ! D20   D(6,3,22,16)          -51.1032         estimate D2E/DX2                !
 ! D21   D(7,4,6,3)            180.0            estimate D2E/DX2                !
 ! D22   D(7,4,6,41)            51.1032         estimate D2E/DX2                !
 ! D23   D(24,4,6,3)           -51.1032         estimate D2E/DX2                !
 ! D24   D(24,4,6,41)          180.0            estimate D2E/DX2                !
 ! D25   D(6,4,7,5)            180.0            estimate D2E/DX2                !
 ! D26   D(6,4,7,42)           -67.2727         estimate D2E/DX2                !
 ! D27   D(24,4,7,5)            51.1032         estimate D2E/DX2                !
 ! D28   D(24,4,7,42)          163.8304         estimate D2E/DX2                !
 ! D29   D(6,4,24,16)           51.1032         estimate D2E/DX2                !
 ! D30   D(6,4,24,19)          180.0            estimate D2E/DX2                !
 ! D31   D(7,4,24,16)          180.0            estimate D2E/DX2                !
 ! D32   D(7,4,24,19)          -51.1032         estimate D2E/DX2                !
 ! D33   D(27,5,7,4)           -51.1032         estimate D2E/DX2                !
 ! D34   D(27,5,7,42)         -165.4227         estimate D2E/DX2                !
 ! D35   D(43,5,7,4)           128.6399         estimate D2E/DX2                !
 ! D36   D(43,5,7,42)           14.3203         estimate D2E/DX2                !
 ! D37   D(7,5,27,19)           51.1032         estimate D2E/DX2                !
 ! D38   D(7,5,27,30)          180.0            estimate D2E/DX2                !
 ! D39   D(43,5,27,19)        -128.5377         estimate D2E/DX2                !
 ! D40   D(43,5,27,30)           0.3591         estimate D2E/DX2                !
 ! D41   D(11,8,10,1)          180.0            estimate D2E/DX2                !
 ! D42   D(11,8,10,13)          51.1032         estimate D2E/DX2                !
 ! D43   D(38,8,10,1)          -51.1032         estimate D2E/DX2                !
 ! D44   D(38,8,10,13)        -180.0            estimate D2E/DX2                !
 ! D45   D(10,8,11,9)          180.0            estimate D2E/DX2                !
 ! D46   D(10,8,11,14)         -51.1032         estimate D2E/DX2                !
 ! D47   D(38,8,11,9)           51.1032         estimate D2E/DX2                !
 ! D48   D(38,8,11,14)         180.0            estimate D2E/DX2                !
 ! D49   D(12,9,11,8)         -180.0            estimate D2E/DX2                !
 ! D50   D(12,9,11,14)          51.1032         estimate D2E/DX2                !
 ! D51   D(37,9,11,8)          -51.1032         estimate D2E/DX2                !
 ! D52   D(37,9,11,14)         180.0            estimate D2E/DX2                !
 ! D53   D(11,9,12,15)         -51.1032         estimate D2E/DX2                !
 ! D54   D(11,9,12,36)        -180.0            estimate D2E/DX2                !
 ! D55   D(37,9,12,15)         180.0            estimate D2E/DX2                !
 ! D56   D(37,9,12,36)          51.1032         estimate D2E/DX2                !
 ! D57   D(1,10,13,22)          51.1032         estimate D2E/DX2                !
 ! D58   D(1,10,13,44)         180.0            estimate D2E/DX2                !
 ! D59   D(8,10,13,22)         180.0            estimate D2E/DX2                !
 ! D60   D(8,10,13,44)         -51.1032         estimate D2E/DX2                !
 ! D61   D(8,11,14,23)         180.0            estimate D2E/DX2                !
 ! D62   D(8,11,14,44)          51.1032         estimate D2E/DX2                !
 ! D63   D(9,11,14,23)         -51.1032         estimate D2E/DX2                !
 ! D64   D(9,11,14,44)         180.0            estimate D2E/DX2                !
 ! D65   D(9,12,15,23)          51.1032         estimate D2E/DX2                !
 ! D66   D(9,12,15,35)         180.0            estimate D2E/DX2                !
 ! D67   D(36,12,15,23)        180.0            estimate D2E/DX2                !
 ! D68   D(36,12,15,35)        -51.1032         estimate D2E/DX2                !
 ! D69   D(10,13,22,3)         -51.1032         estimate D2E/DX2                !
 ! D70   D(10,13,22,16)        180.0            estimate D2E/DX2                !
 ! D71   D(44,13,22,3)         180.0            estimate D2E/DX2                !
 ! D72   D(44,13,22,16)         51.1032         estimate D2E/DX2                !
 ! D73   D(10,13,44,14)         51.1032         estimate D2E/DX2                !
 ! D74   D(10,13,44,17)        180.0            estimate D2E/DX2                !
 ! D75   D(22,13,44,14)       -180.0            estimate D2E/DX2                !
 ! D76   D(22,13,44,17)        -51.1032         estimate D2E/DX2                !
 ! D77   D(11,14,23,15)         51.1032         estimate D2E/DX2                !
 ! D78   D(11,14,23,18)        180.0            estimate D2E/DX2                !
 ! D79   D(44,14,23,15)        180.0            estimate D2E/DX2                !
 ! D80   D(44,14,23,18)        -51.1032         estimate D2E/DX2                !
 ! D81   D(11,14,44,13)        -51.1032         estimate D2E/DX2                !
 ! D82   D(11,14,44,17)        180.0            estimate D2E/DX2                !
 ! D83   D(23,14,44,13)       -180.0            estimate D2E/DX2                !
 ! D84   D(23,14,44,17)         51.1032         estimate D2E/DX2                !
 ! D85   D(12,15,23,14)        -51.1032         estimate D2E/DX2                !
 ! D86   D(12,15,23,18)        180.0            estimate D2E/DX2                !
 ! D87   D(35,15,23,14)        180.0            estimate D2E/DX2                !
 ! D88   D(35,15,23,18)         51.1032         estimate D2E/DX2                !
 ! D89   D(24,16,22,3)          51.1032         estimate D2E/DX2                !
 ! D90   D(24,16,22,13)        180.0            estimate D2E/DX2                !
 ! D91   D(25,16,22,3)         180.0            estimate D2E/DX2                !
 ! D92   D(25,16,22,13)        -51.1032         estimate D2E/DX2                !
 ! D93   D(22,16,24,4)         -51.1032         estimate D2E/DX2                !
 ! D94   D(22,16,24,19)        180.0            estimate D2E/DX2                !
 ! D95   D(25,16,24,4)         180.0            estimate D2E/DX2                !
 ! D96   D(25,16,24,19)         51.1032         estimate D2E/DX2                !
 ! D97   D(22,16,25,17)         51.1032         estimate D2E/DX2                !
 ! D98   D(22,16,25,20)        180.0            estimate D2E/DX2                !
 ! D99   D(24,16,25,17)        180.0            estimate D2E/DX2                !
 ! D100  D(24,16,25,20)        -51.1032         estimate D2E/DX2                !
 ! D101  D(26,17,25,16)       -180.0            estimate D2E/DX2                !
 ! D102  D(26,17,25,20)         51.1032         estimate D2E/DX2                !
 ! D103  D(44,17,25,16)        -51.1032         estimate D2E/DX2                !
 ! D104  D(44,17,25,20)        180.0            estimate D2E/DX2                !
 ! D105  D(25,17,26,18)        180.0            estimate D2E/DX2                !
 ! D106  D(25,17,26,21)        -51.1032         estimate D2E/DX2                !
 ! D107  D(44,17,26,18)         51.1032         estimate D2E/DX2                !
 ! D108  D(44,17,26,21)        180.0            estimate D2E/DX2                !
 ! D109  D(25,17,44,13)         51.1032         estimate D2E/DX2                !
 ! D110  D(25,17,44,14)        180.0            estimate D2E/DX2                !
 ! D111  D(26,17,44,13)        180.0            estimate D2E/DX2                !
 ! D112  D(26,17,44,14)        -51.1032         estimate D2E/DX2                !
 ! D113  D(26,18,23,14)         51.1032         estimate D2E/DX2                !
 ! D114  D(26,18,23,15)        180.0            estimate D2E/DX2                !
 ! D115  D(34,18,23,14)        180.0            estimate D2E/DX2                !
 ! D116  D(34,18,23,15)        -51.1032         estimate D2E/DX2                !
 ! D117  D(23,18,26,17)        -51.1032         estimate D2E/DX2                !
 ! D118  D(23,18,26,21)        180.0            estimate D2E/DX2                !
 ! D119  D(34,18,26,17)        180.0            estimate D2E/DX2                !
 ! D120  D(34,18,26,21)         51.1032         estimate D2E/DX2                !
 ! D121  D(27,19,24,4)          51.1032         estimate D2E/DX2                !
 ! D122  D(27,19,24,16)        180.0            estimate D2E/DX2                !
 ! D123  D(28,19,24,4)         180.0            estimate D2E/DX2                !
 ! D124  D(28,19,24,16)        -51.1032         estimate D2E/DX2                !
 ! D125  D(24,19,27,5)         -51.1032         estimate D2E/DX2                !
 ! D126  D(24,19,27,30)        180.0            estimate D2E/DX2                !
 ! D127  D(28,19,27,5)         180.0            estimate D2E/DX2                !
 ! D128  D(28,19,27,30)         51.1032         estimate D2E/DX2                !
 ! D129  D(24,19,28,20)         51.1032         estimate D2E/DX2                !
 ! D130  D(24,19,28,31)        180.0            estimate D2E/DX2                !
 ! D131  D(27,19,28,20)        180.0            estimate D2E/DX2                !
 ! D132  D(27,19,28,31)        -51.1032         estimate D2E/DX2                !
 ! D133  D(28,20,25,16)         51.1032         estimate D2E/DX2                !
 ! D134  D(28,20,25,17)        180.0            estimate D2E/DX2                !
 ! D135  D(29,20,25,16)        180.0            estimate D2E/DX2                !
 ! D136  D(29,20,25,17)        -51.1032         estimate D2E/DX2                !
 ! D137  D(25,20,28,19)        -51.1032         estimate D2E/DX2                !
 ! D138  D(25,20,28,31)        180.0            estimate D2E/DX2                !
 ! D139  D(29,20,28,19)       -180.0            estimate D2E/DX2                !
 ! D140  D(29,20,28,31)         51.1032         estimate D2E/DX2                !
 ! D141  D(25,20,29,21)         51.1032         estimate D2E/DX2                !
 ! D142  D(25,20,29,32)        180.0            estimate D2E/DX2                !
 ! D143  D(28,20,29,21)        180.0            estimate D2E/DX2                !
 ! D144  D(28,20,29,32)        -51.1032         estimate D2E/DX2                !
 ! D145  D(29,21,26,17)         51.1032         estimate D2E/DX2                !
 ! D146  D(29,21,26,18)       -180.0            estimate D2E/DX2                !
 ! D147  D(33,21,26,17)        180.0            estimate D2E/DX2                !
 ! D148  D(33,21,26,18)        -51.1032         estimate D2E/DX2                !
 ! D149  D(26,21,29,20)        -51.1032         estimate D2E/DX2                !
 ! D150  D(26,21,29,32)        180.0            estimate D2E/DX2                !
 ! D151  D(33,21,29,20)        180.0            estimate D2E/DX2                !
 ! D152  D(33,21,29,32)         51.1032         estimate D2E/DX2                !
 --------------------------------------------------------------------------------
 Trust Radius=3.00D-01 FncErr=1.00D-07 GrdErr=1.00D-07
 Number of steps in this run=    264 maximum allowed number of steps=    264.
 GradGradGradGradGradGradGradGradGradGradGradGradGradGradGradGradGradGrad

                          Input orientation:                          
 ---------------------------------------------------------------------
 Center     Atomic      Atomic             Coordinates (Angstroms)
 Number     Number       Type             X           Y           Z
 ---------------------------------------------------------------------
      1          6           0        0.176948    1.023714    2.994967
      2          6           0        1.434948    0.297407    2.577810
      3          6           0        2.692948    1.023714    2.994967
      4          6           0        5.208948    1.023714    2.994967
      5          6           0        7.724948    1.023714    2.994967
      6          6           0        3.950948    0.297407    2.577810
      7          6           0        6.466948    0.297407    2.577810
      8          6           0       -1.081052    3.202634    2.994967
      9          6           0       -2.339052    5.381554    2.994967
     10          6           0        0.176948    2.476327    2.577810
     11          6           0       -1.081052    4.655247    2.577810
     12          6           0       -2.339052    6.834167    2.577810
     13          6           0        1.434948    3.202634    2.994967
     14          6           0        0.176948    5.381554    2.994967
     15          6           0       -1.081052    7.560474    2.994967
     16          6           0        3.950948    3.202634    2.994967
     17          6           0        2.692948    5.381554    2.994967
     18          6           0        1.434948    7.560474    2.994967
     19          6           0        6.466948    3.202634    2.994967
     20          6           0        5.208948    5.381554    2.994967
     21          6           0        3.950948    7.560474    2.994967
     22          6           0        2.692948    2.476327    2.577810
     23          6           0        0.176948    6.834167    2.577810
     24          6           0        5.208948    2.476327    2.577810
     25          6           0        3.950948    4.655247    2.577810
     26          6           0        2.692948    6.834167    2.577810
     27          6           0        7.724948    2.476327    2.577810
     28          6           0        6.466948    4.655247    2.577810
     29          6           0        5.208948    6.834167    2.577810
     30          1           0        8.615597    2.990544    2.873152
     31          1           0        7.357597    5.169464    2.873152
     32          1           0        6.099597    7.348383    2.873152
     33          1           0        3.950948    8.588906    2.699625
     34          1           0        1.434948    8.588906    2.699625
     35          1           0       -1.081052    8.588906    2.699625
     36          1           0       -3.229701    7.348383    2.873152
     37          1           0       -3.229701    4.867338    2.699625
     38          1           0       -1.971701    2.688418    2.699625
     39          1           0       -0.713701    0.509498    2.699625
     40          1           0        1.434948   -0.731025    2.873152
     41          1           0        3.950948   -0.731025    2.873152
     42          1           0        6.495217   -0.604546    3.152772
     43          1           0        8.373408    0.350713    3.515994
     44         76           0        1.434948    4.655247    2.577810
 ---------------------------------------------------------------------
                    Distance matrix (angstroms):
                    1          2          3          4          5
     1  C    0.000000
     2  C    1.511326   0.000000
     3  C    2.516000   1.511326   0.000000
     4  C    5.032000   3.865827   2.516000   0.000000
     5  C    7.548000   6.345521   5.032000   2.516000   0.000000
     6  C    3.865827   2.516000   1.511326   1.511326   3.865827
     7  C    6.345521   5.032000   3.865827   1.511326   1.511326
     8  C    2.516000   3.865827   4.357840   6.656710   9.071567
     9  C    5.032000   6.345521   6.656710   8.715680  10.966990
    10  C    1.511326   2.516000   2.935023   5.254058   7.697818
    11  C    3.865827   5.032000   5.254058   7.275036   9.534552
    12  C    6.345521   7.548000   7.697818   9.534552  11.628391
    13  C    2.516000   2.935023   2.516000   4.357840   6.656710
    14  C    4.357840   5.254058   5.032000   6.656710   8.715680
    15  C    6.656710   7.697818   7.548000   9.071567  10.966990
    16  C    4.357840   3.865827   2.516000   2.516000   4.357840
    17  C    5.032000   5.254058   4.357840   5.032000   6.656710
    18  C    6.656710   7.275036   6.656710   7.548000   9.071567
    19  C    6.656710   5.825409   4.357840   2.516000   2.516000
    20  C    6.656710   6.345521   5.032000   4.357840   5.032000
    21  C    7.548000   7.697818   6.656710   6.656710   7.548000
    22  C    2.935023   2.516000   1.511326   2.935023   5.254058
    23  C    5.825409   6.656710   6.345521   7.697818   9.534552
    24  C    5.254058   4.357840   2.935023   1.511326   2.935023
    25  C    5.254058   5.032000   3.865827   3.865827   5.254058
    26  C    6.345521   6.656710   5.825409   6.345521   7.697818
    27  C    7.697818   6.656710   5.254058   2.935023   1.511326
    28  C    7.275036   6.656710   5.254058   3.865827   3.865827
    29  C    7.697818   7.548000   6.345521   5.825409   6.345521
    30  H    8.665682   7.674759   6.241877   3.935545   2.162524
    31  H    8.292394   7.674759   6.241877   4.671056   4.163775
    32  H    8.665682   8.459458   7.184813   6.388234   6.531313
    33  H    8.459458   8.665682   7.674759   7.674759   8.459458
    34  H    7.674759   8.292394   7.674759   8.459458   9.842940
    35  H    7.674759   8.665682   8.459458   9.842940  11.613139
    36  H    7.184813   8.459458   8.665682  10.546425  12.649925
    37  H    5.144504   6.531313   7.066713   9.277471  11.613139
    38  H    2.734073   4.163775   4.961594   7.377003   9.842940
    39  H    1.070000   2.162524   3.457875   5.952261   8.459458
    40  H    2.162524   1.070000   2.162524   4.163775   6.531313
    41  H    4.163775   2.734073   2.162524   2.162524   4.163775
    42  H    6.526612   5.172082   4.139249   2.081015   2.046551
    43  H    8.240531   7.001804   5.743868   3.276920   1.070000
    44  Os   3.865827   4.357840   3.865827   5.254058   7.275036
                    6          7          8          9         10
     6  C    0.000000
     7  C    2.516000   0.000000
     8  C    5.825409   8.098559   0.000000
     9  C    8.098559  10.176846   2.516000   0.000000
    10  C    4.357840   6.656710   1.511326   3.865827   0.000000
    11  C    6.656710   8.715680   1.511326   1.511326   2.516000
    12  C    9.071567  10.966990   3.865827   1.511326   5.032000
    13  C    3.865827   5.825409   2.516000   4.357840   1.511326
    14  C    6.345521   8.098559   2.516000   2.516000   2.935023
    15  C    8.845743  10.483246   4.357840   2.516000   5.254058
    16  C    2.935023   3.865827   5.032000   6.656710   3.865827
    17  C    5.254058   6.345521   4.357840   5.032000   3.865827
    18  C    7.697818   8.845743   5.032000   4.357840   5.254058
    19  C    3.865827   2.935023   7.548000   9.071567   6.345521
    20  C    5.254058   5.254058   6.656710   7.548000   5.825409
    21  C    7.275036   7.697818   6.656710   6.656710   6.345521
    22  C    2.516000   4.357840   3.865827   5.825409   2.516000
    23  C    7.548000   9.071567   3.865827   2.935023   4.357840
    24  C    2.516000   2.516000   6.345521   8.098559   5.032000
    25  C    4.357840   5.032000   5.254058   6.345521   4.357840
    26  C    6.656710   7.548000   5.254058   5.254058   5.032000
    27  C    4.357840   2.516000   8.845743  10.483246   7.548000
    28  C    5.032000   4.357840   7.697818   8.845743   6.656710
    29  C    6.656710   6.656710   7.275036   7.697818   6.656710
    30  H    5.394363   3.457875   9.699733  11.213211   8.459458
    31  H    5.952261   4.961594   8.665682   9.699733   7.674759
    32  H    7.377003   7.066713   8.292394   8.665682   7.674759
    33  H    8.292394   8.665682   7.377003   7.066713   7.184813
    34  H    8.665682   9.699733   5.952261   4.961594   6.241877
    35  H    9.699733  11.213211   5.394363   3.457875   6.241877
    36  H   10.068029  11.992851   4.671056   2.162524   5.952261
    37  H    8.512392  10.720266   2.734073   1.070000   4.163775
    38  H    6.388234   8.771691   1.070000   2.734073   2.162524
    39  H    4.671056   7.184813   2.734073   5.144504   2.162524
    40  H    2.734073   5.144504   4.671056   7.184813   3.457875
    41  H    1.070000   2.734073   6.388234   8.771691   4.961594
    42  H    2.759965   1.070000   8.480529  10.672516   7.052864
    43  H    4.521192   2.125469   9.888970  11.846418   8.519412
    44  Os   5.032000   6.656710   2.935023   3.865827   2.516000
                   11         12         13         14         15
    11  C    0.000000
    12  C    2.516000   0.000000
    13  C    2.935023   5.254058   0.000000
    14  C    1.511326   2.935023   2.516000   0.000000
    15  C    2.935023   1.511326   5.032000   2.516000   0.000000
    16  C    5.254058   7.275036   2.516000   4.357840   6.656710
    17  C    3.865827   5.254058   2.516000   2.516000   4.357840
    18  C    3.865827   3.865827   4.357840   2.516000   2.516000
    19  C    7.697818   9.534552   5.032000   6.656710   8.715680
    20  C    6.345521   7.697818   4.357840   5.032000   6.656710
    21  C    5.825409   6.345521   5.032000   4.357840   5.032000
    22  C    4.357840   6.656710   1.511326   3.865827   6.345521
    23  C    2.516000   2.516000   3.865827   1.511326   1.511326
    24  C    6.656710   8.715680   3.865827   5.825409   8.098559
    25  C    5.032000   6.656710   2.935023   3.865827   5.825409
    26  C    4.357840   5.032000   3.865827   2.935023   3.865827
    27  C    9.071567  10.966990   6.345521   8.098559  10.176846
    28  C    7.548000   9.071567   5.254058   6.345521   8.098559
    29  C    6.656710   7.548000   5.254058   5.254058   6.345521
    30  H    9.842940  11.613139   7.184813   8.771691  10.720266
    31  H    8.459458   9.842940   6.241877   7.184813   8.771691
    32  H    7.674759   8.459458   6.241877   6.241877   7.184813
    33  H    6.388234   6.531313   5.952261   4.961594   5.144504
    34  H    4.671056   4.163775   5.394363   3.457875   2.734073
    35  H    3.935545   2.162524   5.952261   3.457875   1.070000
    36  H    3.457875   1.070000   6.241877   3.935545   2.162524
    37  H    2.162524   2.162524   4.961594   3.457875   3.457875
    38  H    2.162524   4.163775   3.457875   3.457875   4.961594
    39  H    4.163775   6.531313   3.457875   4.961594   7.066713
    40  H    5.952261   8.459458   3.935545   6.241877   8.665682
    41  H    7.377003   9.842940   4.671056   7.184813   9.699733
    42  H    9.240988  11.563276   6.334497   8.705103  11.139673
    43  H   10.430533  12.556757   7.519784   9.631344  11.901215
    44  Os   2.516000   4.357840   1.511326   1.511326   3.865827
                   16         17         18         19         20
    16  C    0.000000
    17  C    2.516000   0.000000
    18  C    5.032000   2.516000   0.000000
    19  C    2.516000   4.357840   6.656710   0.000000
    20  C    2.516000   2.516000   4.357840   2.516000   0.000000
    21  C    4.357840   2.516000   2.516000   5.032000   2.516000
    22  C    1.511326   2.935023   5.254058   3.865827   3.865827
    23  C    5.254058   2.935023   1.511326   7.275036   5.254058
    24  C    1.511326   3.865827   6.345521   1.511326   2.935023
    25  C    1.511326   1.511326   3.865827   2.935023   1.511326
    26  C    3.865827   1.511326   1.511326   5.254058   2.935023
    27  C    3.865827   5.825409   8.098559   1.511326   3.865827
    28  C    2.935023   3.865827   5.825409   1.511326   1.511326
    29  C    3.865827   2.935023   3.865827   3.865827   1.511326
    30  H    4.671056   6.388234   8.512392   2.162524   4.163775
    31  H    3.935545   4.671056   6.388234   2.162524   2.162524
    32  H    4.671056   3.935545   4.671056   4.163775   2.162524
    33  H    5.394363   3.457875   2.734073   5.952261   3.457875
    34  H    5.952261   3.457875   1.070000   7.377003   4.961594
    35  H    7.377003   4.961594   2.734073   9.277471   7.066713
    36  H    8.292394   6.241877   4.671056  10.546425   8.665682
    37  H    7.377003   5.952261   5.394363   9.842940   8.459458
    38  H    5.952261   5.394363   5.952261   8.459458   7.674759
    39  H    5.394363   5.952261   7.377003   7.674759   7.674759
    40  H    4.671056   6.241877   8.292394   6.388234   7.184813
    41  H    3.935545   6.241877   8.665682   4.671056   6.241877
    42  H    4.581793   7.093345   9.607225   3.810554   6.124768
    43  H    5.288012   7.605817  10.019698   3.469800   5.966124
    44  Os   2.935023   1.511326   2.935023   5.254058   3.865827
                   21         22         23         24         25
    21  C    0.000000
    22  C    5.254058   0.000000
    23  C    3.865827   5.032000   0.000000
    24  C    5.254058   2.516000   6.656710   0.000000
    25  C    2.935023   2.516000   4.357840   2.516000   0.000000
    26  C    1.511326   4.357840   2.516000   5.032000   2.516000
    27  C    6.345521   5.032000   8.715680   2.516000   4.357840
    28  C    3.865827   4.357840   6.656710   2.516000   2.516000
    29  C    1.511326   5.032000   5.032000   4.357840   2.516000
    30  H    6.531313   5.952261   9.277471   3.457875   4.961594
    31  H    4.163775   5.394363   7.377003   3.457875   3.457875
    32  H    2.162524   5.952261   5.952261   4.961594   3.457875
    33  H    1.070000   6.241877   4.163775   6.241877   3.935545
    34  H    2.734073   6.241877   2.162524   7.184813   4.671056
    35  H    5.144504   7.184813   2.162524   8.771691   6.388234
    36  H    7.184813   7.674759   3.457875   9.748587   7.674759
    37  H    7.674759   6.388234   3.935545   8.771691   7.184813
    38  H    7.674759   4.671056   4.671056   7.184813   6.241877
    39  H    8.459458   3.935545   6.388234   6.241877   6.241877
    40  H    8.665682   3.457875   7.674759   4.961594   5.952261
    41  H    8.292394   3.457875   8.459458   3.457875   5.394363
    42  H    8.553698   4.927435   9.776787   3.387750   5.871057
    43  H    8.474094   6.137267  10.492727   3.925841   6.242384
    44  Os   3.865827   2.516000   2.516000   4.357840   2.516000
                   26         27         28         29         30
    26  C    0.000000
    27  C    6.656710   0.000000
    28  C    4.357840   2.516000   0.000000
    29  C    2.516000   5.032000   2.516000   0.000000
    30  H    7.066713   1.070000   2.734073   5.144504   0.000000
    31  H    4.961594   2.734073   1.070000   2.734073   2.516000
    32  H    3.457875   5.144504   2.734073   1.070000   5.032000
    33  H    2.162524   7.184813   4.671056   2.162524   7.289082
    34  H    2.162524   8.771691   6.388234   4.163775   9.106783
    35  H    4.163775  10.720266   8.512392   6.531313  11.198070
    36  H    5.952261  11.992851  10.068029   8.459458  12.621483
    37  H    6.241877  11.213211   9.699733   8.665682  11.994313
    38  H    6.241877   9.699733   8.665682   8.292394  10.593029
    39  H    7.184813   8.665682   8.292394   8.665682   9.655127
    40  H    7.674759   7.066713   7.377003   8.459458   8.087755
    41  H    7.674759   4.961594   5.952261   7.674759   5.967329
    42  H    8.373905   3.366689   5.291201   7.570966   4.183164
    43  H    8.670812   2.412245   4.800395   7.275244   2.727747
    44  Os   2.516000   6.656710   5.032000   4.357840   7.377003
                   31         32         33         34         35
    31  H    0.000000
    32  H    2.516000   0.000000
    33  H    4.829902   2.487107   0.000000
    34  H    6.841087   4.829902   2.516000   0.000000
    35  H    9.106783   7.289082   5.032000   2.516000   0.000000
    36  H   10.809188   9.329297   7.289082   4.829902   2.487107
    37  H   10.593029   9.655127   8.087755   5.967329   4.297297
    38  H    9.655127   9.321547   8.360235   6.813297   5.967329
    39  H    9.321547   9.655127   9.329297   8.360235   8.087755
    40  H    8.360235   9.329297   9.655127   9.321547   9.655127
    41  H    6.813297   8.360235   9.321547   9.655127  10.593029
    42  H    5.844747   7.967671   9.549775  10.503867  11.921609
    43  H    4.966435   7.385855   9.385757  10.801690  12.566666
    44  Os   5.952261   5.394363   4.671056   3.935545   4.671056
                   36         37         38         39         40
    36  H    0.000000
    37  H    2.487107   0.000000
    38  H    4.829902   2.516000   0.000000
    39  H    7.289082   5.032000   2.516000   0.000000
    40  H    9.329297   7.289082   4.829902   2.487107   0.000000
    41  H   10.809188   9.106783   6.841087   4.829902   2.516000
    42  H   12.565878  11.167850   9.096024   7.308552   5.069567
    43  H   13.565130  12.477920  10.637321   9.125087   7.051640
    44  Os   5.394363   4.671056   3.935545   4.671056   5.394363
                   41         42         43         44
    41  H    0.000000
    42  H    2.562712   0.000000
    43  H    4.597995   2.138235   0.000000
    44  Os   5.952261   7.321361   8.218967   0.000000
 Stoichiometry    C29H14Os
 Framework group  C1[X(C29H14Os)]
 Deg. of freedom   126
 Full point group                 C1      NOp   1
 Largest Abelian subgroup         C1      NOp   1
 Largest concise Abelian subgroup C1      NOp   1
                         Standard orientation:                         
 ---------------------------------------------------------------------
 Center     Atomic      Atomic             Coordinates (Angstroms)
 Number     Number       Type             X           Y           Z
 ---------------------------------------------------------------------
      1          6           0       -0.335540   -3.773988    0.258942
      2          6           0        1.114177   -3.772415   -0.168168
      3          6           0        1.842270   -2.514144    0.245036
      4          6           0        4.020080   -1.254300    0.231130
      5          6           0        6.197890    0.005544    0.217224
      6          6           0        3.291987   -2.512571   -0.182074
      7          6           0        5.469797   -1.252727   -0.195980
      8          6           0       -2.515466   -2.517834    0.274927
      9          6           0       -4.695392   -1.261679    0.290913
     10          6           0       -1.065749   -2.516261   -0.152183
     11          6           0       -3.245675   -1.260107   -0.136197
     12          6           0       -5.425601   -0.003953   -0.120212
     13          6           0       -0.337656   -1.257989    0.261022
     14          6           0       -2.517582   -0.001835    0.277007
     15          6           0       -4.697508    1.254319    0.292992
     16          6           0        1.840154    0.001855    0.247116
     17          6           0       -0.339772    1.258009    0.263101
     18          6           0       -2.519698    2.514163    0.279087
     19          6           0        4.017964    1.261699    0.233210
     20          6           0        1.838038    2.517853    0.249195
     21          6           0       -0.341888    3.774007    0.265181
     22          6           0        1.112061   -1.256417   -0.166089
     23          6           0       -3.247791    1.255891   -0.134118
     24          6           0        3.289871    0.003427   -0.179995
     25          6           0        1.109945    1.259581   -0.164009
     26          6           0       -1.069981    2.515735   -0.148024
     27          6           0        5.467681    1.263271   -0.193900
     28          6           0        3.287755    2.519425   -0.177915
     29          6           0        1.107829    3.775579   -0.161930
     30          1           0        5.983161    2.154112    0.098643
     31          1           0        3.803235    3.410266    0.114629
     32          1           0        1.623310    4.666420    0.130614
     33          1           0       -0.858867    4.664462   -0.025891
     34          1           0       -3.036677    3.404618   -0.011985
     35          1           0       -5.214487    2.144774    0.001921
     36          1           0       -6.451983   -0.005066    0.182177
     37          1           0       -5.210873   -2.152520   -0.001631
     38          1           0       -3.030947   -3.408675   -0.017616
     39          1           0       -0.851021   -4.664829   -0.033602
     40          1           0        1.631156   -4.662870    0.122903
     41          1           0        3.808966   -3.403026    0.108997
     42          1           0        5.949833   -2.019776    0.375073
     43          1           0        7.099743   -0.252729    0.731866
     44         76           0       -1.067865   -0.000263   -0.150103
 ---------------------------------------------------------------------
 Rotational constants (GHZ):      0.2984078      0.1250267      0.0887810
 Standard basis: VSTO-6G (5D, 7F)
 There are   140 symmetry adapted cartesian basis functions of A   symmetry.
 There are   139 symmetry adapted basis functions of A   symmetry.
   139 basis functions,   840 primitive gaussians,   140 cartesian basis functions
    69 alpha electrons       69 beta electrons
       nuclear repulsion energy      1312.4190856837 Hartrees.
 Integral buffers will be    262144 words long.
 Regular integral format.
 Two-electron integral symmetry is turned off.
 Do NDO integrals.
 One-electron integrals computed using PRISM.
 NBasis=   139 RedAO= F EigKep=  0.00D+00  NBF=   139
 NBsUse=   139 1.00D-04 EigRej=  0.00D+00 NBFU=   139
 Simple Huckel Guess.
 Keep J ints in memory in canonical form, NReq=2092071.
 Gradient too large for Newton-Raphson -- use scaled steepest descent instead.
 Gradient too large for Newton-Raphson -- use scaled steepest descent instead.
     Accept linear search using points  3 and  4.
 Gradient too large for Newton-Raphson -- use scaled steepest descent instead.
     Accept linear search using points  2 and  3.
 Gradient too large for Newton-Raphson -- use scaled steepest descent instead.
     Accept linear search using points  1 and  2.
     Minimum is close to point  2 DX= -4.37D-02 DF= -1.01D-04 DXR=  4.13D-02 DFR=  2.02D-03 which will be used.
 Gradient too large for Newton-Raphson -- use scaled steepest descent instead.
     Accept linear search using points  1 and  2.
     Minimum is close to point  2 DX= -8.59D-02 DF= -2.45D-04 DXR=  8.47D-02 DFR=  8.60D-03 which will be used.
 Gradient too large for Newton-Raphson -- use scaled steepest descent instead.
     Accept linear search using points  1 and  2.
     Minimum is close to point  2 DX= -5.74D-02 DF= -6.49D-05 DXR=  6.09D-02 DFR=  3.76D-03 which will be used.
 Gradient too large for Newton-Raphson -- use scaled steepest descent instead.
     Minimum is close to point  2 DX=  2.36D-02 DF= -5.56D-06 DXR=  2.31D-02 DFR=  5.34D-04 which will be used.
 Gradient too large for Newton-Raphson -- use scaled steepest descent instead.
 Gradient too large for Newton-Raphson -- use scaled steepest descent instead.
     Accept linear search using points  1 and  2.
 Gradient too large for Newton-Raphson -- use scaled steepest descent instead.
     Accept linear search using points  1 and  2.
     Minimum is close to point  2 DX= -3.42D-03 DF= -4.40D-08 DXR=  3.12D-03 DFR=  1.17D-05 which will be used.
 Gradient too large for Newton-Raphson -- use scaled steepest descent instead.
     Minimum is close to point  2 DX=  1.77D-02 DF= -9.06D-07 DXR=  1.74D-02 DFR=  3.02D-04 which will be used.
 Gradient too large for Newton-Raphson -- use scaled steepest descent instead.
     Minimum is close to point  2 DX=  5.47D-02 DF= -5.60D-06 DXR=  4.73D-02 DFR=  2.25D-03 which will be used.
 Gradient too large for Newton-Raphson -- use scaled steepest descent instead.
     Accept linear search using points  1 and  2.
     Minimum is close to point  2 DX= -1.96D-02 DF= -8.24D-07 DXR=  1.81D-02 DFR=  3.92D-04 which will be used.
 Gradient too large for Newton-Raphson -- use scaled steepest descent instead.
     Accept linear search using points  1 and  2.
     Minimum is close to point  2 DX= -8.15D-02 DF= -1.34D-05 DXR=  8.01D-02 DFR=  7.53D-03 which will be used.
 Gradient too large for Newton-Raphson -- use scaled steepest descent instead.
     Accept linear search using points  1 and  2.
     Minimum is close to point  2 DX= -6.72D-02 DF= -8.22D-06 DXR=  7.21D-02 DFR=  5.23D-03 which will be used.
 Gradient too large for Newton-Raphson -- use scaled steepest descent instead.
     Minimum is close to point  2 DX=  3.07D-02 DF= -1.18D-06 DXR=  2.97D-02 DFR=  8.86D-04 which will be used.
 Gradient too large for Newton-Raphson -- use scaled steepest descent instead.
 Gradient too large for Newton-Raphson -- use scaled steepest descent instead.
     Accept linear search using points  1 and  2.
 Gradient too large for Newton-Raphson -- use scaled steepest descent instead.
     Accept linear search using points  1 and  2.
     Minimum is close to point  2 DX= -3.50D-03 DF= -1.07D-08 DXR=  3.19D-03 DFR=  1.22D-05 which will be used.
 Gradient too large for Newton-Raphson -- use scaled steepest descent instead.
     Minimum is close to point  2 DX= -6.45D-05 DF= -3.20D-12 DXR=  6.45D-05 DFR=  4.16D-09 which will be used.
 Gradient too large for Newton-Raphson -- use scaled steepest descent instead.
     Minimum is close to point  2 DX=  1.11D-01 DF= -6.72D-06 DXR=  9.99D-02 DFR=  1.01D-02 which will be used.
 Gradient too large for Newton-Raphson -- use scaled steepest descent instead.
 Gradient too large for Newton-Raphson -- use scaled steepest descent instead.
     Accept linear search using points  1 and  2.
 Gradient too large for Newton-Raphson -- use scaled steepest descent instead.
     Accept linear search using points  1 and  2.
     Minimum is close to point  2 DX= -3.25D-02 DF= -5.01D-07 DXR=  3.04D-02 DFR=  1.10D-03 which will be used.
 Gradient too large for Newton-Raphson -- use scaled steepest descent instead.
     Accept linear search using points  1 and  2.
     Minimum is close to point  2 DX= -2.46D-02 DF= -2.61D-07 DXR=  2.53D-02 DFR=  6.38D-04 which will be used.
 Gradient too large for Newton-Raphson -- use scaled steepest descent instead.
     Minimum is close to point  2 DX=  7.91D-02 DF= -1.94D-06 DXR=  7.33D-02 DFR=  5.40D-03 which will be used.
 Gradient too large for Newton-Raphson -- use scaled steepest descent instead.
 Gradient too large for Newton-Raphson -- use scaled steepest descent instead.
     Accept linear search using points  1 and  2.
 Gradient too large for Newton-Raphson -- use scaled steepest descent instead.
     Minimum is close to point  2 DX=  3.75D-02 DF= -2.83D-07 DXR=  3.30D-02 DFR=  1.09D-03 which will be used.
 Gradient too large for Newton-Raphson -- use scaled steepest descent instead.
     Minimum is close to point  2 DX=  4.35D-02 DF= -4.02D-07 DXR=  4.17D-02 DFR=  1.74D-03 which will be used.
 LinEq1:  Iter=  0 NonCon=     1 RMS=3.45D-04 Max=1.99D-02 NDo=     1
 AX will form     1 AO Fock derivatives at one time.
 LinEq1:  Iter=  1 NonCon=     1 RMS=2.42D-04 Max=4.80D-03 NDo=     1
 LinEq1:  Iter=  2 NonCon=     1 RMS=4.89D-05 Max=8.48D-04 NDo=     1
 LinEq1:  Iter=  3 NonCon=     1 RMS=1.31D-05 Max=2.99D-04 NDo=     1
 LinEq1:  Iter=  4 NonCon=     1 RMS=6.34D-06 Max=1.26D-04 NDo=     1
 LinEq1:  Iter=  5 NonCon=     1 RMS=3.06D-06 Max=4.27D-05 NDo=     1
 LinEq1:  Iter=  6 NonCon=     1 RMS=1.72D-06 Max=3.48D-05 NDo=     1
 LinEq1:  Iter=  7 NonCon=     1 RMS=5.87D-07 Max=9.56D-06 NDo=     1
 LinEq1:  Iter=  8 NonCon=     1 RMS=2.32D-07 Max=4.43D-06 NDo=     1
 LinEq1:  Iter=  9 NonCon=     1 RMS=7.90D-08 Max=8.73D-07 NDo=     1
 LinEq1:  Iter= 10 NonCon=     1 RMS=2.63D-08 Max=4.08D-07 NDo=     1
 LinEq1:  Iter= 11 NonCon=     1 RMS=9.22D-09 Max=1.75D-07 NDo=     1
 LinEq1:  Iter= 12 NonCon=     0 RMS=2.85D-09 Max=5.03D-08 NDo=     1
 Linear equations converged to 9.829D-09 9.829D-08 after    12 iterations.
     Accept linear search using points  1 and  2.
     Minimum is close to point  2 DX= -6.40D-02 DF= -1.10D-05 DXR=  6.84D-02 DFR=  5.17D-03 which will be used.
 LinEq1:  Iter=  0 NonCon=     1 RMS=1.68D-04 Max=3.43D-03 NDo=     1
 LinEq1:  Iter=  1 NonCon=     1 RMS=1.12D-04 Max=2.75D-03 NDo=     1
 LinEq1:  Iter=  2 NonCon=     1 RMS=5.07D-05 Max=1.08D-03 NDo=     1
 LinEq1:  Iter=  3 NonCon=     1 RMS=2.78D-05 Max=9.62D-04 NDo=     1
 LinEq1:  Iter=  4 NonCon=     1 RMS=8.85D-06 Max=2.26D-04 NDo=     1
 LinEq1:  Iter=  5 NonCon=     1 RMS=3.22D-06 Max=4.68D-05 NDo=     1
 LinEq1:  Iter=  6 NonCon=     1 RMS=1.53D-06 Max=3.54D-05 NDo=     1
 LinEq1:  Iter=  7 NonCon=     1 RMS=9.23D-07 Max=2.48D-05 NDo=     1
 LinEq1:  Iter=  8 NonCon=     1 RMS=3.37D-07 Max=5.14D-06 NDo=     1
 LinEq1:  Iter=  9 NonCon=     1 RMS=1.26D-07 Max=1.88D-06 NDo=     1
 LinEq1:  Iter= 10 NonCon=     1 RMS=3.63D-08 Max=5.33D-07 NDo=     1
 LinEq1:  Iter= 11 NonCon=     1 RMS=8.80D-09 Max=1.58D-07 NDo=     1
 LinEq1:  Iter= 12 NonCon=     0 RMS=2.87D-09 Max=4.96D-08 NDo=     1
 Linear equations converged to 9.829D-09 9.829D-08 after    12 iterations.
     Minimum is close to point  2 DX=  2.63D-02 DF= -1.07D-07 DXR=  2.56D-02 DFR=  6.57D-04 which will be used.
 LinEq1:  Iter=  0 NonCon=     1 RMS=4.29D-06 Max=2.33D-04 NDo=     1
 LinEq1:  Iter=  1 NonCon=     1 RMS=1.48D-06 Max=2.87D-05 NDo=     1
 LinEq1:  Iter=  2 NonCon=     1 RMS=1.07D-06 Max=2.51D-05 NDo=     1
 LinEq1:  Iter=  3 NonCon=     1 RMS=4.05D-07 Max=6.54D-06 NDo=     1
 LinEq1:  Iter=  4 NonCon=     1 RMS=1.52D-07 Max=2.50D-06 NDo=     1
 LinEq1:  Iter=  5 NonCon=     1 RMS=5.60D-08 Max=1.71D-06 NDo=     1
 LinEq1:  Iter=  6 NonCon=     1 RMS=1.64D-08 Max=3.76D-07 NDo=     1
 LinEq1:  Iter=  7 NonCon=     1 RMS=5.48D-09 Max=7.90D-08 NDo=     1
 LinEq1:  Iter=  8 NonCon=     1 RMS=3.14D-09 Max=5.40D-08 NDo=     1
 LinEq1:  Iter=  9 NonCon=     1 RMS=1.59D-09 Max=3.03D-08 NDo=     1
 LinEq1:  Iter= 10 NonCon=     0 RMS=5.62D-10 Max=7.84D-09 NDo=     1
 Linear equations converged to 1.066D-09 1.066D-08 after    10 iterations.
     Minimum is close to point  2 DX=  3.37D-03 DF= -3.20D-12 DXR=  3.36D-03 DFR=  1.13D-05 which will be used.
 LinEq1:  Iter=  0 NonCon=     1 RMS=6.25D-08 Max=8.52D-07 NDo=     1
 LinEq1:  Iter=  1 NonCon=     1 RMS=3.32D-08 Max=9.74D-07 NDo=     1
 LinEq1:  Iter=  2 NonCon=     1 RMS=1.57D-08 Max=2.62D-07 NDo=     1
 LinEq1:  Iter=  3 NonCon=     1 RMS=9.16D-09 Max=1.88D-07 NDo=     1
 LinEq1:  Iter=  4 NonCon=     1 RMS=3.38D-09 Max=9.17D-08 NDo=     1
 LinEq1:  Iter=  5 NonCon=     1 RMS=1.36D-09 Max=3.79D-08 NDo=     1
 LinEq1:  Iter=  6 NonCon=     1 RMS=4.73D-10 Max=6.94D-09 NDo=     1
 LinEq1:  Iter=  7 NonCon=     1 RMS=2.01D-10 Max=3.92D-09 NDo=     1
 LinEq1:  Iter=  8 NonCon=     1 RMS=1.19D-10 Max=2.62D-09 NDo=     1
 LinEq1:  Iter=  9 NonCon=     1 RMS=6.69D-11 Max=1.65D-09 NDo=     1
 LinEq1:  Iter= 10 NonCon=     1 RMS=2.02D-11 Max=4.42D-10 NDo=     1
 LinEq1:  Iter= 11 NonCon=     0 RMS=5.15D-12 Max=8.53D-11 NDo=     1
 Linear equations converged to 2.795D-11 2.795D-10 after    11 iterations.
 SCF Done:  E(RPM6) =   1.34038904052     a.u. after   35 cycles
            Convg  =    0.3162D-07                   113 Fock formations.
              S**2 =  0.0000                  -V/T =  1.0140

 **********************************************************************

            Population analysis using the SCF density.

 **********************************************************************

 Orbital symmetries:
       Occupied  (A) (A) (A) (A) (A) (A) (A) (A) (A) (A) (A) (A)
                 (A) (A) (A) (A) (A) (A) (A) (A) (A) (A) (A) (A)
                 (A) (A) (A) (A) (A) (A) (A) (A) (A) (A) (A) (A)
                 (A) (A) (A) (A) (A) (A) (A) (A) (A) (A) (A) (A)
                 (A) (A) (A) (A) (A) (A) (A) (A) (A) (A) (A) (A)
                 (A) (A) (A) (A) (A) (A) (A) (A) (A)
       Virtual   (A) (A) (A) (A) (A) (A) (A) (A) (A) (A) (A) (A)
                 (A) (A) (A) (A) (A) (A) (A) (A) (A) (A) (A) (A)
                 (A) (A) (A) (A) (A) (A) (A) (A) (A) (A) (A) (A)
                 (A) (A) (A) (A) (A) (A) (A) (A) (A) (A) (A) (A)
                 (A) (A) (A) (A) (A) (A) (A) (A) (A) (A) (A) (A)
                 (A) (A) (A) (A) (A) (A) (A) (A) (A) (A)
 The electronic state is 1-A.
 Alpha  occ. eigenvalues --   -1.34617  -1.11651  -1.11529  -1.05470  -1.02328
 Alpha  occ. eigenvalues --   -1.02068  -1.00911  -0.97921  -0.95766  -0.94403
 Alpha  occ. eigenvalues --   -0.93236  -0.91341  -0.89302  -0.87794  -0.86301
 Alpha  occ. eigenvalues --   -0.80175  -0.79138  -0.78369  -0.77070  -0.76860
 Alpha  occ. eigenvalues --   -0.73367  -0.71948  -0.68884  -0.68184  -0.66616
 Alpha  occ. eigenvalues --   -0.64220  -0.60974  -0.60102  -0.59181  -0.57853
 Alpha  occ. eigenvalues --   -0.56373  -0.55594  -0.54874  -0.53918  -0.53449
 Alpha  occ. eigenvalues --   -0.52720  -0.52465  -0.50893  -0.50303  -0.49832
 Alpha  occ. eigenvalues --   -0.49013  -0.48966  -0.48321  -0.47610  -0.47282
 Alpha  occ. eigenvalues --   -0.46914  -0.46693  -0.46152  -0.45996  -0.45251
 Alpha  occ. eigenvalues --   -0.44944  -0.44338  -0.44026  -0.43789  -0.43450
 Alpha  occ. eigenvalues --   -0.42997  -0.41990  -0.41769  -0.40934  -0.40197
 Alpha  occ. eigenvalues --   -0.39506  -0.39067  -0.38734  -0.35577  -0.34768
 Alpha  occ. eigenvalues --   -0.33881  -0.33532  -0.30809  -0.27115
 Alpha virt. eigenvalues --   -0.10720  -0.10007  -0.05271  -0.05191  -0.04851
 Alpha virt. eigenvalues --   -0.04809  -0.03360  -0.02094  -0.01427  -0.00380
 Alpha virt. eigenvalues --   -0.00138   0.00901   0.02438   0.02799   0.05403
 Alpha virt. eigenvalues --    0.06656   0.07057   0.08203   0.10017   0.10291
 Alpha virt. eigenvalues --    0.11260   0.11317   0.11679   0.11706   0.11842
 Alpha virt. eigenvalues --    0.12160   0.12704   0.13255   0.13290   0.13520
 Alpha virt. eigenvalues --    0.13852   0.13874   0.14186   0.14466   0.14568
 Alpha virt. eigenvalues --    0.14875   0.14953   0.15069   0.15155   0.15276
 Alpha virt. eigenvalues --    0.15621   0.15640   0.15716   0.16198   0.16538
 Alpha virt. eigenvalues --    0.16745   0.17298   0.17351   0.18136   0.18168
 Alpha virt. eigenvalues --    0.18336   0.18455   0.18783   0.18929   0.19339
 Alpha virt. eigenvalues --    0.19498   0.19728   0.19846   0.20023   0.20593
 Alpha virt. eigenvalues --    0.21065   0.21110   0.21513   0.21565   0.21695
 Alpha virt. eigenvalues --    0.21732   0.22235   0.22249   0.22368   0.22904
          Condensed to atoms (all electrons):
               1          2          3          4          5          6
     1  C    4.175138   0.000000   0.000000   0.000000   0.000000   0.000000
     2  C    0.000000   4.098106   0.000000   0.000000   0.000000   0.000000
     3  C    0.000000   0.000000   3.991729   0.000000   0.000000   0.000000
     4  C    0.000000   0.000000   0.000000   3.982730   0.000000   0.000000
     5  C    0.000000   0.000000   0.000000   0.000000   4.108298   0.000000
     6  C    0.000000   0.000000   0.000000   0.000000   0.000000   4.140762
     7  C    0.000000   0.000000   0.000000   0.000000   0.000000   0.000000
     8  C    0.000000   0.000000   0.000000   0.000000   0.000000   0.000000
     9  C    0.000000   0.000000   0.000000   0.000000   0.000000   0.000000
    10  C    0.000000   0.000000   0.000000   0.000000   0.000000   0.000000
    11  C    0.000000   0.000000   0.000000   0.000000   0.000000   0.000000
    12  C    0.000000   0.000000   0.000000   0.000000   0.000000   0.000000
    13  C    0.000000   0.000000   0.000000   0.000000   0.000000   0.000000
    14  C    0.000000   0.000000   0.000000   0.000000   0.000000   0.000000
    15  C    0.000000   0.000000   0.000000   0.000000   0.000000   0.000000
    16  C    0.000000   0.000000   0.000000   0.000000   0.000000   0.000000
    17  C    0.000000   0.000000   0.000000   0.000000   0.000000   0.000000
    18  C    0.000000   0.000000   0.000000   0.000000   0.000000   0.000000
    19  C    0.000000   0.000000   0.000000   0.000000   0.000000   0.000000
    20  C    0.000000   0.000000   0.000000   0.000000   0.000000   0.000000
    21  C    0.000000   0.000000   0.000000   0.000000   0.000000   0.000000
    22  C    0.000000   0.000000   0.000000   0.000000   0.000000   0.000000
    23  C    0.000000   0.000000   0.000000   0.000000   0.000000   0.000000
    24  C    0.000000   0.000000   0.000000   0.000000   0.000000   0.000000
    25  C    0.000000   0.000000   0.000000   0.000000   0.000000   0.000000
    26  C    0.000000   0.000000   0.000000   0.000000   0.000000   0.000000
    27  C    0.000000   0.000000   0.000000   0.000000   0.000000   0.000000
    28  C    0.000000   0.000000   0.000000   0.000000   0.000000   0.000000
    29  C    0.000000   0.000000   0.000000   0.000000   0.000000   0.000000
    30  H    0.000000   0.000000   0.000000   0.000000   0.000000   0.000000
    31  H    0.000000   0.000000   0.000000   0.000000   0.000000   0.000000
    32  H    0.000000   0.000000   0.000000   0.000000   0.000000   0.000000
    33  H    0.000000   0.000000   0.000000   0.000000   0.000000   0.000000
    34  H    0.000000   0.000000   0.000000   0.000000   0.000000   0.000000
    35  H    0.000000   0.000000   0.000000   0.000000   0.000000   0.000000
    36  H    0.000000   0.000000   0.000000   0.000000   0.000000   0.000000
    37  H    0.000000   0.000000   0.000000   0.000000   0.000000   0.000000
    38  H    0.000000   0.000000   0.000000   0.000000   0.000000   0.000000
    39  H    0.000000   0.000000   0.000000   0.000000   0.000000   0.000000
    40  H    0.000000   0.000000   0.000000   0.000000   0.000000   0.000000
    41  H    0.000000   0.000000   0.000000   0.000000   0.000000   0.000000
    42  H    0.000000   0.000000   0.000000   0.000000   0.000000   0.000000
    43  H    0.000000   0.000000   0.000000   0.000000   0.000000   0.000000
    44  Os   0.000000   0.000000   0.000000   0.000000   0.000000   0.000000
               7          8          9         10         11         12
     1  C    0.000000   0.000000   0.000000   0.000000   0.000000   0.000000
     2  C    0.000000   0.000000   0.000000   0.000000   0.000000   0.000000
     3  C    0.000000   0.000000   0.000000   0.000000   0.000000   0.000000
     4  C    0.000000   0.000000   0.000000   0.000000   0.000000   0.000000
     5  C    0.000000   0.000000   0.000000   0.000000   0.000000   0.000000
     6  C    0.000000   0.000000   0.000000   0.000000   0.000000   0.000000
     7  C    4.180840   0.000000   0.000000   0.000000   0.000000   0.000000
     8  C    0.000000   3.876180   0.000000   0.000000   0.000000   0.000000
     9  C    0.000000   0.000000   4.072273   0.000000   0.000000   0.000000
    10  C    0.000000   0.000000   0.000000   4.296727   0.000000   0.000000
    11  C    0.000000   0.000000   0.000000   0.000000   4.323775   0.000000
    12  C    0.000000   0.000000   0.000000   0.000000   0.000000   4.182627
    13  C    0.000000   0.000000   0.000000   0.000000   0.000000   0.000000
    14  C    0.000000   0.000000   0.000000   0.000000   0.000000   0.000000
    15  C    0.000000   0.000000   0.000000   0.000000   0.000000   0.000000
    16  C    0.000000   0.000000   0.000000   0.000000   0.000000   0.000000
    17  C    0.000000   0.000000   0.000000   0.000000   0.000000   0.000000
    18  C    0.000000   0.000000   0.000000   0.000000   0.000000   0.000000
    19  C    0.000000   0.000000   0.000000   0.000000   0.000000   0.000000
    20  C    0.000000   0.000000   0.000000   0.000000   0.000000   0.000000
    21  C    0.000000   0.000000   0.000000   0.000000   0.000000   0.000000
    22  C    0.000000   0.000000   0.000000   0.000000   0.000000   0.000000
    23  C    0.000000   0.000000   0.000000   0.000000   0.000000   0.000000
    24  C    0.000000   0.000000   0.000000   0.000000   0.000000   0.000000
    25  C    0.000000   0.000000   0.000000   0.000000   0.000000   0.000000
    26  C    0.000000   0.000000   0.000000   0.000000   0.000000   0.000000
    27  C    0.000000   0.000000   0.000000   0.000000   0.000000   0.000000
    28  C    0.000000   0.000000   0.000000   0.000000   0.000000   0.000000
    29  C    0.000000   0.000000   0.000000   0.000000   0.000000   0.000000
    30  H    0.000000   0.000000   0.000000   0.000000   0.000000   0.000000
    31  H    0.000000   0.000000   0.000000   0.000000   0.000000   0.000000
    32  H    0.000000   0.000000   0.000000   0.000000   0.000000   0.000000
    33  H    0.000000   0.000000   0.000000   0.000000   0.000000   0.000000
    34  H    0.000000   0.000000   0.000000   0.000000   0.000000   0.000000
    35  H    0.000000   0.000000   0.000000   0.000000   0.000000   0.000000
    36  H    0.000000   0.000000   0.000000   0.000000   0.000000   0.000000
    37  H    0.000000   0.000000   0.000000   0.000000   0.000000   0.000000
    38  H    0.000000   0.000000   0.000000   0.000000   0.000000   0.000000
    39  H    0.000000   0.000000   0.000000   0.000000   0.000000   0.000000
    40  H    0.000000   0.000000   0.000000   0.000000   0.000000   0.000000
    41  H    0.000000   0.000000   0.000000   0.000000   0.000000   0.000000
    42  H    0.000000   0.000000   0.000000   0.000000   0.000000   0.000000
    43  H    0.000000   0.000000   0.000000   0.000000   0.000000   0.000000
    44  Os   0.000000   0.000000   0.000000   0.000000   0.000000   0.000000
              13         14         15         16         17         18
     1  C    0.000000   0.000000   0.000000   0.000000   0.000000   0.000000
     2  C    0.000000   0.000000   0.000000   0.000000   0.000000   0.000000
     3  C    0.000000   0.000000   0.000000   0.000000   0.000000   0.000000
     4  C    0.000000   0.000000   0.000000   0.000000   0.000000   0.000000
     5  C    0.000000   0.000000   0.000000   0.000000   0.000000   0.000000
     6  C    0.000000   0.000000   0.000000   0.000000   0.000000   0.000000
     7  C    0.000000   0.000000   0.000000   0.000000   0.000000   0.000000
     8  C    0.000000   0.000000   0.000000   0.000000   0.000000   0.000000
     9  C    0.000000   0.000000   0.000000   0.000000   0.000000   0.000000
    10  C    0.000000   0.000000   0.000000   0.000000   0.000000   0.000000
    11  C    0.000000   0.000000   0.000000   0.000000   0.000000   0.000000
    12  C    0.000000   0.000000   0.000000   0.000000   0.000000   0.000000
    13  C    2.312312   0.000000   0.000000   0.000000   0.000000   0.000000
    14  C    0.000000   2.324293   0.000000   0.000000   0.000000   0.000000
    15  C    0.000000   0.000000   4.071621   0.000000   0.000000   0.000000
    16  C    0.000000   0.000000   0.000000   3.784554   0.000000   0.000000
    17  C    0.000000   0.000000   0.000000   0.000000   2.319648   0.000000
    18  C    0.000000   0.000000   0.000000   0.000000   0.000000   3.881579
    19  C    0.000000   0.000000   0.000000   0.000000   0.000000   0.000000
    20  C    0.000000   0.000000   0.000000   0.000000   0.000000   0.000000
    21  C    0.000000   0.000000   0.000000   0.000000   0.000000   0.000000
    22  C    0.000000   0.000000   0.000000   0.000000   0.000000   0.000000
    23  C    0.000000   0.000000   0.000000   0.000000   0.000000   0.000000
    24  C    0.000000   0.000000   0.000000   0.000000   0.000000   0.000000
    25  C    0.000000   0.000000   0.000000   0.000000   0.000000   0.000000
    26  C    0.000000   0.000000   0.000000   0.000000   0.000000   0.000000
    27  C    0.000000   0.000000   0.000000   0.000000   0.000000   0.000000
    28  C    0.000000   0.000000   0.000000   0.000000   0.000000   0.000000
    29  C    0.000000   0.000000   0.000000   0.000000   0.000000   0.000000
    30  H    0.000000   0.000000   0.000000   0.000000   0.000000   0.000000
    31  H    0.000000   0.000000   0.000000   0.000000   0.000000   0.000000
    32  H    0.000000   0.000000   0.000000   0.000000   0.000000   0.000000
    33  H    0.000000   0.000000   0.000000   0.000000   0.000000   0.000000
    34  H    0.000000   0.000000   0.000000   0.000000   0.000000   0.000000
    35  H    0.000000   0.000000   0.000000   0.000000   0.000000   0.000000
    36  H    0.000000   0.000000   0.000000   0.000000   0.000000   0.000000
    37  H    0.000000   0.000000   0.000000   0.000000   0.000000   0.000000
    38  H    0.000000   0.000000   0.000000   0.000000   0.000000   0.000000
    39  H    0.000000   0.000000   0.000000   0.000000   0.000000   0.000000
    40  H    0.000000   0.000000   0.000000   0.000000   0.000000   0.000000
    41  H    0.000000   0.000000   0.000000   0.000000   0.000000   0.000000
    42  H    0.000000   0.000000   0.000000   0.000000   0.000000   0.000000
    43  H    0.000000   0.000000   0.000000   0.000000   0.000000   0.000000
    44  Os   0.000000   0.000000   0.000000   0.000000   0.000000   0.000000
              19         20         21         22         23         24
     1  C    0.000000   0.000000   0.000000   0.000000   0.000000   0.000000
     2  C    0.000000   0.000000   0.000000   0.000000   0.000000   0.000000
     3  C    0.000000   0.000000   0.000000   0.000000   0.000000   0.000000
     4  C    0.000000   0.000000   0.000000   0.000000   0.000000   0.000000
     5  C    0.000000   0.000000   0.000000   0.000000   0.000000   0.000000
     6  C    0.000000   0.000000   0.000000   0.000000   0.000000   0.000000
     7  C    0.000000   0.000000   0.000000   0.000000   0.000000   0.000000
     8  C    0.000000   0.000000   0.000000   0.000000   0.000000   0.000000
     9  C    0.000000   0.000000   0.000000   0.000000   0.000000   0.000000
    10  C    0.000000   0.000000   0.000000   0.000000   0.000000   0.000000
    11  C    0.000000   0.000000   0.000000   0.000000   0.000000   0.000000
    12  C    0.000000   0.000000   0.000000   0.000000   0.000000   0.000000
    13  C    0.000000   0.000000   0.000000   0.000000   0.000000   0.000000
    14  C    0.000000   0.000000   0.000000   0.000000   0.000000   0.000000
    15  C    0.000000   0.000000   0.000000   0.000000   0.000000   0.000000
    16  C    0.000000   0.000000   0.000000   0.000000   0.000000   0.000000
    17  C    0.000000   0.000000   0.000000   0.000000   0.000000   0.000000
    18  C    0.000000   0.000000   0.000000   0.000000   0.000000   0.000000
    19  C    3.984277   0.000000   0.000000   0.000000   0.000000   0.000000
    20  C    0.000000   3.987016   0.000000   0.000000   0.000000   0.000000
    21  C    0.000000   0.000000   4.174008   0.000000   0.000000   0.000000
    22  C    0.000000   0.000000   0.000000   4.363606   0.000000   0.000000
    23  C    0.000000   0.000000   0.000000   0.000000   4.323068   0.000000
    24  C    0.000000   0.000000   0.000000   0.000000   0.000000   3.979434
    25  C    0.000000   0.000000   0.000000   0.000000   0.000000   0.000000
    26  C    0.000000   0.000000   0.000000   0.000000   0.000000   0.000000
    27  C    0.000000   0.000000   0.000000   0.000000   0.000000   0.000000
    28  C    0.000000   0.000000   0.000000   0.000000   0.000000   0.000000
    29  C    0.000000   0.000000   0.000000   0.000000   0.000000   0.000000
    30  H    0.000000   0.000000   0.000000   0.000000   0.000000   0.000000
    31  H    0.000000   0.000000   0.000000   0.000000   0.000000   0.000000
    32  H    0.000000   0.000000   0.000000   0.000000   0.000000   0.000000
    33  H    0.000000   0.000000   0.000000   0.000000   0.000000   0.000000
    34  H    0.000000   0.000000   0.000000   0.000000   0.000000   0.000000
    35  H    0.000000   0.000000   0.000000   0.000000   0.000000   0.000000
    36  H    0.000000   0.000000   0.000000   0.000000   0.000000   0.000000
    37  H    0.000000   0.000000   0.000000   0.000000   0.000000   0.000000
    38  H    0.000000   0.000000   0.000000   0.000000   0.000000   0.000000
    39  H    0.000000   0.000000   0.000000   0.000000   0.000000   0.000000
    40  H    0.000000   0.000000   0.000000   0.000000   0.000000   0.000000
[...]
 000076,-0.00025823,0.00044356,-0.00004443,-0.00021188,0.00013641,-0.00
 003385,-0.00000828,0.00001434,0.00000161,0.00000090,0.00000283,-0.0000
 0178,0.00000905,-0.00002307,-0.00000121,0.00000086,0.00000162,-0.00000
 028,-0.00000012,-0.00000508,-0.00000187,-0.00000151,-0.00000696,-0.000
 00075,-0.00000078,0.00000509,-0.00000033,0.00000018,0.00000119,-0.0000
 0051,0.00000223,0.00000613,-0.00000059,-0.00001305,0.00000409,-0.00000
 169,-0.00003226,-0.00004164,-0.00001038,-0.00101007,-0.00005058,-0.000
 13810,0.05625780,-0.00017696,-0.00046105,-0.00001356,0.00043788,-0.000
 31753,-0.00016736,0.01780879,-0.02885008,0.00467478,-0.01599436,-0.024
 73703,0.00136394,-0.00003364,-0.00039589,0.00001903,0.00369525,-0.2188
 4236,0.01636296,0.00009979,-0.00048508,-0.00001593,0.00035318,-0.00089
 363,0.00004402,0.00034787,-0.00055149,-0.00012973,-0.00106958,0.000579
 68,-0.00003607,-0.00039214,0.00061058,0.00008754,0.00017208,0.00051263
 ,0.00002847,0.00088957,-0.00107079,0.00038246,0.00007656,0.00005115,-0
 .00008800,-0.00035534,-0.00002593,0.00008254,-0.00135884,-0.00085337,-
 0.00007722,0.00010542,-0.00033398,-0.00007757,-0.00014859,-0.00005568,
 0.00000514,0.00007261,-0.00012750,0.00000109,-0.00028164,-0.00010594,-
 0.00002396,-0.00011091,-0.00000347,-0.00000835,0.00175328,0.00204911,0
 .00036956,0.00022302,-0.00001888,-0.00004119,-0.00079580,-0.00069078,0
 .00015020,0.00007628,0.00091951,-0.00006038,0.00014433,0.00013495,0.00
 004004,0.00004326,0.00009430,-0.00001175,0.00015918,-0.00004288,0.0000
 2322,0.00008889,0.00002762,0.00000842,-0.00004413,-0.00001634,-0.00000
 004,-0.00005313,-0.00003468,-0.00000390,-0.00003339,-0.00002009,-0.000
 00315,0.00000091,-0.00001764,0.00000276,-0.00000053,-0.00002759,-0.000
 00156,0.00000324,-0.00005857,-0.00000822,0.00005220,-0.00003028,-0.000
 01887,0.00004811,0.00002011,-0.00001521,0.00008623,0.00005580,0.000004
 39,0.00010353,0.00015314,-0.00000712,-0.00002700,0.00055444,0.00000164
 ,-0.00588184,0.27235880,0.00001258,0.00006825,0.00002156,0.00010696,-0
 .00016887,-0.00253787,-0.00277538,0.00563509,0.00485717,0.00020612,0.0
 0026690,0.00678826,0.00001091,0.00003375,-0.00003368,0.00022894,0.0164
 1890,-0.04015287,-0.00006780,-0.00010181,-0.00102651,0.00000418,0.0000
 0249,0.00007122,-0.00001242,0.00001394,0.00001535,-0.00004432,-0.00010
 657,-0.00015404,0.00004306,0.00000338,-0.00008653,0.00001227,-0.000001
 91,-0.00002000,0.00027046,0.00010847,0.00074670,-0.00006384,-0.0000162
 6,0.00019685,-0.00002193,0.00000092,0.00001286,0.00035038,0.00025430,0
 .00026876,-0.00009527,0.00004277,0.00005734,-0.00001426,0.00000085,0.0
 0000861,0.00002455,-0.00002709,-0.00012159,0.00002156,0.00001482,0.000
 04124,0.00001343,-0.00000140,0.00000329,-0.00130513,0.00051876,0.00561
 349,0.00002512,-0.00003167,-0.00005439,-0.00035531,0.00020448,0.001788
 36,0.00012552,-0.00024599,-0.00046780,-0.00000091,-0.00005024,-0.00000
 865,0.00000997,-0.00000481,-0.00012364,-0.00002400,-0.00001073,-0.0000
 3314,-0.00000870,-0.00000546,-0.00001818,-0.00000166,0.00000375,0.0000
 4891,0.00000299,0.00000325,0.00003900,0.00000250,0.00000205,0.00000836
 ,-0.00000148,0.00000113,0.00000370,0.00000017,0.00000608,-0.00000044,0
 .00000160,0.00000397,0.00000486,-0.00000516,0.00000259,0.00000705,-0.0
 0000508,-0.00000378,0.00000263,-0.00000229,-0.00000218,0.00002523,-0.0
 0002068,-0.00001138,0.00016292,-0.00013789,-0.00002331,0.00043194,0.00
 356503,-0.02281283,0.02354716,-0.00002343,0.00011205,-0.00000302,0.000
 06530,-0.00006286,0.00000647,-0.00009177,0.00039421,-0.00006392,-0.006
 70163,0.02880756,-0.00330048,-0.00656379,-0.02882588,0.00079902,-0.001
 04019,0.00050039,0.00004827,-0.03439523,0.00202381,0.00046136,-0.00007
 745,0.00020631,-0.00000923,-0.00008146,0.00013430,0.00003051,0.0001802
 5,-0.00018891,0.00001753,0.00006963,-0.00015455,-0.00000913,-0.0000634
 2,-0.00013634,-0.00000136,-0.00006940,0.00017821,-0.00006207,0.0000316
 4,-0.00004589,-0.00003448,0.00012148,0.00000466,-0.00002848,0.00047908
 ,0.00047977,0.00001587,0.00016906,0.00000670,0.00006129,0.00008387,0.0
 0001915,-0.00000185,-0.00004932,-0.00004470,-0.00003038,0.00002763,-0.
 00002353,0.00000606,0.00003369,0.00000719,0.00000062,-0.00026864,-0.00
 045606,0.00004120,-0.00009690,0.00002161,0.00002565,-0.00239550,0.0012
 3740,-0.00081909,-0.00021162,0.00006170,-0.00002680,-0.00009156,0.0000
 2229,-0.00000871,-0.00241483,-0.00121355,-0.00068316,-0.00003291,0.000
 03768,0.00007797,-0.00002116,0.00001202,-0.00001064,0.00004405,-0.0004
 1723,0.00002400,0.00000574,0.00000561,-0.00000402,0.00000675,0.0000038
 5,0.00000054,-0.00000068,-0.00000039,0.00000053,-0.00000104,0.00000190
 ,-0.00000042,-0.00000049,0.00000994,0.00000090,-0.00000665,0.00000458,
 0.00000207,-0.00000510,-0.00000015,0.00000156,-0.00001367,-0.00000642,
 -0.00000110,-0.00002226,-0.00001904,0.00000355,-0.00002710,0.00001974,
 -0.00000893,-0.00098668,-0.00007006,-0.00011301,0.05490348,-0.00004471
 ,-0.00004922,-0.00000849,-0.00002814,-0.00013200,0.00000974,0.00024555
 ,-0.00058311,0.00011654,0.01663885,-0.02478776,0.00384473,-0.01586533,
 -0.02908494,0.00071709,-0.00052628,-0.00052496,-0.00015675,0.00198104,
 -0.21968342,0.01282020,0.00008607,-0.00015495,0.00001545,0.00002372,0.
 00000148,0.00000254,-0.00035079,0.00002916,0.00001472,-0.00007920,0.00
 005717,0.00001647,-0.00013614,-0.00005933,0.00002388,0.00050009,-0.000
 21356,0.00006060,0.00008044,-0.00006949,-0.00011844,0.00022695,-0.0000
 1906,-0.00004373,-0.00030262,0.00020705,-0.00003626,0.00065744,-0.0002
 6971,0.00015451,0.00040134,0.00004587,0.00001711,0.00060574,-0.0010362
 9,0.00012572,0.00089449,-0.00004859,0.00014166,0.00014486,0.00007340,-
 0.00000450,-0.00026521,0.00048195,-0.00011736,-0.00029506,0.00003573,0
 .00004288,0.00165986,-0.00086013,0.00057998,-0.00076334,-0.00035541,-0
 .00013674,-0.00045979,0.00030376,-0.00001065,-0.00212992,0.00116332,0.
 00004936,-0.00048750,0.00108042,-0.00017271,-0.00000703,0.00009014,0.0
 0000167,-0.00004748,-0.00022260,0.00000215,-0.00004134,-0.00002119,-0.
 00000013,-0.00004138,-0.00001945,-0.00000009,-0.00001225,-0.00006861,-
 0.00000606,-0.00000126,-0.00005056,0.00000132,0.00000483,-0.00003978,-
 0.00000878,0.00004319,-0.00002369,-0.00001496,0.00004255,0.00002145,-0
 .00000934,0.00003892,0.00002635,0.00000001,0.00004158,0.00004253,-0.00
 000422,-0.00004035,0.00013115,-0.00000824,0.00002485,0.00048719,-0.000
 00502,-0.00170718,0.27357929,-0.00000357,0.00002330,0.00001096,0.00001
 437,0.00000977,0.00003684,-0.00008725,0.00014962,0.00009745,-0.0028589
 7,0.00534331,0.00518016,-0.00038397,-0.00088293,0.00521545,0.00021760,
 -0.00005568,-0.00179866,0.00097554,0.01281383,-0.04020171,-0.00002079,
 0.00004397,0.00001627,-0.00001989,0.00003235,0.00001328,0.00006162,-0.
 00003147,-0.00003668,0.00003745,-0.00003119,-0.00003430,-0.00000275,-0
 .00002410,-0.00001238,-0.00008882,0.00009202,0.00008274,-0.00004666,0.
 00001318,0.00007225,0.00000537,0.00000085,0.00000449,0.00005779,0.0000
 4659,0.00002948,0.00002598,-0.00001745,0.00013695,0.00000591,0.0000051
 9,0.00001038,0.00020035,-0.00000575,0.00034897,0.00000380,-0.00000064,
 0.00000927,0.00000210,-0.00000124,0.00000415,0.00004929,-0.00016029,-0
 .00015889,0.00000373,-0.00001772,-0.00002921,-0.00092641,0.00030678,0.
 00437321,-0.00000589,0.00000988,-0.00018442,-0.00000453,-0.00000355,-0
 .00004963,-0.00071549,0.00037626,0.00479749,0.00009201,-0.00003354,-0.
 00083879,-0.00001603,0.00000110,0.00007331,0.00001002,-0.00002071,-0.0
 0007685,-0.00000065,0.00000177,0.00004892,0.00000371,0.00000210,0.0000
 0615,0.00000104,0.00000399,-0.00000732,0.00000046,0.00000353,0.0000083
 4,0.00000062,0.00000507,0.00000249,-0.00000482,0.00000272,0.00000455,-
 0.00000400,-0.00000304,0.00000367,-0.00000572,-0.00000360,0.00000281,-
 0.00000656,-0.00000615,0.00000021,-0.00000268,-0.00000524,0.00003869,-
 0.00011777,-0.00000995,0.00041856,0.00343060,-0.01773395,0.02375217,0.
 00001308,0.00001933,0.00000513,0.00003711,0.00005803,-0.00000512,-0.00
 023829,-0.00002833,-0.00001952,-0.00265384,-0.00131925,-0.00076092,-0.
 16998283,0.07870315,-0.01777790,-0.00003639,0.00033178,0.00002989,-0.0
 3964906,0.00455937,-0.00498819,-0.00007410,0.00012050,0.00000048,-0.00
 004349,0.00004942,0.00001169,0.00025700,-0.00001364,0.00000107,0.00010
 737,-0.00007053,-0.00003936,0.00006270,-0.00001485,-0.00001701,-0.0005
 3762,0.00020761,-0.00010486,-0.00015779,0.00009636,0.00015330,-0.00010
 012,0.00001332,0.00001925,-0.00103210,0.00055460,-0.00006796,-0.000527
 25,0.00038252,-0.00013052,-0.00018516,-0.00000166,-0.00000065,-0.00072
 659,0.00045500,-0.00070369,-0.00024835,0.00015760,-0.00003949,-0.00003
 457,-0.00003546,0.00000508,0.00070323,-0.00007213,0.00009591,0.0001496
 2,-0.00005885,-0.00004349,0.00116239,-0.00059536,0.00018426,0.00051001
 ,-0.00052132,0.00010934,0.00019021,-0.00023681,0.00000566,-0.00213212,
 0.01091705,-0.00151428,0.00023300,-0.00052812,0.00011171,0.00000635,-0
 .00009783,0.00000048,0.00084772,-0.00017037,0.00022832,0.00006428,0.00
 004650,-0.00000293,0.00002910,0.00001824,0.00000019,0.00000611,0.00003
 121,0.00000088,0.00000238,0.00002783,-0.00000088,-0.00000129,0.0000256
 2,0.00000532,-0.00002763,0.00001602,0.00000971,-0.00002290,-0.00001183
 ,0.00000515,-0.00002080,-0.00001440,-0.00000053,-0.00002128,-0.0000153
 8,0.00000036,0.00000024,-0.00002599,0.00000026,0.00000640,-0.00002244,
 -0.00000623,-0.00036364,-0.00046558,0.00011903,0.21416871,-0.00000812,
 -0.00004387,-0.00000271,-0.00008023,-0.00001650,-0.00000308,0.00016362
 ,-0.00017416,0.00003395,-0.00064974,-0.00121792,0.00038664,0.07869422,
 -0.07970641,0.01027757,-0.00068283,0.00011969,-0.00011154,-0.01057748,
 0.00675311,-0.00113348,0.00006213,-0.00011706,0.00000141,0.00004579,-0
 .00006420,-0.00001534,-0.00019863,0.00004651,-0.00000552,-0.00008301,0
 .00007560,0.00002744,-0.00001482,0.00004572,0.00000977,0.00037699,-0.0
 0018822,0.00009024,0.00009602,-0.00004777,-0.00008875,0.00001690,-0.00
 000753,-0.00000251,0.00055491,-0.00039546,0.00003813,0.00021378,-0.000
 19865,0.00004658,0.00005677,-0.00000589,-0.00000118,-0.00021448,-0.003
 14472,0.00049485,-0.00003405,-0.00016400,0.00000006,-0.00000802,0.0000
 0383,-0.00000308,-0.00041077,0.00016921,-0.00007030,-0.00004620,0.0000
 3328,0.00002042,-0.00059555,0.00047872,-0.00010704,-0.00018322,0.00036
 235,-0.00004905,-0.00005196,0.00011330,0.00000148,0.02606327,-0.030710
 10,0.00495300,0.00048627,-0.00014902,0.00002726,0.00004038,0.00001428,
 0.00000600,0.00022961,-0.00072764,-0.00000642,0.00001074,0.00002024,0.
 00000574,-0.00000945,-0.00000421,-0.00000010,0.00000033,-0.00001221,0.
 00000017,-0.00000110,-0.00001310,0.00000020,0.00000056,-0.00001501,-0.
 00000280,0.00001600,-0.00000928,-0.00000562,0.00001321,0.00000661,-0.0
 0000327,0.00001454,0.00001009,0.00000062,0.00001550,0.00001519,-0.0000
 0093,0.00000168,0.00002466,-0.00000017,0.00001326,0.00007814,-0.000000
 30,-0.00086593,0.00048218,-0.00019882,-0.09234477,0.10816467,-0.000000
 35,0.00000244,0.00000851,0.00000656,0.00001130,0.00004033,-0.00002400,
 -0.00001941,-0.00017798,-0.00081954,0.00039637,0.00573832,-0.01774955,
 0.01026426,-0.04640435,0.00007341,-0.00001924,-0.00059001,-0.00400862,
 0.00045119,0.00590847,-0.00000966,0.00001409,0.00000586,-0.00000836,0.
 00001140,0.00000588,0.00003431,-0.00000471,-0.00002823,0.00002469,-0.0
 0000869,-0.00002215,0.00000808,-0.00000471,-0.00000766,-0.00008359,0.0
 0004713,0.00007511,-0.00004313,0.00002510,0.00005954,-0.00001400,0.000
 00160,0.00000589,-0.00010325,0.00005858,-0.00069762,-0.00008240,0.0000
 4932,0.00007508,-0.00001697,0.00000139,0.00000589,-0.00074084,0.000540
 32,0.00573591,0.00000476,0.00003025,-0.00017800,-0.00000223,-0.0000008
 4,0.00000851,0.00012579,-0.00000534,-0.00000329,0.00001975,-0.00001715
 ,-0.00002213,0.00019030,-0.00010971,-0.00000790,0.00006726,-0.00010671
 ,-0.00000303,0.00002105,-0.00002749,-0.00002818,-0.00244745,0.00333793
 ,0.00588224,0.00005038,-0.00005489,-0.00058992,-0.00000658,-0.00001109
 ,0.00004033,0.00021791,-0.00005414,-0.00127633,-0.00000361,0.00000641,
 0.00008983,0.00000277,0.00000259,0.00000636,0.00000088,0.00000391,-0.0
 0000289,0.00000053,0.00000361,0.00000354,0.00000035,0.00000391,0.00000
 180,-0.00000418,0.00000243,0.00000296,-0.00000321,-0.00000224,0.000001
 81,-0.00000287,-0.00000225,0.00000355,-0.00000296,-0.00000273,-0.00000
 288,-0.00000086,-0.00000370,0.00000637,-0.00000725,0.00000003,0.000089
 89,0.00015653,-0.00016682,-0.00127600,0.02513358,-0.01461660,0.0275663
 4,-0.00209291,0.00350972,0.00022749,0.00319296,-0.00030446,0.00019635,
 -0.00652560,0.00026981,-0.00120077,-0.00721550,-0.00273594,-0.00036231
 ,-0.00304063,-0.00495755,-0.00000931,0.00711270,0.00246825,0.00045833,
 0.00543111,0.00072833,0.00044746,-0.00849767,0.01481078,-0.00248146,0.
 00533063,-0.01379192,-0.00386692,0.02001951,-0.02846729,0.00656134,-0.
 05607325,-0.01205816,0.02335225,0.00396221,0.01190460,0.00136239,-0.06
 641804,0.00497019,-0.00410440,-0.04894302,0.00807619,0.04387885,-0.007
 97196,-0.00023504,0.00113827,-0.00005191,-0.02417479,0.00462812,-0.051
 62206,0.00261404,-0.04564635,-0.03234486,-0.00401523,0.00148010,0.0064
 5620,-0.00302969,0.00092350,0.00912270,0.00864241,0.00127355,-0.001854
 20,-0.00268627,0.00005908,0.01973228,0.02464473,-0.00704081,0.02066736
 ,0.03973629,0.00820903,-0.00756415,0.00372900,-0.00121419,-0.06152179,
 0.01627980,-0.01973091,0.01921682,-0.04596669,-0.00834376,-0.00361079,
 0.00583239,-0.00081620,-0.00454930,0.00207673,-0.00063440,0.00045421,-
 0.00331101,-0.00012990,0.00014177,0.00006646,0.00003656,0.00015037,0.0
 0039297,0.00000177,-0.00003693,-0.00023470,-0.00001603,-0.00045175,0.0
 0021403,0.00010378,0.00064081,0.00067037,0.00024012,-0.00028960,-0.000
 46874,-0.00023159,0.00078384,-0.00045553,-0.00022668,-0.00034899,0.000
 80614,0.00001022,-0.00005390,-0.00028267,-0.00043192,-0.00005007,-0.00
 067283,0.00007907,0.00023888,0.00058028,-0.00009613,-0.00026470,0.0000
 0979,0.00004436,-0.00010394,-0.00024467,0.00000459,0.00026097,-0.00012
 670,0.00004653,0.24858150,-0.00282151,-0.00138288,0.00007673,-0.001740
 72,-0.00162000,0.00027452,-0.00033914,0.01423209,-0.00220253,-0.010874
 47,0.00314364,-0.00127618,-0.00495670,-0.00872844,0.00002875,0.0087689
 0,-0.00193836,0.00099733,0.01101991,0.00015633,0.00118518,0.00967663,-
 0.02616537,-0.00306783,0.00739891,-0.01602911,-0.00351306,-0.04548644,
 -0.02344265,0.01352881,-0.00428090,0.03654268,0.00377441,0.01190582,0.
 01762377,-0.00083486,-0.00577395,-0.04694500,0.05011850,0.00811424,-0.
 03988965,-0.02559779,-0.02142232,-0.00270553,0.00515250,-0.02417968,-0
 .02780930,-0.00262038,0.01333503,-0.06212185,-0.02158203,0.00112992,-0
 .00230103,0.00365990,0.00510935,-0.01051872,0.00097012,0.00924698,-0.0
 0140507,0.00212961,0.00364460,-0.00162249,-0.00023529,0.06291294,-0.03
 794607,0.01879868,0.03193772,-0.04030581,-0.02204084,0.00372684,-0.003
 27946,0.00070687,-0.02198524,0.04324598,-0.00329852,-0.02894571,-0.022
 73442,-0.01227017,-0.00445935,0.00919229,-0.00099679,-0.00422264,0.009
 71492,-0.00091375,-0.00187492,0.00111636,-0.00030471,-0.00010367,-0.00
 020612,0.00001662,0.00024798,-0.00003368,-0.00005051,0.00042210,0.0004
 3746,0.00009853,-0.00090379,-0.00031366,-0.00003003,0.00011672,0.00016
 909,0.00063521,0.00083997,-0.00015549,-0.00014823,-0.00045533,0.000262
 06,0.00013007,-0.00050248,-0.00009482,0.00027374,0.00027185,0.00086296
 ,-0.00052980,0.00044425,-0.00071511,-0.00007500,-0.00007632,0.00016144
 ,-0.00003643,0.00015488,0.00038139,0.00002085,-0.00007451,0.00003932,-
 0.00004015,-0.00012671,0.00011564,-0.00002703,-0.00481647,0.24300645,0
 .00052980,0.00003391,0.00055017,-0.00000018,-0.00015371,0.00078628,-0.
 00072654,-0.00005666,0.00127141,0.00000435,0.00004348,-0.00055282,0.00
 003691,0.00000137,-0.00009393,0.00008195,0.00019335,0.00057107,-0.0000
 1380,0.00001702,0.00032806,0.00328287,-0.00080253,-0.00789939,0.000143
 48,0.00022506,0.00139160,0.00512127,0.00904228,0.01152597,0.01719164,0
 .00668634,0.00863478,0.00053871,-0.00035729,0.00149021,0.00132466,0.07
 378794,-0.11853836,0.05894109,-0.03431927,-0.12642875,-0.00004463,-0.0
 0022372,0.00137536,-0.00096237,0.00061542,-0.01226290,-0.06350499,-0.0
 3805274,-0.11817559,0.00236793,-0.00245805,-0.00790818,-0.00006270,0.0
 0000920,-0.00055707,-0.00035327,0.00065156,0.00126191,0.00022747,-0.00
 046535,0.00055166,-0.00979780,0.00978261,0.01413143,0.00264104,-0.0181
 6084,0.00873567,-0.00027596,0.00016406,0.00100725,-0.01316790,0.003515
 53,0.01418807,-0.00522076,-0.00875978,0.01161301,-0.00000166,-0.000032
 68,0.00033242,-0.00010572,-0.00019784,0.00057558,0.00013936,0.00008135
 ,0.00078684,-0.00000027,-0.00000954,-0.00009468,0.00002503,-0.00000825
 ,-0.00044224,-0.00000696,-0.00003957,-0.00031507,-0.00012109,-0.000037
 20,-0.00042064,-0.00007507,-0.00044954,-0.00076932,-0.00013567,-0.0000
 5512,-0.00070803,-0.00018453,0.00010567,-0.00060879,-0.00001879,0.0001
 4182,-0.00070913,0.00035045,0.00028441,-0.00076838,-0.00002997,0.00012
 559,-0.00042086,0.00003011,0.00002330,-0.00031496,0.00001885,-0.000020
 09,-0.00044231,0.00000838,0.00000500,-0.00009461,-0.00001248,0.0000070
 5,-0.00004875,0.00182022,-0.00088485,0.31746877||-0.00010573,0.0000112
 1,-0.00001886,0.00004061,-0.00005850,0.00004560,0.00000364,0.00002021,
 -0.00002002,-0.00002878,0.00003502,-0.00003291,-0.00001441,0.00000931,
 0.00003887,0.00005862,-0.00005314,-0.00002489,0.00004890,-0.00003757,0
 .00000918,-0.00004486,-0.00004369,0.00001312,-0.00006362,0.00000518,-0
 .00001021,0.00007204,-0.00003614,0.00001171,0.00000717,0.00000431,0.00
 000182,-0.00000616,0.00000397,-0.00003058,0.00010576,-0.00000860,-0.00
 004767,-0.00034478,0.00019808,0.00023056,-0.00003554,0.00005067,-0.000
 00246,0.00006175,-0.00001952,0.00002544,0.00006197,-0.00010671,-0.0000
 5129,0.00001853,0.00006049,0.00001777,-0.00002899,0.00000650,-0.000025
 82,-0.00000874,-0.00002031,-0.00001754,-0.00006523,0.00008755,-0.00002
 138,-0.00007768,-0.00005070,0.00001845,-0.00000313,-0.00000652,-0.0000
 0102,0.00001161,0.00000584,0.00006841,-0.00001330,0.00009676,0.0000119
 8,0.00006681,-0.00003816,0.00000973,0.00000350,0.00004109,-0.00000156,
 0.00004610,-0.00002897,-0.00002377,0.00007328,-0.00000166,0.00004857,-
 0.00002590,-0.00001396,-0.00000321,-0.00003973,-0.00000987,0.00000670,
 -0.00002040,0.00000007,-0.00001297,0.00000711,-0.00003254,-0.00000100,
 0.00000931,-0.00002401,-0.00001594,0.00000458,-0.00003349,0.00000816,0
 .00000602,-0.00000446,0.00001507,0.00003129,0.00001406,0.00001085,0.00
 002749,0.00000500,-0.00001368,0.00003033,0.00000845,-0.00000110,-0.000
 01017,0.00001564,-0.00001264,-0.00001663,0.00003913,0.00000941,-0.0000
 1865,0.00004159,-0.00000350,-0.00001659,-0.00003072,-0.00002144,0.0001
 9261,-0.00010091,-0.00018593|||@


 A ROPE OVER THE TOP OF A FENCE HAS THE SAME LENGTH ON EACH SIDE.
 WEIGHS 1/3 POUND PER FOOT.  ON ONE END HANGS A MONKEY HOLDING A
 BANANA, AND ON THE OTHER END A WEIGHT EQUAL TO THE WEIGHT
 OF THE MONKEY.  THE BANANA WEIGHS TWO OUNCES PER INCH.
 THE ROPE IS AS LONG AS THE AGE OF THE MONKEY, 
 AND THE WEIGHT OF THE MONKEY (IN OUNCES) IS AS MUCH
 AS THE AGE OF THE MONKEY'S MOTHER.  THE COMBINED AGES OF MONKEY
 AND MOTHER ARE THIRTY YEARS.  HALF THE WEIGHT OF THE MONKEY,
  PLUS THE WEIGHT OF THE BANANA, IS ONE FOURTH AS MUCH AS THE WEIGHT
 OF THE WEIGHT AND THE ROPE.
 THE MONKEY'S MOTHER IS HALF AS OLD AS THE MONKEY WILL BE
 WHEN IT IS 3 TIMES AS OLD AS ITS MOTHER WAS WHEN
 SHE WAS HALF AS OLD AS THE MONKEY WILL BE WHEN IT IS
 AS OLD AS ITS MOTHER WILL BE WHEN SHE IS 4 TIMES AS
 OLD AS THE MONKEY WAS WHEN IT WAS TWICE AS OLD AS 
 ITS MOTHER WAS WHEN SHE WAS ONE THIRD AS OLD AS THE
 MONKEY WAS WHEN IT WAS AS OLD AS ITS MOTHER WAS WHEN 
 SHE WAS 3 TIMES AS OLD AS THE MONKEY WAS WHEN IT WAS AS OLD AS ITS
 MOTHER WAS WHEN SHE WAS 3 TIMES AS OLD AS THE MONKEY 
 WAS WHEN IT WAS ONE FOURTH WAS OLD AS IT IS NOW.

 HOW LONG IS THE BANANA?
 Job cpu time:       0 days  0 hours  0 minutes  6.0 seconds.
 File lengths (MBytes):  RWF=    380 Int=      0 D2E=      0 Chk=      4 Scr=      1
 Normal termination of Gaussian 09 at Sun Mar 15 21:17:49 2026.
