 Entering Link 1 = C:\Gaussian\G09W\l1.exe PID=     16040.
  
 Copyright (c) 1988,1990,1992,1993,1995,1998,2003,2009,2013,
            Gaussian, Inc.  All Rights Reserved.
  
 This is part of the Gaussian(R) 09 program.  It is based on
 the Gaussian(R) 03 system (copyright 2003, Gaussian, Inc.),
 the Gaussian(R) 98 system (copyright 1998, Gaussian, Inc.),
 the Gaussian(R) 94 system (copyright 1995, Gaussian, Inc.),
 the Gaussian 92(TM) system (copyright 1992, Gaussian, Inc.),
 the Gaussian 90(TM) system (copyright 1990, Gaussian, Inc.),
 the Gaussian 88(TM) system (copyright 1988, Gaussian, Inc.),
 the Gaussian 86(TM) system (copyright 1986, Carnegie Mellon
 University), and the Gaussian 82(TM) system (copyright 1983,
 Carnegie Mellon University). Gaussian is a federally registered
 trademark of Gaussian, Inc.
  
 This software contains proprietary and confidential information,
 including trade secrets, belonging to Gaussian, Inc.
  
 This software is provided under written license and may be
 used, copied, transmitted, or stored only in accord with that
 written license.
  
 The following legend is applicable only to US Government
 contracts under FAR:
  
                    RESTRICTED RIGHTS LEGEND
  
 Use, reproduction and disclosure by the US Government is
 subject to restrictions as set forth in subparagraphs (a)
 and (c) of the Commercial Computer Software - Restricted
 Rights clause in FAR 52.227-19.
  
 Gaussian, Inc.
 340 Quinnipiac St., Bldg. 40, Wallingford CT 06492
  
  
 ---------------------------------------------------------------
 Warning -- This program may not be used in any manner that
 competes with the business of Gaussian, Inc. or will provide
 assistance to any competitor of Gaussian, Inc.  The licensee
 of this program is prohibited from giving any competitor of
 Gaussian, Inc. access to this program.  By using this program,
 the user acknowledges that Gaussian, Inc. is engaged in the
 business of creating and licensing software in the field of
 computational chemistry and represents and warrants to the
 licensee that it is not a competitor of Gaussian, Inc. and that
 it will not use this program in any manner prohibited above.
 ---------------------------------------------------------------
  

 Cite this work as:
 Gaussian 09, Revision D.01,
 M. J. Frisch, G. W. Trucks, H. B. Schlegel, G. E. Scuseria, 
 M. A. Robb, J. R. Cheeseman, G. Scalmani, V. Barone, B. Mennucci, 
 G. A. Petersson, H. Nakatsuji, M. Caricato, X. Li, H. P. Hratchian, 
 A. F. Izmaylov, J. Bloino, G. Zheng, J. L. Sonnenberg, M. Hada, 
 M. Ehara, K. Toyota, R. Fukuda, J. Hasegawa, M. Ishida, T. Nakajima, 
 Y. Honda, O. Kitao, H. Nakai, T. Vreven, J. A. Montgomery, Jr., 
 J. E. Peralta, F. Ogliaro, M. Bearpark, J. J. Heyd, E. Brothers, 
 K. N. Kudin, V. N. Staroverov, T. Keith, R. Kobayashi, J. Normand, 
 K. Raghavachari, A. Rendell, J. C. Burant, S. S. Iyengar, J. Tomasi, 
 M. Cossi, N. Rega, J. M. Millam, M. Klene, J. E. Knox, J. B. Cross, 
 V. Bakken, C. Adamo, J. Jaramillo, R. Gomperts, R. E. Stratmann, 
 O. Yazyev, A. J. Austin, R. Cammi, C. Pomelli, J. W. Ochterski, 
 R. L. Martin, K. Morokuma, V. G. Zakrzewski, G. A. Voth, 
 P. Salvador, J. J. Dannenberg, S. Dapprich, A. D. Daniels, 
 O. Farkas, J. B. Foresman, J. V. Ortiz, J. Cioslowski, 
 and D. J. Fox, Gaussian, Inc., Wallingford CT, 2013.
 
 ******************************************
 Gaussian 09:  IA32W-G09RevD.01 24-Apr-2013
                12-Mar-2026 
 ******************************************
 %chk=C:\Users\User\Desktop\IMRG\ECE+ML\Pd_Gr_NS_CO.chk
 ---------------------------------------
 # opt freq pm6 scf=qc geom=connectivity
 ---------------------------------------
 1/14=-1,18=20,19=15,26=1,38=1,57=2/1,3;
 2/9=110,12=2,17=6,18=5,40=1/2;
 3/5=2,16=1,25=1,41=3900000,71=1/1,2,3;
 4/35=1/1;
 5/5=2,8=3,35=1,38=5/8;
 6/7=2,8=2,9=2,10=2,28=1/1;
 7//1,2,3,16;
 1/14=-1,18=20,19=15,26=1/3(2);
 2/9=110/2;
 99//99;
 2/9=110/2;
 3/5=2,16=1,25=1,41=3900000,71=1,135=20/1,2,3;
 4/5=5,16=3,35=1/1;
 5/5=2,8=3,35=1,38=5/8;
 7//1,2,3,16;
 1/14=-1,18=20,19=15,26=1/3(-5);
 2/9=110/2;
 6/7=2,8=2,9=2,10=2,19=2,28=1/1;
 99/9=1/99;
 -----------
 Pd_Gr_NS_CO
 -----------
 Symbolic Z-matrix:
 Charge =  0 Multiplicity = 1
 C                    -1.48734   1.25527   0. 
 C                    -0.11458   1.26757   0.00021 
 C                     0.63784   2.49562   0.00024 
 C                     2.76155   3.73782  -0.0001 
 C                     4.87637   4.98541  -0.00058 
 C                     2.0603    2.51615  -0.00001 
 C                     4.19236   3.77104  -0.00038 
 C                    -3.68033   2.52318  -0.00036 
 C                    -5.85442   3.76459  -0.00032 
 C                    -2.22717   2.49171  -0.00016 
 C                    -4.4314    3.73294  -0.00038 
 C                    -6.52317   4.98925  -0.00022 
 C                    -1.49723   3.66543   0.00004 
 C                    -3.77063   4.98776  -0.00006 
 C                    -5.83173   6.21539  -0.00016 
 C                     0.61876   4.98443   0.00024 
 C                    -1.48853   6.30241   0.00019 
 C                    -3.64606   7.47395  -0.00004 
 C                     2.76334   6.23383  -0.00007 
 C                     0.64426   7.4887    0.0001 
 C                    -1.48605   8.7395   -0.00011 
 C                    -0.07268   3.72258   0.00025 
 C                    -4.42338   6.2256   -0.00018 
 C                     2.03942   4.98572   0.00009 
 C                    -0.08682   6.24592   0.00026 
 C                    -2.24783   7.50962   0.00012 
 C                     4.18329   6.20584  -0.00024 
 C                     2.05117   7.46407  -0.0001 
 C                    -0.10808   8.71832  -0.00011 
 H                     4.73683   7.14171  -0.00013 
 H                     2.60821   8.39816  -0.00027 
 H                     0.45062   9.65387  -0.00038 
 H                    -2.02415   9.68484  -0.0001 
 H                    -4.21082   8.4023   -0.00019 
 H                    -6.39162   7.1481   -0.0001 
 H                    -7.61353   5.00188  -0.00006 
 H                    -6.41745   2.83421  -0.00027 
 H                    -4.20834   1.57407  -0.00036 
 H                    -2.035     0.31468   0.00008 
 H                     0.44259   0.33017   0.00001 
 H                     2.60785   1.57708  -0.00018 
 H                     4.74181   2.8329   -0.00058 
 H                     5.96597   4.99136  -0.0008 
 Pd                   -2.25175   4.98582   0.00002 
 C                    -0.84693   5.1433   -0.00006 
 O                    -0.84693   5.1433    1.13957 
 
 Add virtual bond connecting atoms C45        and C16        Dist= 2.79D+00.
 Add virtual bond connecting atoms C45        and C17        Dist= 2.50D+00.
 Add virtual bond connecting atoms C45        and C25        Dist= 2.53D+00.
 Add virtual bond connecting atoms C45        and Pd44       Dist= 2.67D+00.

 GradGradGradGradGradGradGradGradGradGradGradGradGradGradGradGradGradGrad
 Berny optimization.
 Initialization pass.
                           ----------------------------
                           !    Initial Parameters    !
                           ! (Angstroms and Degrees)  !
 --------------------------                            --------------------------
 ! Name  Definition              Value          Derivative Info.                !
 --------------------------------------------------------------------------------
 ! R1    R(1,2)                  1.3728         estimate D2E/DX2                !
 ! R2    R(1,10)                 1.4409         estimate D2E/DX2                !
 ! R3    R(1,39)                 1.0884         estimate D2E/DX2                !
 ! R4    R(2,3)                  1.4402         estimate D2E/DX2                !
 ! R5    R(2,40)                 1.0905         estimate D2E/DX2                !
 ! R6    R(3,6)                  1.4226         estimate D2E/DX2                !
 ! R7    R(3,22)                 1.4178         estimate D2E/DX2                !
 ! R8    R(4,6)                  1.4086         estimate D2E/DX2                !
 ! R9    R(4,7)                  1.4312         estimate D2E/DX2                !
 ! R10   R(4,24)                 1.4418         estimate D2E/DX2                !
 ! R11   R(5,7)                  1.3938         estimate D2E/DX2                !
 ! R12   R(5,27)                 1.4035         estimate D2E/DX2                !
 ! R13   R(5,43)                 1.0896         estimate D2E/DX2                !
 ! R14   R(6,41)                 1.087          estimate D2E/DX2                !
 ! R15   R(7,42)                 1.0872         estimate D2E/DX2                !
 ! R16   R(8,10)                 1.4535         estimate D2E/DX2                !
 ! R17   R(8,11)                 1.4239         estimate D2E/DX2                !
 ! R18   R(8,38)                 1.0861         estimate D2E/DX2                !
 ! R19   R(9,11)                 1.4234         estimate D2E/DX2                !
 ! R20   R(9,12)                 1.3954         estimate D2E/DX2                !
 ! R21   R(9,37)                 1.0875         estimate D2E/DX2                !
 ! R22   R(10,13)                1.3822         estimate D2E/DX2                !
 ! R23   R(11,14)                1.4182         estimate D2E/DX2                !
 ! R24   R(12,15)                1.4077         estimate D2E/DX2                !
 ! R25   R(12,36)                1.0904         estimate D2E/DX2                !
 ! R26   R(13,22)                1.4257         estimate D2E/DX2                !
 ! R27   R(13,44)                1.5208         estimate D2E/DX2                !
 ! R28   R(14,23)                1.3994         estimate D2E/DX2                !
 ! R29   R(14,44)                1.5189         estimate D2E/DX2                !
 ! R30   R(15,23)                1.4084         estimate D2E/DX2                !
 ! R31   R(15,35)                1.0879         estimate D2E/DX2                !
 ! R32   R(16,22)                1.4389         estimate D2E/DX2                !
 ! R33   R(16,24)                1.4207         estimate D2E/DX2                !
 ! R34   R(16,25)                1.4454         estimate D2E/DX2                !
 ! R35   R(16,45)                1.4743         estimate D2E/DX2                !
 ! R36   R(17,25)                1.4028         estimate D2E/DX2                !
 ! R37   R(17,26)                1.4261         estimate D2E/DX2                !
 ! R38   R(17,44)                1.5218         estimate D2E/DX2                !
 ! R39   R(17,45)                1.3248         estimate D2E/DX2                !
 ! R40   R(18,23)                1.4706         estimate D2E/DX2                !
 ! R41   R(18,26)                1.3987         estimate D2E/DX2                !
 ! R42   R(18,34)                1.0866         estimate D2E/DX2                !
 ! R43   R(19,24)                1.4429         estimate D2E/DX2                !
 ! R44   R(19,27)                1.4202         estimate D2E/DX2                !
 ! R45   R(19,28)                1.4215         estimate D2E/DX2                !
 ! R46   R(20,25)                1.4419         estimate D2E/DX2                !
 ! R47   R(20,28)                1.4071         estimate D2E/DX2                !
 ! R48   R(20,29)                1.4415         estimate D2E/DX2                !
 ! R49   R(21,26)                1.4467         estimate D2E/DX2                !
 ! R50   R(21,29)                1.3781         estimate D2E/DX2                !
 ! R51   R(21,33)                1.0878         estimate D2E/DX2                !
 ! R52   R(25,45)                1.3392         estimate D2E/DX2                !
 ! R53   R(27,30)                1.0873         estimate D2E/DX2                !
 ! R54   R(28,31)                1.0876         estimate D2E/DX2                !
 ! R55   R(29,32)                1.0897         estimate D2E/DX2                !
 ! R56   R(44,45)                1.4136         estimate D2E/DX2                !
 ! R57   R(45,46)                1.1396         estimate D2E/DX2                !
 ! A1    A(2,1,10)             120.3811         estimate D2E/DX2                !
 ! A2    A(2,1,39)             120.7234         estimate D2E/DX2                !
 ! A3    A(10,1,39)            118.8954         estimate D2E/DX2                !
 ! A4    A(1,2,3)              122.0091         estimate D2E/DX2                !
 ! A5    A(1,2,40)             120.2126         estimate D2E/DX2                !
 ! A6    A(3,2,40)             117.7783         estimate D2E/DX2                !
 ! A7    A(2,3,6)              122.323          estimate D2E/DX2                !
 ! A8    A(2,3,22)             118.4295         estimate D2E/DX2                !
 ! A9    A(6,3,22)             119.2474         estimate D2E/DX2                !
 ! A10   A(6,4,7)              121.1867         estimate D2E/DX2                !
 ! A11   A(6,4,24)             120.0864         estimate D2E/DX2                !
 ! A12   A(7,4,24)             118.7269         estimate D2E/DX2                !
 ! A13   A(7,5,27)             121.017          estimate D2E/DX2                !
 ! A14   A(7,5,43)             119.7036         estimate D2E/DX2                !
 ! A15   A(27,5,43)            119.2794         estimate D2E/DX2                !
 ! A16   A(3,6,4)              120.6839         estimate D2E/DX2                !
 ! A17   A(3,6,41)             119.4183         estimate D2E/DX2                !
 ! A18   A(4,6,41)             119.8978         estimate D2E/DX2                !
 ! A19   A(4,7,5)              120.7208         estimate D2E/DX2                !
 ! A20   A(4,7,42)             119.0266         estimate D2E/DX2                !
 ! A21   A(5,7,42)             120.2526         estimate D2E/DX2                !
 ! A22   A(10,8,11)            123.0746         estimate D2E/DX2                !
 ! A23   A(10,8,38)            117.8469         estimate D2E/DX2                !
 ! A24   A(11,8,38)            119.0785         estimate D2E/DX2                !
 ! A25   A(11,9,12)            119.9113         estimate D2E/DX2                !
 ! A26   A(11,9,37)            119.9067         estimate D2E/DX2                !
 ! A27   A(12,9,37)            120.182          estimate D2E/DX2                !
 ! A28   A(1,10,8)             122.1353         estimate D2E/DX2                !
 ! A29   A(1,10,13)            117.2279         estimate D2E/DX2                !
 ! A30   A(8,10,13)            120.6368         estimate D2E/DX2                !
 ! A31   A(8,11,9)             123.1078         estimate D2E/DX2                !
 ! A32   A(8,11,14)            120.3955         estimate D2E/DX2                !
 ! A33   A(9,11,14)            116.4967         estimate D2E/DX2                !
 ! A34   A(9,12,15)            121.9432         estimate D2E/DX2                !
 ! A35   A(9,12,36)            119.3009         estimate D2E/DX2                !
 ! A36   A(15,12,36)           118.7559         estimate D2E/DX2                !
 ! A37   A(10,13,22)           124.1752         estimate D2E/DX2                !
 ! A38   A(10,13,44)           118.3771         estimate D2E/DX2                !
 ! A39   A(22,13,44)           117.4477         estimate D2E/DX2                !
 ! A40   A(11,14,23)           124.4256         estimate D2E/DX2                !
 ! A41   A(11,14,44)           117.6975         estimate D2E/DX2                !
 ! A42   A(23,14,44)           117.8769         estimate D2E/DX2                !
 ! A43   A(12,15,23)           119.8349         estimate D2E/DX2                !
 ! A44   A(12,15,35)           119.6049         estimate D2E/DX2                !
 ! A45   A(23,15,35)           120.5602         estimate D2E/DX2                !
 ! A46   A(22,16,24)           118.7733         estimate D2E/DX2                !
 ! A47   A(22,16,25)           122.0594         estimate D2E/DX2                !
 ! A48   A(22,16,45)            67.465          estimate D2E/DX2                !
 ! A49   A(24,16,25)           119.1674         estimate D2E/DX2                !
 ! A50   A(25,17,26)           124.4765         estimate D2E/DX2                !
 ! A51   A(25,17,44)           117.7927         estimate D2E/DX2                !
 ! A52   A(26,17,44)           117.7308         estimate D2E/DX2                !
 ! A53   A(23,18,26)           123.3713         estimate D2E/DX2                !
 ! A54   A(23,18,34)           116.7761         estimate D2E/DX2                !
 ! A55   A(26,18,34)           119.8525         estimate D2E/DX2                !
 ! A56   A(24,19,27)           118.9848         estimate D2E/DX2                !
 ! A57   A(24,19,28)           119.8195         estimate D2E/DX2                !
 ! A58   A(27,19,28)           121.1957         estimate D2E/DX2                !
 ! A59   A(25,20,28)           119.4641         estimate D2E/DX2                !
 ! A60   A(25,20,29)           118.073          estimate D2E/DX2                !
 ! A61   A(28,20,29)           122.4629         estimate D2E/DX2                !
 ! A62   A(26,21,29)           120.8936         estimate D2E/DX2                !
 ! A63   A(26,21,33)           118.5771         estimate D2E/DX2                !
 ! A64   A(29,21,33)           120.5293         estimate D2E/DX2                !
 ! A65   A(3,22,13)            117.777          estimate D2E/DX2                !
 ! A66   A(3,22,16)            121.2041         estimate D2E/DX2                !
 ! A67   A(13,22,16)           121.0189         estimate D2E/DX2                !
 ! A68   A(14,23,15)           117.3883         estimate D2E/DX2                !
 ! A69   A(14,23,18)           120.2865         estimate D2E/DX2                !
 ! A70   A(15,23,18)           122.3252         estimate D2E/DX2                !
 ! A71   A(4,24,16)            120.005          estimate D2E/DX2                !
 ! A72   A(4,24,19)            119.8289         estimate D2E/DX2                !
 ! A73   A(16,24,19)           120.1662         estimate D2E/DX2                !
 ! A74   A(16,25,17)           121.5273         estimate D2E/DX2                !
 ! A75   A(16,25,20)           120.3138         estimate D2E/DX2                !
 ! A76   A(17,25,20)           118.159          estimate D2E/DX2                !
 ! A77   A(17,26,18)           120.707          estimate D2E/DX2                !
 ! A78   A(17,26,21)           116.0575         estimate D2E/DX2                !
 ! A79   A(18,26,21)           123.2355         estimate D2E/DX2                !
 ! A80   A(5,27,19)            120.7216         estimate D2E/DX2                !
 ! A81   A(5,27,30)            119.8045         estimate D2E/DX2                !
 ! A82   A(19,27,30)           119.4739         estimate D2E/DX2                !
 ! A83   A(19,28,20)           121.0692         estimate D2E/DX2                !
 ! A84   A(19,28,31)           119.1239         estimate D2E/DX2                !
 ! A85   A(20,28,31)           119.8069         estimate D2E/DX2                !
 ! A86   A(20,29,21)           122.3405         estimate D2E/DX2                !
 ! A87   A(20,29,32)           117.6945         estimate D2E/DX2                !
 ! A88   A(21,29,32)           119.965          estimate D2E/DX2                !
 ! A89   A(13,44,14)           119.8184         estimate D2E/DX2                !
 ! A90   A(13,44,17)           120.1541         estimate D2E/DX2                !
 ! A91   A(13,44,45)            66.6508         estimate D2E/DX2                !
 ! A92   A(14,44,17)           120.0275         estimate D2E/DX2                !
 ! A93   A(16,45,17)           125.1519         estimate D2E/DX2                !
 ! A94   A(16,45,46)            89.9883         estimate D2E/DX2                !
 ! A95   A(17,45,46)            89.9894         estimate D2E/DX2                !
 ! A96   A(25,45,44)           130.9772         estimate D2E/DX2                !
 ! A97   A(25,45,46)            89.9863         estimate D2E/DX2                !
 ! A98   A(44,45,46)            89.997          estimate D2E/DX2                !
 ! A99   L(24,16,45,22,-1)     186.2383         estimate D2E/DX2                !
 ! A100  L(26,17,45,9,-1)      176.797          estimate D2E/DX2                !
 ! A101  L(20,25,45,4,-1)      184.1142         estimate D2E/DX2                !
 ! A102  L(14,44,45,13,-1)     186.4692         estimate D2E/DX2                !
 ! A103  L(16,45,44,46,-1)     179.9853         estimate D2E/DX2                !
 ! A104  L(24,16,45,22,-2)     180.0197         estimate D2E/DX2                !
 ! A105  L(26,17,45,9,-2)      179.9871         estimate D2E/DX2                !
 ! A106  L(20,25,45,4,-2)      180.0209         estimate D2E/DX2                !
 ! A107  L(14,44,45,13,-2)     179.9933         estimate D2E/DX2                !
 ! A108  L(16,45,44,46,-2)     192.5823         estimate D2E/DX2                !
 ! D1    D(10,1,2,3)            -0.0025         estimate D2E/DX2                !
 ! D2    D(10,1,2,40)         -179.9806         estimate D2E/DX2                !
 ! D3    D(39,1,2,3)          -179.9941         estimate D2E/DX2                !
 ! D4    D(39,1,2,40)            0.0278         estimate D2E/DX2                !
 ! D5    D(2,1,10,8)          -179.9988         estimate D2E/DX2                !
 ! D6    D(2,1,10,13)           -0.0059         estimate D2E/DX2                !
 ! D7    D(39,1,10,8)           -0.0071         estimate D2E/DX2                !
 ! D8    D(39,1,10,13)         179.9859         estimate D2E/DX2                !
 ! D9    D(1,2,3,6)           -179.9775         estimate D2E/DX2                !
 ! D10   D(1,2,3,22)             0.0102         estimate D2E/DX2                !
 ! D11   D(40,2,3,6)             0.0012         estimate D2E/DX2                !
 ! D12   D(40,2,3,22)          179.9889         estimate D2E/DX2                !
 ! D13   D(2,3,6,4)            179.9947         estimate D2E/DX2                !
 ! D14   D(2,3,6,41)            -0.0032         estimate D2E/DX2                !
 ! D15   D(22,3,6,4)             0.0071         estimate D2E/DX2                !
 ! D16   D(22,3,6,41)         -179.9908         estimate D2E/DX2                !
 ! D17   D(2,3,22,13)           -0.0093         estimate D2E/DX2                !
 ! D18   D(2,3,22,16)         -179.9984         estimate D2E/DX2                !
 ! D19   D(6,3,22,13)          179.9788         estimate D2E/DX2                !
 ! D20   D(6,3,22,16)           -0.0104         estimate D2E/DX2                !
 ! D21   D(7,4,6,3)           -179.9983         estimate D2E/DX2                !
 ! D22   D(7,4,6,41)            -0.0004         estimate D2E/DX2                !
 ! D23   D(24,4,6,3)             0.0005         estimate D2E/DX2                !
 ! D24   D(24,4,6,41)          179.9984         estimate D2E/DX2                !
 ! D25   D(6,4,7,5)            179.9946         estimate D2E/DX2                !
 ! D26   D(6,4,7,42)             0.0023         estimate D2E/DX2                !
 ! D27   D(24,4,7,5)            -0.0043         estimate D2E/DX2                !
 ! D28   D(24,4,7,42)         -179.9966         estimate D2E/DX2                !
 ! D29   D(6,4,24,16)           -0.0051         estimate D2E/DX2                !
 ! D30   D(6,4,24,19)         -179.9968         estimate D2E/DX2                !
 ! D31   D(7,4,24,16)          179.9938         estimate D2E/DX2                !
 ! D32   D(7,4,24,19)            0.0021         estimate D2E/DX2                !
 ! D33   D(27,5,7,4)             0.0119         estimate D2E/DX2                !
 ! D34   D(27,5,7,42)         -179.9959         estimate D2E/DX2                !
 ! D35   D(43,5,7,4)          -179.9999         estimate D2E/DX2                !
 ! D36   D(43,5,7,42)           -0.0077         estimate D2E/DX2                !
 ! D37   D(7,5,27,19)           -0.0173         estimate D2E/DX2                !
 ! D38   D(7,5,27,30)          179.9838         estimate D2E/DX2                !
 ! D39   D(43,5,27,19)         179.9944         estimate D2E/DX2                !
 ! D40   D(43,5,27,30)          -0.0044         estimate D2E/DX2                !
 ! D41   D(11,8,10,1)          179.9932         estimate D2E/DX2                !
 ! D42   D(11,8,10,13)           0.0005         estimate D2E/DX2                !
 ! D43   D(38,8,10,1)            0.002          estimate D2E/DX2                !
 ! D44   D(38,8,10,13)        -179.9907         estimate D2E/DX2                !
 ! D45   D(10,8,11,9)         -179.9875         estimate D2E/DX2                !
 ! D46   D(10,8,11,14)          -0.0059         estimate D2E/DX2                !
 ! D47   D(38,8,11,9)            0.0036         estimate D2E/DX2                !
 ! D48   D(38,8,11,14)         179.9852         estimate D2E/DX2                !
 ! D49   D(12,9,11,8)          179.9943         estimate D2E/DX2                !
 ! D50   D(12,9,11,14)           0.012          estimate D2E/DX2                !
 ! D51   D(37,9,11,8)           -0.0011         estimate D2E/DX2                !
 ! D52   D(37,9,11,14)        -179.9834         estimate D2E/DX2                !
 ! D53   D(11,9,12,15)          -0.0008         estimate D2E/DX2                !
 ! D54   D(11,9,12,36)        -179.9935         estimate D2E/DX2                !
 ! D55   D(37,9,12,15)         179.9946         estimate D2E/DX2                !
 ! D56   D(37,9,12,36)           0.0019         estimate D2E/DX2                !
 ! D57   D(1,10,13,22)           0.0067         estimate D2E/DX2                !
 ! D58   D(1,10,13,44)        -179.9942         estimate D2E/DX2                !
 ! D59   D(8,10,13,22)         179.9997         estimate D2E/DX2                !
 ! D60   D(8,10,13,44)          -0.0012         estimate D2E/DX2                !
 ! D61   D(8,11,14,23)         179.9937         estimate D2E/DX2                !
 ! D62   D(8,11,14,44)           0.0113         estimate D2E/DX2                !
 ! D63   D(9,11,14,23)          -0.0235         estimate D2E/DX2                !
 ! D64   D(9,11,14,44)         179.9941         estimate D2E/DX2                !
 ! D65   D(9,12,15,23)          -0.0008         estimate D2E/DX2                !
 ! D66   D(9,12,15,35)         179.9989         estimate D2E/DX2                !
 ! D67   D(36,12,15,23)        179.9919         estimate D2E/DX2                !
 ! D68   D(36,12,15,35)         -0.0083         estimate D2E/DX2                !
 ! D69   D(10,13,22,3)           0.001          estimate D2E/DX2                !
 ! D70   D(10,13,22,16)        179.9902         estimate D2E/DX2                !
 ! D71   D(44,13,22,3)        -179.9981         estimate D2E/DX2                !
 ! D72   D(44,13,22,16)         -0.0089         estimate D2E/DX2                !
 ! D73   D(10,13,44,14)          0.0069         estimate D2E/DX2                !
 ! D74   D(10,13,44,17)       -179.9981         estimate D2E/DX2                !
 ! D75   D(10,13,44,45)       -179.9864         estimate D2E/DX2                !
 ! D76   D(22,13,44,14)       -179.9939         estimate D2E/DX2                !
 ! D77   D(22,13,44,17)          0.001          estimate D2E/DX2                !
 ! D78   D(22,13,44,45)          0.0128         estimate D2E/DX2                !
 ! D79   D(11,14,23,15)          0.0221         estimate D2E/DX2                !
 ! D80   D(11,14,23,18)       -179.9904         estimate D2E/DX2                !
 ! D81   D(44,14,23,15)       -179.9955         estimate D2E/DX2                !
 ! D82   D(44,14,23,18)         -0.008          estimate D2E/DX2                !
 ! D83   D(11,14,24,4)          -0.0042         estimate D2E/DX2                !
 ! D84   D(11,14,24,19)        179.9786         estimate D2E/DX2                !
 ! D85   D(23,14,24,4)        -179.9861         estimate D2E/DX2                !
 ! D86   D(23,14,24,19)         -0.0034         estimate D2E/DX2                !
 ! D87   D(11,14,44,13)         -0.012          estimate D2E/DX2                !
 ! D88   D(11,14,44,17)        179.993          estimate D2E/DX2                !
 ! D89   D(23,14,44,13)       -179.9956         estimate D2E/DX2                !
 ! D90   D(23,14,44,17)          0.0095         estimate D2E/DX2                !
 ! D91   D(11,14,45,25)       -179.9975         estimate D2E/DX2                !
 ! D92   D(11,14,45,46)        -90.0146         estimate D2E/DX2                !
 ! D93   D(23,14,45,25)          0.0224         estimate D2E/DX2                !
 ! D94   D(23,14,45,46)         90.0052         estimate D2E/DX2                !
 ! D95   D(12,15,23,14)         -0.0092         estimate D2E/DX2                !
 ! D96   D(12,15,23,18)       -179.9964         estimate D2E/DX2                !
 ! D97   D(35,15,23,14)        179.991          estimate D2E/DX2                !
 ! D98   D(35,15,23,18)          0.0039         estimate D2E/DX2                !
 ! D99   D(24,16,22,3)           0.0059         estimate D2E/DX2                !
 ! D100  D(24,16,22,13)       -179.9829         estimate D2E/DX2                !
 ! D101  D(25,16,22,3)        -179.9999         estimate D2E/DX2                !
 ! D102  D(25,16,22,13)          0.0113         estimate D2E/DX2                !
 ! D103  D(45,16,22,3)         179.9861         estimate D2E/DX2                !
 ! D104  D(45,16,22,13)         -0.0027         estimate D2E/DX2                !
 ! D105  D(22,16,24,4)           0.0019         estimate D2E/DX2                !
 ! D106  D(22,16,24,19)        179.9936         estimate D2E/DX2                !
 ! D107  D(25,16,24,4)        -179.9925         estimate D2E/DX2                !
 ! D108  D(25,16,24,19)         -0.0008         estimate D2E/DX2                !
 ! D109  D(28,20,45,44)       -179.9953         estimate D2E/DX2                !
 ! D110  D(28,20,45,46)         90.0112         estimate D2E/DX2                !
 ! D111  D(29,20,45,44)         -0.0172         estimate D2E/DX2                !
 ! D112  D(29,20,45,46)        -90.0108         estimate D2E/DX2                !
 ! D113  D(4,24,44,13)           0.0096         estimate D2E/DX2                !
 ! D114  D(19,24,44,13)        179.9929         estimate D2E/DX2                !
 ! D115  D(4,24,45,17)         179.9963         estimate D2E/DX2                !
 ! D116  D(4,24,45,46)          90.0106         estimate D2E/DX2                !
 ! D117  D(19,24,45,17)         -0.0227         estimate D2E/DX2                !
 ! D118  D(19,24,45,46)        -90.0084         estimate D2E/DX2                !
 ! D119  D(22,16,25,17)         -0.005          estimate D2E/DX2                !
 ! D120  D(22,16,25,20)       -179.9929         estimate D2E/DX2                !
 ! D121  D(24,16,25,17)        179.9893         estimate D2E/DX2                !
 ! D122  D(24,16,25,20)          0.0013         estimate D2E/DX2                !
 ! D123  D(22,16,45,17)        179.9735         estimate D2E/DX2                !
 ! D124  D(22,16,45,46)         89.9947         estimate D2E/DX2                !
 ! D125  D(26,17,25,16)       -179.9962         estimate D2E/DX2                !
 ! D126  D(26,17,25,20)         -0.008          estimate D2E/DX2                !
 ! D127  D(44,17,25,16)         -0.003          estimate D2E/DX2                !
 ! D128  D(44,17,25,20)        179.9852         estimate D2E/DX2                !
 ! D129  D(25,17,26,18)        179.9954         estimate D2E/DX2                !
 ! D130  D(25,17,26,21)          0.0108         estimate D2E/DX2                !
 ! D131  D(44,17,26,18)          0.0021         estimate D2E/DX2                !
 ! D132  D(44,17,26,21)       -179.9825         estimate D2E/DX2                !
 ! D133  D(18,26,45,16)       -179.9926         estimate D2E/DX2                !
 ! D134  D(18,26,45,46)        -90.01           estimate D2E/DX2                !
 ! D135  D(21,26,45,16)          0.0297         estimate D2E/DX2                !
 ! D136  D(21,26,45,46)         90.0123         estimate D2E/DX2                !
 ! D137  D(25,17,44,13)          0.0049         estimate D2E/DX2                !
 ! D138  D(25,17,44,14)        179.9998         estimate D2E/DX2                !
 ! D139  D(26,17,44,13)        179.9986         estimate D2E/DX2                !
 ! D140  D(26,17,44,14)         -0.0065         estimate D2E/DX2                !
 ! D141  D(26,18,23,14)          0.0039         estimate D2E/DX2                !
 ! D142  D(26,18,23,15)        179.9907         estimate D2E/DX2                !
 ! D143  D(34,18,23,14)        179.9976         estimate D2E/DX2                !
 ! D144  D(34,18,23,15)         -0.0156         estimate D2E/DX2                !
 ! D145  D(23,18,26,17)         -0.0007         estimate D2E/DX2                !
 ! D146  D(23,18,26,21)        179.9827         estimate D2E/DX2                !
 ! D147  D(34,18,26,17)       -179.9942         estimate D2E/DX2                !
 ! D148  D(34,18,26,21)         -0.0107         estimate D2E/DX2                !
 ! D149  D(27,19,24,4)          -0.0072         estimate D2E/DX2                !
 ! D150  D(27,19,24,16)       -179.999          estimate D2E/DX2                !
 ! D151  D(28,19,24,4)         179.9902         estimate D2E/DX2                !
 ! D152  D(28,19,24,16)         -0.0015         estimate D2E/DX2                !
 ! D153  D(24,19,27,5)           0.0148         estimate D2E/DX2                !
 ! D154  D(24,19,27,30)       -179.9864         estimate D2E/DX2                !
 ! D155  D(28,19,27,5)        -179.9826         estimate D2E/DX2                !
 ! D156  D(28,19,27,30)          0.0163         estimate D2E/DX2                !
 ! D157  D(24,19,28,20)          0.0035         estimate D2E/DX2                !
 ! D158  D(24,19,28,31)       -179.9967         estimate D2E/DX2                !
 ! D159  D(27,19,28,20)       -179.9991         estimate D2E/DX2                !
 ! D160  D(27,19,28,31)          0.0007         estimate D2E/DX2                !
 ! D161  D(28,20,25,16)          0.0006         estimate D2E/DX2                !
 ! D162  D(28,20,25,17)       -179.9877         estimate D2E/DX2                !
 ! D163  D(29,20,25,16)        179.9894         estimate D2E/DX2                !
 ! D164  D(29,20,25,17)          0.0011         estimate D2E/DX2                !
 ! D165  D(25,20,28,19)         -0.003          estimate D2E/DX2                !
 ! D166  D(25,20,28,31)        179.9972         estimate D2E/DX2                !
 ! D167  D(29,20,28,19)       -179.9913         estimate D2E/DX2                !
 ! D168  D(29,20,28,31)          0.0089         estimate D2E/DX2                !
 ! D169  D(25,20,29,21)          0.0025         estimate D2E/DX2                !
 ! D170  D(25,20,29,32)       -179.9913         estimate D2E/DX2                !
 ! D171  D(28,20,29,21)        179.991          estimate D2E/DX2                !
 ! D172  D(28,20,29,32)         -0.0029         estimate D2E/DX2                !
 ! D173  D(29,21,26,17)         -0.0068         estimate D2E/DX2                !
 ! D174  D(29,21,26,18)       -179.9909         estimate D2E/DX2                !
 ! D175  D(33,21,26,17)       -179.9966         estimate D2E/DX2                !
 ! D176  D(33,21,26,18)          0.0193         estimate D2E/DX2                !
 ! D177  D(26,21,29,20)          0.0005         estimate D2E/DX2                !
 ! D178  D(26,21,29,32)        179.9942         estimate D2E/DX2                !
 ! D179  D(33,21,29,20)        179.9901         estimate D2E/DX2                !
 ! D180  D(33,21,29,32)         -0.0162         estimate D2E/DX2                !
 ! D181  D(13,44,45,25)       -179.9769         estimate D2E/DX2                !
 ! D182  D(13,44,45,46)        -89.9977         estimate D2E/DX2                !
 --------------------------------------------------------------------------------
 Trust Radius=3.00D-01 FncErr=1.00D-07 GrdErr=1.00D-07
 Number of steps in this run=    276 maximum allowed number of steps=    276.
 GradGradGradGradGradGradGradGradGradGradGradGradGradGradGradGradGradGrad

                          Input orientation:                          
 ---------------------------------------------------------------------
 Center     Atomic      Atomic             Coordinates (Angstroms)
 Number     Number       Type             X           Y           Z
 ---------------------------------------------------------------------
      1          6           0       -1.487342    1.255274    0.000000
      2          6           0       -0.114579    1.267573    0.000214
      3          6           0        0.637842    2.495615    0.000237
      4          6           0        2.761554    3.737816   -0.000096
      5          6           0        4.876369    4.985412   -0.000577
      6          6           0        2.060297    2.516154   -0.000014
      7          6           0        4.192364    3.771038   -0.000385
      8          6           0       -3.680332    2.523182   -0.000361
      9          6           0       -5.854424    3.764586   -0.000316
     10          6           0       -2.227169    2.491707   -0.000158
     11          6           0       -4.431403    3.732940   -0.000377
     12          6           0       -6.523170    4.989254   -0.000217
     13          6           0       -1.497229    3.665426    0.000042
     14          6           0       -3.770635    4.987756   -0.000065
     15          6           0       -5.831731    6.215386   -0.000158
     16          6           0        0.618765    4.984426    0.000243
     17          6           0       -1.488529    6.302410    0.000188
     18          6           0       -3.646057    7.473946   -0.000044
     19          6           0        2.763344    6.233835   -0.000066
     20          6           0        0.644264    7.488696    0.000097
     21          6           0       -1.486048    8.739497   -0.000106
     22          6           0       -0.072682    3.722583    0.000254
     23          6           0       -4.423380    6.225598   -0.000181
     24          6           0        2.039423    4.985716    0.000088
     25          6           0       -0.086819    6.245918    0.000262
     26          6           0       -2.247828    7.509622    0.000125
     27          6           0        4.183286    6.205843   -0.000242
     28          6           0        2.051167    7.464069   -0.000096
     29          6           0       -0.108077    8.718323   -0.000112
     30          1           0        4.736826    7.141709   -0.000134
     31          1           0        2.608212    8.398162   -0.000269
     32          1           0        0.450622    9.653867   -0.000382
     33          1           0       -2.024149    9.684844   -0.000104
     34          1           0       -4.210816    8.402296   -0.000186
     35          1           0       -6.391623    7.148101   -0.000098
     36          1           0       -7.613530    5.001882   -0.000063
     37          1           0       -6.417453    2.834207   -0.000272
     38          1           0       -4.208336    1.574068   -0.000359
     39          1           0       -2.035005    0.314677    0.000084
     40          1           0        0.442586    0.330166    0.000014
     41          1           0        2.607852    1.577080   -0.000179
     42          1           0        4.741811    2.832903   -0.000582
     43          1           0        5.965971    4.991361   -0.000799
     44         46           0       -2.251750    4.985817    0.000017
     45          6           0       -0.846931    5.143296   -0.000058
     46          8           0       -0.846931    5.143296    1.139571
 ---------------------------------------------------------------------
                    Distance matrix (angstroms):
                    1          2          3          4          5
     1  C    0.000000
     2  C    1.372818   0.000000
     3  C    2.460661   1.440217   0.000000
     4  C    4.920988   3.791337   2.460328   0.000000
     5  C    7.376364   6.223494   4.915709   2.455390   0.000000
     6  C    3.765044   2.507795   1.422603   1.408623   3.745330
     7  C    6.211934   4.981675   3.776417   1.431196   1.393760
     8  C    2.533140   3.780364   4.318263   6.555397   8.903916
     9  C    5.036670   6.259464   6.615119   8.616019  10.800015
    10  C    1.440871   2.441627   2.865014   5.141998   7.528533
    11  C    3.847899   4.971218   5.218067   7.192959   9.391662
    12  C    6.269144   7.410867   7.582765   9.368681  11.399540
    13  C    2.410172   2.767927   2.434540   4.259398   6.508849
    14  C    4.375483   5.215986   5.064132   6.650702   8.647004
    15  C    6.593666   7.560866   7.462713   8.943316  10.778509
    16  C    4.282786   3.788507   2.488884   2.479028   4.257604
    17  C    5.047136   5.218939   4.360406   4.963904   6.499724
    18  C    6.582699   7.140757   6.567768   7.417287   8.878319
    19  C    6.546327   5.739878   4.300238   2.496019   2.454269
    20  C    6.587813   6.267233   4.993085   4.307204   4.917026
    21  C    7.484223   7.596748   6.595223   6.561930   7.387389
    22  C    2.844095   2.455367   1.417849   2.834277   5.107626
    23  C    5.772732   6.568697   6.287188   7.603442   9.382078
    24  C    5.133641   4.297012   2.857452   1.441779   2.836946
    25  C    5.183434   4.978422   3.819674   3.795234   5.120753
    26  C    6.300413   6.596509   5.785098   6.270600   7.558163
    27  C    7.527559   6.546613   5.131857   2.848241   1.403502
    28  C    7.146340   6.564070   5.165562   3.793364   3.758392
    29  C    7.589432   7.450753   6.267256   5.748063   6.227305
    30  H    8.566818   7.618504   6.195794   3.935503   2.160808
    31  H    8.233736   7.632751   6.222734   4.662868   4.097731
    32  H    8.619284   8.405318   7.160700   6.351382   6.432862
    33  H    8.446645   8.631159   7.666238   7.633485   8.348761
    34  H    7.648348   8.226994   7.641883   8.388761   9.708349
    35  H    7.666641   8.601273   8.429650   9.767839  11.473660
    36  H    7.181034   8.377311   8.623602  10.451805  12.489910
    37  H    5.176778   6.494657   7.063415   9.223376  11.496873
    38  H    2.739605   4.105214   4.933020   7.298025   9.704078
    39  H    1.088420   2.143839   3.449725   5.892780   8.341634
    40  H    2.140197   1.090488   2.174234   4.121855   6.428821
    41  H    4.107818   2.739967   2.173625   2.166196   4.094252
    42  H    6.425828   5.102429   4.117806   2.177221   2.156710
    43  H    8.337279   7.130195   5.883681   3.440881   1.089618
    44  Pd   3.808053   4.288687   3.814558   5.166306   7.128119
    45  C    3.940411   3.944308   3.035583   3.872535   5.725477
    46  O    4.101885   4.105569   3.242352   4.036752   5.837896
                    6          7          8          9         10
     6  C    0.000000
     7  C    2.473953   0.000000
     8  C    5.740633   7.970978   0.000000
     9  C    8.012576  10.046789   2.503549   0.000000
    10  C    4.287535   6.545768   1.453504   3.844112   0.000000
    11  C    6.604751   8.623851   1.423946   1.423372   2.529685
    12  C    8.932643  10.784559   3.763407   1.395361   4.969242
    13  C    3.738558   5.690573   2.463871   4.358323   1.382183
    14  C    6.333133   8.055417   2.466228   2.416262   2.934714
    15  C    8.715987  10.317816   4.273276   2.450906   5.182534
    16  C    2.858387   3.773979   4.953783   6.587123   3.783251
    17  C    5.189402   6.219356   4.368817   5.049910   3.881629
    18  C    7.559244   8.669047   4.950883   4.316971   5.180343
    19  C    3.783573   2.847361   7.435719   8.964548   6.237687
    20  C    5.170233   5.139065   6.584714   7.490123   5.763248
    21  C    7.162859   7.545194   6.592227   6.620608   6.291593
    22  C    2.450524   4.265321   3.801803   5.781894   2.481304
    23  C    7.469808   8.958565   3.776242   2.846835   4.331892
    24  C    2.469650   2.471962   6.227333   7.987739   4.942053
    25  C    4.303631   4.943322   5.174177   6.278716   4.321481
    26  C    6.595048   7.446683   5.188126   5.199311   5.017958
    27  C    4.256863   2.434822   8.683230  10.330312   7.408693
    28  C    4.947924   4.268865   7.567196   8.728376   6.559615
    29  C    6.570293   6.555106   7.151279   7.586832   6.577333
    30  H    5.344115   3.414361   9.601008  11.116633   8.373753
    31  H    5.907472   4.890788   8.605881   9.648121   7.633290
    32  H    7.316966   6.971965   8.240841   8.627702   7.646378
    33  H    8.250625   8.580101   7.350670   7.051274   7.196001
    34  H    8.600786   9.594894   5.902999   4.920346   6.234575
    35  H    9.637940  11.109695   5.361061   3.425895   6.246974
    36  H    9.988081  11.869882   4.649085   2.150664   5.942547
    37  H    8.483714  10.651096   2.754735   1.087477   4.204258
    38  H    6.339028   8.683227   1.086096   2.740068   2.183365
    39  H    4.649516   7.122257   2.754015   5.146827   2.185495
    40  H    2.719473   5.089246   4.669879   7.172696   3.435091
    41  H    1.087050   2.706313   6.358960   8.740440   4.920769
    42  H    2.700158   1.087194   8.427837  10.637116   6.977328
    43  H    4.623953   2.152875   9.957062  11.883884   8.565968
    44  Pd   4.969203   6.557613   2.847002   3.804032   2.494231
    45  C    3.918398   5.222794   3.859166   5.193826   2.989311
    46  O    4.080747   5.345753   4.024004   5.317440   3.199213
                   11         12         13         14         15
    11  C    0.000000
    12  C    2.440044   0.000000
    13  C    2.934951   5.197365   0.000000
    14  C    1.418161   2.752535   2.630006   0.000000
    15  C    2.850168   1.407654   5.028937   2.398999   0.000000
    16  C    5.202924   7.141937   2.493430   4.389401   6.566899
    17  C    3.906749   5.203075   2.636998   2.633690   4.344074
    18  C    3.822551   3.801510   4.372904   2.489309   2.522131
    19  C    7.617012   9.369543   4.974858   6.651736   8.595095
    20  C    6.314120   7.590740   4.382166   5.074055   6.599988
    21  C    5.808677   6.279882   5.074083   4.392596   5.025544
    22  C    4.358734   6.573679   1.425693   3.908391   6.275406
    23  C    2.492671   2.436733   3.888038   1.399403   1.408389
    24  C    6.590982   8.562594   3.775060   5.810059   7.966628
    25  C    5.019011   6.557882   2.940781   3.892746   5.744993
    26  C    4.362491   4.962943   3.916790   2.945972   3.810434
    27  C    8.962595  10.775355   6.222697   8.046651  10.015021
    28  C    7.479642   8.924347   5.198154   6.326571   7.981184
    29  C    6.598879   7.420201   5.240374   5.227950   6.246993
    30  H    9.781418  11.463882   7.137786   8.775899  10.609076
    31  H    8.445146   9.746938   6.265256   7.233295   8.717635
    32  H    7.674083   8.390018   6.297265   6.292186   7.161782
    33  H    6.420283   6.503057   6.042436   5.011272   5.151196
    34  H    4.674564   4.122601   5.459074   3.442796   2.722120
    35  H    3.937739   2.162852   6.007006   3.396567   1.087858
    36  H    3.425806   1.090433   6.260611   3.842921   2.155783
    37  H    2.179934   2.157638   4.989943   3.412245   3.431536
    38  H    2.170366   4.125767   3.424015   3.441635   4.917037
    39  H    4.174595   6.480378   3.393630   4.984985   7.016659
    40  H    5.944294   8.380265   3.858347   6.280475   8.602492
    41  H    7.361986   9.747743   4.605744   7.233105   9.630184
    42  H    9.217263  11.469510   6.294340   8.780953  11.101396
    43  H   10.473252  12.489141   7.580070   9.736606  11.861029
    44  Pd   2.514078   4.271421   1.520768   1.518886   3.785248
    45  C    3.851954   5.678329   1.614616   2.927839   5.098786
    46  O    4.017092   5.791592   1.976237   3.141816   5.224615
                   16         17         18         19         20
    16  C    0.000000
    17  C    2.485512   0.000000
    18  C    4.938261   2.455081   0.000000
    19  C    2.481984   4.252426   6.528269   0.000000
    20  C    2.504399   2.440509   4.290347   2.462758   0.000000
    21  C    4.304741   2.437089   2.503449   4.933121   2.470372
    22  C    1.438870   2.942810   5.180901   3.788064   3.833747
    23  C    5.192661   2.935855   1.470579   7.186729   5.222684
    24  C    1.420659   3.765651   6.206124   1.442866   2.865550
    25  C    1.445410   1.402848   3.765133   2.850189   1.441867
    26  C    3.820206   1.426147   1.398684   5.171023   2.892168
    27  C    3.767979   5.672637   7.931374   1.420217   3.764357
    28  C    2.863635   3.725440   5.697232   1.421504   1.407118
    29  C    3.803983   2.782497   3.750437   3.797070   1.441528
    30  H    4.648903   6.281678   8.389465   2.172295   4.107245
    31  H    3.951138   4.601681   6.322188   2.169880   2.164306
    32  H    4.672467   3.872024   4.640564   4.128595   2.173813
    33  H    5.392488   3.424580   2.742016   5.901657   3.455937
    34  H    5.916645   3.438077   1.086640   7.303502   4.940291
    35  H    7.336691   4.975492   2.764834   9.200506   7.044127
    36  H    8.232313   6.261550   4.674606  10.449748   8.624118
    37  H    7.357432   6.026833   5.404425   9.790021   8.457666
    38  H    5.910283   5.454775   5.926611   8.385568   7.650526
    39  H    5.371131   6.012618   7.338298   7.619749   7.658004
    40  H    4.657593   6.276695   8.231075   6.343439   7.161370
    41  H    3.945437   6.253725   8.595604   4.659350   6.229195
    42  H    4.650652   7.131243   9.586220   3.934548   6.202120
    43  H    5.347210   7.568911   9.927452   3.435194   5.878540
    44  Pd   2.870516   1.521816   2.852171   5.168048   3.827702
    45  C    1.474281   1.324837   3.642395   3.771387   2.779310
    46  O    1.863215   1.747394   3.816512   3.939814   3.003825
                   21         22         23         24         25
    21  C    0.000000
    22  C    5.212200   0.000000
    23  C    3.866213   5.019328   0.000000
    24  C    5.149740   2.460994   6.580663   0.000000
    25  C    2.859332   2.523375   4.336608   2.471643   0.000000
    26  C    1.446686   4.367256   2.526211   4.975000   2.503379
    27  C    6.209730   4.927458   8.606688   2.466750   4.270293
    28  C    3.760134   4.302262   6.591931   2.478382   2.460666
    29  C    1.378134   4.995866   4.983525   4.306288   2.472497
    30  H    6.424725   5.900999   9.205902   3.453156   4.906118
    31  H    4.108464   5.389641   7.359573   3.459524   3.448963
    32  H    2.141673   5.954324   5.958936   4.931118   3.450066
    33  H    1.087765   6.273498   4.209832   6.212441   3.947082
    34  H    2.745554   6.246909   2.187052   7.123097   4.653743
    35  H    5.157248   7.187711   2.173705   8.703933   6.369026
    36  H    7.177451   7.648594   3.416803   9.652967   7.628827
    37  H    7.693582   6.406663   3.934191   8.726267   7.191432
    38  H    7.665131   4.660445   4.656499   7.118556   6.230015
    39  H    8.442686   3.932497   6.375212   6.198352   6.243000
    40  H    8.627657   3.431325   7.644196   4.921791   5.939393
    41  H    8.249863   3.433431   8.428934   3.455707   5.390668
    42  H    8.583361   4.896006   9.772978   3.455069   5.913066
    43  H    8.341529   6.170505  10.462406   3.926552   6.181438
    44  Pd   3.830981   2.518749   2.500606   4.291174   2.504951
    45  C    3.652552   1.617988   3.736625   2.890652   1.339233
    46  O    3.826225   1.978871   3.906584   3.107135   1.758286
                   26         27         28         29         30
    26  C    0.000000
    27  C    6.561941   0.000000
    28  C    4.299236   2.475695   0.000000
    29  C    2.457539   4.972761   2.497095   0.000000
    30  H    6.994338   1.087314   2.704937   5.094978   0.000000
    31  H    4.936662   2.699466   1.087579   2.735092   2.471775
    32  H    3.446653   5.081500   2.712371   1.089672   4.968147
    33  H    2.186692   7.115876   4.641125   2.146042   7.223457
    34  H    2.156430   8.676713   6.331880   4.114893   9.036005
    35  H    4.159535  10.616805   8.448700   6.476770  11.128451
    36  H    5.922796  11.858093   9.973401   8.375188  12.534359
    37  H    6.264605  11.124009   9.651587   8.627343  11.957111
    38  H    6.250952   9.585022   8.594969   8.237264  10.536344
    39  H    7.198092   8.565802   8.234720   8.621736   9.615927
    40  H    7.667001   6.965372   7.313009   8.406212   8.052180
    41  H    7.666335   4.889524   5.913252   7.640264   5.957989
    42  H    8.409921   3.418871   5.356050   7.626243   4.308809
    43  H    8.591166   2.157066   4.630332   7.126310   2.476851
    44  Pd   2.523808   6.549668   4.965564   4.304293   7.313554
    45  C    2.749912   5.141214   3.712810   3.650579   5.930598
    46  O    2.976634   5.266047   3.883787   3.824344   6.039116
                   31         32         33         34         35
    31  H    0.000000
    32  H    2.496395   0.000000
    33  H    4.807736   2.474965   0.000000
    34  H    6.819030   4.826535   2.535043   0.000000
    35  H    9.086236   7.286644   5.050732   2.515735   0.000000
    36  H   10.771199   9.309754   7.291866   4.810538   2.469679
    37  H   10.602840   9.678750   8.138325   5.989395   4.313971
    38  H    9.645392   9.326792   8.399724   6.828229   5.986367
    39  H    9.322134   9.664306   9.370173   8.375186   8.104061
    40  H    8.353591   9.323704   9.674439   9.317372   9.653530
    41  H    6.821082   8.359912   9.337627   9.647684  10.584273
    42  H    5.960231   8.058527   9.629502  10.543609  11.940448
    43  H    4.783391   7.222051   9.266650  10.733195  12.544387
    44  Pd   5.938294   5.393840   4.704536   3.938308   4.670548
    45  C    4.746806   4.693495   4.691642   4.683675   5.896004
    46  O    4.881741   4.829947   4.828081   4.820359   6.005140
                   36         37         38         39         40
    36  H    0.000000
    37  H    2.475765   0.000000
    38  H    4.831693   2.543256   0.000000
    39  H    7.286277   5.055085   2.511858   0.000000
    40  H    9.312676   7.302763   4.814391   2.477639   0.000000
    41  H   10.779885   9.112436   6.816188   4.811421   2.498633
    42  H   12.544279  11.159264   9.038241   7.229571   4.974639
    43  H   13.579505  12.569904  10.732866   9.267523   7.227345
    44  Pd   5.361804   4.688550   3.932971   4.676166   5.379083
    45  C    6.768077   6.030142   4.902900   4.972633   4.982877
    46  O    6.863354   6.136925   5.033674   5.101520   5.111522
                   41         42         43         44         45
    41  H    0.000000
    42  H    2.476061   0.000000
    43  H    4.788975   2.481433   0.000000
    44  Pd   5.935926   7.317441   8.217723   0.000000
    45  C    4.965221   6.047475   6.814595   1.413619   0.000000
    46  O    5.094354   6.154015   6.909352   1.815737   1.139629
                   46
    46  O    0.000000
 Stoichiometry    C30H14OPd
 Framework group  C1[X(C30H14OPd)]
 Deg. of freedom   132
 Full point group                 C1      NOp   1
 Largest Abelian subgroup         C1      NOp   1
 Largest concise Abelian subgroup C1      NOp   1
                         Standard orientation:                         
 ---------------------------------------------------------------------
 Center     Atomic      Atomic             Coordinates (Angstroms)
 Number     Number       Type             X           Y           Z
 ---------------------------------------------------------------------
      1          6           0        0.442337    3.742263   -0.030717
      2          6           0       -0.930433    3.730716   -0.031754
      3          6           0       -1.683525    2.503089   -0.034241
      4          6           0       -3.807914    1.262054   -0.038336
      5          6           0       -5.923411    0.015621   -0.042579
      6          6           0       -3.105990    2.483330   -0.035800
      7          6           0       -5.238741    1.229618   -0.039959
      8          6           0        2.634633    2.473155   -0.031004
      9          6           0        4.808044    1.230560   -0.030864
     10          6           0        1.181487    2.505426   -0.032059
     11          6           0        3.385042    1.262987   -0.032155
     12          6           0        5.476120    0.005527   -0.031994
     13          6           0        0.450905    1.332108   -0.034268
     14          6           0        2.723587    0.008534   -0.034310
     15          6           0        4.784011   -1.220225   -0.034387
     16          6           0       -1.665809    0.014270   -0.037936
     17          6           0        0.440763   -1.304867   -0.038069
     18          6           0        2.597649   -2.477585   -0.038116
     19          6           0       -3.811071   -1.233960   -0.042038
     20          6           0       -1.692679   -2.489982   -0.041848
     21          6           0        0.436949   -3.741950   -0.042007
     22          6           0       -0.973672    1.275733   -0.035420
     23          6           0        3.375654   -1.229665   -0.035690
     24          6           0       -3.086467    0.013760   -0.039368
     25          6           0       -0.960916   -1.247607   -0.039169
     26          6           0        1.199401   -2.512494   -0.039256
     27          6           0       -5.230996   -1.205190   -0.043446
     28          6           0       -3.099566   -2.464584   -0.043267
     29          6           0       -0.941010   -3.720020   -0.043218
     30          1           0       -5.785048   -2.140751   -0.045233
     31          1           0       -3.657122   -3.398369   -0.045335
     32          1           0       -1.500221   -4.655256   -0.045388
     33          1           0        0.974532   -4.687590   -0.042936
     34          1           0        3.161900   -3.406243   -0.039139
     35          1           0        5.343392   -2.153246   -0.035219
     36          1           0        6.566472   -0.007700   -0.030880
     37          1           0        5.371582    2.160628   -0.028924
     38          1           0        3.163155    3.421978   -0.029110
     39          1           0        0.990514    4.682558   -0.028737
     40          1           0       -1.487084    4.668428   -0.031053
     41          1           0       -3.653030    3.422704   -0.035053
     42          1           0       -5.787676    2.168053   -0.039247
     43          1           0       -7.013015    0.010269   -0.043788
     44         46           0        1.204704    0.011306   -0.035589
     45          6           0       -0.200201   -0.145402   -0.037159
     46          8           0       -0.201225   -0.147105    1.102468
 ---------------------------------------------------------------------
 Rotational constants (GHZ):      0.3036339      0.1313894      0.0923797
 Standard basis: VSTO-6G (5D, 7F)
 There are   148 symmetry adapted cartesian basis functions of A   symmetry.
 There are   147 symmetry adapted basis functions of A   symmetry.
   147 basis functions,   888 primitive gaussians,   148 cartesian basis functions
    75 alpha electrons       75 beta electrons
       nuclear repulsion energy      1617.6669892331 Hartrees.
 Integral buffers will be    262144 words long.
 Regular integral format.
 Two-electron integral symmetry is turned off.
 Do NDO integrals.
 One-electron integrals computed using PRISM.
 NBasis=   147 RedAO= F EigKep=  0.00D+00  NBF=   147
 NBsUse=   147 1.00D-04 EigRej=  0.00D+00 NBFU=   147
 Simple Huckel Guess.
 Keep J ints in memory in canonical form, NReq=2119168.
 Gradient too large for Newton-Raphson -- use scaled steepest descent instead.
     Accept linear search using points  2 and  3.
 Gradient too large for Newton-Raphson -- use scaled steepest descent instead.
     Accept linear search using points  2 and  3.
 Gradient too large for Newton-Raphson -- use scaled steepest descent instead.
     Accept linear search using points  2 and  3.
 Gradient too large for Newton-Raphson -- use scaled steepest descent instead.
 Gradient too large for Newton-Raphson -- use scaled steepest descent instead.
     Accept linear search using points  1 and  2.
 Gradient too large for Newton-Raphson -- use scaled steepest descent instead.
 Gradient too large for Newton-Raphson -- use scaled steepest descent instead.
     Minimum is close to point  3 DX= -2.19D-02 DF= -2.03D-04 DXR=  7.86D-02 DFR=  6.22D-03 which will be used.
 Gradient too large for Newton-Raphson -- use scaled steepest descent instead.
     Accept linear search using points  1 and  2.
 Gradient too large for Newton-Raphson -- use scaled steepest descent instead.
     Accept linear search using points  1 and  2.
 Gradient too large for Newton-Raphson -- use scaled steepest descent instead.
 Gradient too large for Newton-Raphson -- use scaled steepest descent instead.
 Gradient too large for Newton-Raphson -- use scaled steepest descent instead.
 Gradient too large for Newton-Raphson -- use scaled steepest descent instead.
     Minimum is close to point  3 DX= -2.30D-02 DF= -2.31D-05 DXR=  8.30D-02 DFR=  6.93D-03 which will be used.
 Gradient too large for Newton-Raphson -- use scaled steepest descent instead.
 Gradient too large for Newton-Raphson -- use scaled steepest descent instead.
     Accept linear search using points  1 and  2.
 Gradient too large for Newton-Raphson -- use scaled steepest descent instead.
     Accept linear search using points  4 and  5.
 Gradient too large for Newton-Raphson -- use scaled steepest descent instead.
 Gradient too large for Newton-Raphson -- use scaled steepest descent instead.
 Gradient too large for Newton-Raphson -- use scaled steepest descent instead.
     Minimum is close to point  3 DX= -7.12D-03 DF= -7.20D-07 DXR=  2.43D-02 DFR=  5.91D-04 which will be used.
 Gradient too large for Newton-Raphson -- use scaled steepest descent instead.
 Gradient too large for Newton-Raphson -- use scaled steepest descent instead.
     Accept linear search using points  1 and  2.
 Gradient too large for Newton-Raphson -- use scaled steepest descent instead.
     Minimum is close to point  5 DX=  6.42D-01 DF= -1.94D-05 DXR=  8.09D-02 DFR=  6.82D-03 which will be used.
 Gradient too large for Newton-Raphson -- use scaled steepest descent instead.
 Gradient too large for Newton-Raphson -- use scaled steepest descent instead.
     Minimum is close to point  5 DX=  6.77D-02 DF= -3.86D-06 DXR=  6.99D-02 DFR=  4.91D-03 which will be used.
 Gradient too large for Newton-Raphson -- use scaled steepest descent instead.
     Accept linear search using points  1 and  2.
 Gradient too large for Newton-Raphson -- use scaled steepest descent instead.
 Gradient too large for Newton-Raphson -- use scaled steepest descent instead.
     Minimum is close to point  3 DX= -1.13D-02 DF= -3.88D-06 DXR=  3.90D-02 DFR=  1.52D-03 which will be used.
 Gradient too large for Newton-Raphson -- use scaled steepest descent instead.
     Minimum is close to point  4 DX=  2.09D-02 DF= -4.96D-07 DXR=  2.27D-02 DFR=  5.15D-04 which will be used.
 Gradient too large for Newton-Raphson -- use scaled steepest descent instead.
     Accept linear search using points  1 and  2.
 Gradient too large for Newton-Raphson -- use scaled steepest descent instead.
     Minimum is close to point  5 DX= -5.18D-01 DF= -3.45D-05 DXR=  7.53D-02 DFR=  6.15D-03 which will be used.
 Gradient too large for Newton-Raphson -- use scaled steepest descent instead.
 Gradient too large for Newton-Raphson -- use scaled steepest descent instead.
 Gradient too large for Newton-Raphson -- use scaled steepest descent instead.
     Accept linear search using points  1 and  2.
 Gradient too large for Newton-Raphson -- use scaled steepest descent instead.
 Gradient too large for Newton-Raphson -- use scaled steepest descent instead.
     Minimum is close to point  3 DX= -2.29D-03 DF= -1.43D-07 DXR=  7.68D-03 DFR=  5.90D-05 which will be used.
 Gradient too large for Newton-Raphson -- use scaled steepest descent instead.
 Gradient too large for Newton-Raphson -- use scaled steepest descent instead.
     Accept linear search using points  1 and  2.
 Gradient too large for Newton-Raphson -- use scaled steepest descent instead.
 Gradient too large for Newton-Raphson -- use scaled steepest descent instead.
 Gradient too large for Newton-Raphson -- use scaled steepest descent instead.
 Gradient too large for Newton-Raphson -- use scaled steepest descent instead.
 Gradient too large for Newton-Raphson -- use scaled steepest descent instead.
 Gradient too large for Newton-Raphson -- use scaled steepest descent instead.
     Accept linear search using points  1 and  2.
 Gradient too large for Newton-Raphson -- use scaled steepest descent instead.
 Gradient too large for Newton-Raphson -- use scaled steepest descent instead.
     Minimum is close to point  3 DX= -1.99D-02 DF= -3.61D-06 DXR=  7.11D-02 DFR=  5.07D-03 which will be used.
 Gradient too large for Newton-Raphson -- use scaled steepest descent instead.
 Gradient too large for Newton-Raphson -- use scaled steepest descent instead.
     Accept linear search using points  1 and  2.
 Gradient too large for Newton-Raphson -- use scaled steepest descent instead.
     Minimum is close to point  5 DX= -3.12D-01 DF= -2.67D-06 DXR=  4.11D-02 DFR=  1.77D-03 which will be used.
 Gradient too large for Newton-Raphson -- use scaled steepest descent instead.
 LinEq1:  Iter=  0 NonCon=     1 RMS=1.87D-04 Max=6.28D-03 NDo=     1
 AX will form     1 AO Fock derivatives at one time.
 LinEq1:  Iter=  1 NonCon=     1 RMS=5.54D-05 Max=9.43D-04 NDo=     1
 LinEq1:  Iter=  2 NonCon=     1 RMS=2.45D-05 Max=3.89D-04 NDo=     1
 LinEq1:  Iter=  3 NonCon=     1 RMS=8.84D-06 Max=1.67D-04 NDo=     1
 LinEq1:  Iter=  4 NonCon=     1 RMS=3.90D-06 Max=8.84D-05 NDo=     1
 LinEq1:  Iter=  5 NonCon=     1 RMS=1.37D-06 Max=3.32D-05 NDo=     1
 LinEq1:  Iter=  6 NonCon=     1 RMS=4.94D-07 Max=5.93D-06 NDo=     1
 LinEq1:  Iter=  7 NonCon=     1 RMS=1.59D-07 Max=2.32D-06 NDo=     1
 LinEq1:  Iter=  8 NonCon=     1 RMS=6.00D-08 Max=1.30D-06 NDo=     1
 LinEq1:  Iter=  9 NonCon=     1 RMS=2.02D-08 Max=3.16D-07 NDo=     1
 LinEq1:  Iter= 10 NonCon=     1 RMS=6.69D-09 Max=1.32D-07 NDo=     1
 LinEq1:  Iter= 11 NonCon=     0 RMS=2.11D-09 Max=4.47D-08 NDo=     1
 Linear equations converged to 1.039D-08 1.039D-07 after    11 iterations.
     Accept linear search using points  1 and  2.
     Minimum is close to point  2 DX= -3.23D-02 DF= -8.60D-07 DXR=  3.34D-02 DFR=  1.14D-03 which will be used.
 LinEq1:  Iter=  0 NonCon=     1 RMS=2.40D-05 Max=3.61D-04 NDo=     1
 LinEq1:  Iter=  1 NonCon=     1 RMS=1.23D-05 Max=3.98D-04 NDo=     1
 LinEq1:  Iter=  2 NonCon=     1 RMS=4.14D-06 Max=7.38D-05 NDo=     1
 LinEq1:  Iter=  3 NonCon=     1 RMS=2.04D-06 Max=3.30D-05 NDo=     1
 LinEq1:  Iter=  4 NonCon=     1 RMS=8.48D-07 Max=2.16D-05 NDo=     1
 LinEq1:  Iter=  5 NonCon=     1 RMS=3.41D-07 Max=8.49D-06 NDo=     1
 LinEq1:  Iter=  6 NonCon=     1 RMS=1.08D-07 Max=1.56D-06 NDo=     1
 LinEq1:  Iter=  7 NonCon=     1 RMS=4.13D-08 Max=1.11D-06 NDo=     1
 LinEq1:  Iter=  8 NonCon=     1 RMS=1.24D-08 Max=2.53D-07 NDo=     1
 LinEq1:  Iter=  9 NonCon=     1 RMS=4.59D-09 Max=1.09D-07 NDo=     1
 LinEq1:  Iter= 10 NonCon=     0 RMS=1.68D-09 Max=3.00D-08 NDo=     1
 Linear equations converged to 1.039D-08 1.039D-07 after    10 iterations.
     Minimum is close to point  2 DX=  2.53D-03 DF= -3.08D-11 DXR=  2.53D-03 DFR=  6.38D-06 which will be used.
 LinEq1:  Iter=  0 NonCon=     1 RMS=2.26D-07 Max=6.74D-06 NDo=     1
 LinEq1:  Iter=  1 NonCon=     1 RMS=9.69D-08 Max=2.22D-06 NDo=     1
 LinEq1:  Iter=  2 NonCon=     1 RMS=3.77D-08 Max=6.94D-07 NDo=     1
 LinEq1:  Iter=  3 NonCon=     1 RMS=1.16D-08 Max=1.99D-07 NDo=     1
 LinEq1:  Iter=  4 NonCon=     1 RMS=4.65D-09 Max=5.94D-08 NDo=     1
 LinEq1:  Iter=  5 NonCon=     1 RMS=2.09D-09 Max=4.19D-08 NDo=     1
 LinEq1:  Iter=  6 NonCon=     1 RMS=9.00D-10 Max=1.81D-08 NDo=     1
 LinEq1:  Iter=  7 NonCon=     1 RMS=3.11D-10 Max=5.27D-09 NDo=     1
 LinEq1:  Iter=  8 NonCon=     1 RMS=1.26D-10 Max=2.79D-09 NDo=     1
 LinEq1:  Iter=  9 NonCon=     0 RMS=3.95D-11 Max=5.91D-10 NDo=     1
 Linear equations converged to 1.353D-10 1.353D-09 after     9 iterations.
 SCF Done:  E(RPM6) =   1.94342566266     a.u. after   53 cycles
            Convg  =    0.2379D-06                   190 Fock formations.
              S**2 =  0.0000                  -V/T =  1.0182

 **********************************************************************

            Population analysis using the SCF density.

 **********************************************************************

 Orbital symmetries:
       Occupied  (A) (A) (A) (A) (A) (A) (A) (A) (A) (A) (A) (A)
                 (A) (A) (A) (A) (A) (A) (A) (A) (A) (A) (A) (A)
                 (A) (A) (A) (A) (A) (A) (A) (A) (A) (A) (A) (A)
                 (A) (A) (A) (A) (A) (A) (A) (A) (A) (A) (A) (A)
                 (A) (A) (A) (A) (A) (A) (A) (A) (A) (A) (A) (A)
                 (A) (A) (A) (A) (A) (A) (A) (A) (A) (A) (A) (A)
                 (A) (A) (A)
       Virtual   (A) (A) (A) (A) (A) (A) (A) (A) (A) (A) (A) (A)
                 (A) (A) (A) (A) (A) (A) (A) (A) (A) (A) (A) (A)
                 (A) (A) (A) (A) (A) (A) (A) (A) (A) (A) (A) (A)
                 (A) (A) (A) (A) (A) (A) (A) (A) (A) (A) (A) (A)
                 (A) (A) (A) (A) (A) (A) (A) (A) (A) (A) (A) (A)
                 (A) (A) (A) (A) (A) (A) (A) (A) (A) (A) (A) (A)
 The electronic state is 1-A.
 Alpha  occ. eigenvalues --   -1.62746  -1.19203  -1.17437  -1.13050  -1.09404
 Alpha  occ. eigenvalues --   -1.06352  -1.05477  -1.03425  -1.02360  -1.00514
 Alpha  occ. eigenvalues --   -0.98475  -0.95477  -0.94379  -0.92745  -0.89703
 Alpha  occ. eigenvalues --   -0.88843  -0.84860  -0.82063  -0.81470  -0.80376
 Alpha  occ. eigenvalues --   -0.77826  -0.77197  -0.74597  -0.73798  -0.73126
 Alpha  occ. eigenvalues --   -0.69148  -0.66798  -0.64095  -0.63005  -0.61748
 Alpha  occ. eigenvalues --   -0.60015  -0.59253  -0.58619  -0.58279  -0.57511
 Alpha  occ. eigenvalues --   -0.56254  -0.55853  -0.55512  -0.54105  -0.53601
 Alpha  occ. eigenvalues --   -0.52336  -0.51920  -0.51838  -0.51055  -0.50079
 Alpha  occ. eigenvalues --   -0.49572  -0.49465  -0.48815  -0.48480  -0.47952
 Alpha  occ. eigenvalues --   -0.47521  -0.46293  -0.46036  -0.45376  -0.44808
 Alpha  occ. eigenvalues --   -0.44578  -0.43973  -0.42208  -0.41903  -0.41546
 Alpha  occ. eigenvalues --   -0.40585  -0.40276  -0.38926  -0.38636  -0.38574
 Alpha  occ. eigenvalues --   -0.36722  -0.34360  -0.33793  -0.33044  -0.32271
 Alpha  occ. eigenvalues --   -0.30093  -0.29562  -0.28572  -0.27425  -0.25061
 Alpha virt. eigenvalues --   -0.07095  -0.03733  -0.01272  -0.00468   0.00760
 Alpha virt. eigenvalues --    0.02165   0.02688   0.03472   0.03659   0.04426
 Alpha virt. eigenvalues --    0.05552   0.06885   0.07426   0.08802   0.10077
 Alpha virt. eigenvalues --    0.10402   0.10678   0.11418   0.12403   0.12764
 Alpha virt. eigenvalues --    0.12888   0.13193   0.13819   0.14112   0.14758
 Alpha virt. eigenvalues --    0.15225   0.15554   0.15818   0.15984   0.16274
 Alpha virt. eigenvalues --    0.16520   0.16897   0.17141   0.17344   0.17588
 Alpha virt. eigenvalues --    0.17665   0.17911   0.18001   0.18019   0.18236
 Alpha virt. eigenvalues --    0.18408   0.18547   0.18692   0.18966   0.19118
 Alpha virt. eigenvalues --    0.19380   0.19650   0.19760   0.20028   0.20079
 Alpha virt. eigenvalues --    0.20449   0.20494   0.20608   0.20952   0.21141
 Alpha virt. eigenvalues --    0.21433   0.21729   0.21783   0.22002   0.22098
 Alpha virt. eigenvalues --    0.22248   0.22749   0.23200   0.23483   0.24234
 Alpha virt. eigenvalues --    0.24334   0.25061   0.25438   0.25657   2.74456
 Alpha virt. eigenvalues --    2.77584   2.97547
          Condensed to atoms (all electrons):
               1          2          3          4          5          6
     1  C    4.023334   0.000000   0.000000   0.000000   0.000000   0.000000
     2  C    0.000000   4.289281   0.000000   0.000000   0.000000   0.000000
     3  C    0.000000   0.000000   3.740857   0.000000   0.000000   0.000000
     4  C    0.000000   0.000000   0.000000   3.750943   0.000000   0.000000
     5  C    0.000000   0.000000   0.000000   0.000000   3.976126   0.000000
     6  C    0.000000   0.000000   0.000000   0.000000   0.000000   4.411711
     7  C    0.000000   0.000000   0.000000   0.000000   0.000000   0.000000
     8  C    0.000000   0.000000   0.000000   0.000000   0.000000   0.000000
     9  C    0.000000   0.000000   0.000000   0.000000   0.000000   0.000000
    10  C    0.000000   0.000000   0.000000   0.000000   0.000000   0.000000
    11  C    0.000000   0.000000   0.000000   0.000000   0.000000   0.000000
    12  C    0.000000   0.000000   0.000000   0.000000   0.000000   0.000000
    13  C    0.000000   0.000000   0.000000   0.000000   0.000000   0.000000
    14  C    0.000000   0.000000   0.000000   0.000000   0.000000   0.000000
    15  C    0.000000   0.000000   0.000000   0.000000   0.000000   0.000000
    16  C    0.000000   0.000000   0.000000   0.000000   0.000000   0.000000
    17  C    0.000000   0.000000   0.000000   0.000000   0.000000   0.000000
    18  C    0.000000   0.000000   0.000000   0.000000   0.000000   0.000000
    19  C    0.000000   0.000000   0.000000   0.000000   0.000000   0.000000
    20  C    0.000000   0.000000   0.000000   0.000000   0.000000   0.000000
    21  C    0.000000   0.000000   0.000000   0.000000   0.000000   0.000000
    22  C    0.000000   0.000000   0.000000   0.000000   0.000000   0.000000
    23  C    0.000000   0.000000   0.000000   0.000000   0.000000   0.000000
    24  C    0.000000   0.000000   0.000000   0.000000   0.000000   0.000000
    25  C    0.000000   0.000000   0.000000   0.000000   0.000000   0.000000
    26  C    0.000000   0.000000   0.000000   0.000000   0.000000   0.000000
    27  C    0.000000   0.000000   0.000000   0.000000   0.000000   0.000000
    28  C    0.000000   0.000000   0.000000   0.000000   0.000000   0.000000
    29  C    0.000000   0.000000   0.000000   0.000000   0.000000   0.000000
    30  H    0.000000   0.000000   0.000000   0.000000   0.000000   0.000000
    31  H    0.000000   0.000000   0.000000   0.000000   0.000000   0.000000
    32  H    0.000000   0.000000   0.000000   0.000000   0.000000   0.000000
    33  H    0.000000   0.000000   0.000000   0.000000   0.000000   0.000000
    34  H    0.000000   0.000000   0.000000   0.000000   0.000000   0.000000
    35  H    0.000000   0.000000   0.000000   0.000000   0.000000   0.000000
    36  H    0.000000   0.000000   0.000000   0.000000   0.000000   0.000000
    37  H    0.000000   0.000000   0.000000   0.000000   0.000000   0.000000
    38  H    0.000000   0.000000   0.000000   0.000000   0.000000   0.000000
    39  H    0.000000   0.000000   0.000000   0.000000   0.000000   0.000000
    40  H    0.000000   0.000000   0.000000   0.000000   0.000000   0.000000
    41  H    0.000000   0.000000   0.000000   0.000000   0.000000   0.000000
    42  H    0.000000   0.000000   0.000000   0.000000   0.000000   0.000000
    43  H    0.000000   0.000000   0.000000   0.000000   0.000000   0.000000
    44  Pd   0.000000   0.000000   0.000000   0.000000   0.000000   0.000000
    45  C    0.000000   0.000000   0.000000   0.000000   0.000000   0.000000
    46  O    0.000000   0.000000   0.000000   0.000000   0.000000   0.000000
               7          8          9         10         11         12
     1  C    0.000000   0.000000   0.000000   0.000000   0.000000   0.000000
     2  C    0.000000   0.000000   0.000000   0.000000   0.000000   0.000000
     3  C    0.000000   0.000000   0.000000   0.000000   0.000000   0.000000
     4  C    0.000000   0.000000   0.000000   0.000000   0.000000   0.000000
     5  C    0.000000   0.000000   0.000000   0.000000   0.000000   0.000000
     6  C    0.000000   0.000000   0.000000   0.000000   0.000000   0.000000
     7  C    4.355380   0.000000   0.000000   0.000000   0.000000   0.000000
     8  C    0.000000   3.953368   0.000000   0.000000   0.000000   0.000000
     9  C    0.000000   0.000000   3.963419   0.000000   0.000000   0.000000
    10  C    0.000000   0.000000   0.000000   4.350680   0.000000   0.000000
    11  C    0.000000   0.000000   0.000000   0.000000   4.281546   0.000000
    12  C    0.000000   0.000000   0.000000   0.000000   0.000000   4.333693
    13  C    0.000000   0.000000   0.000000   0.000000   0.000000   0.000000
    14  C    0.000000   0.000000   0.000000   0.000000   0.000000   0.000000
    15  C    0.000000   0.000000   0.000000   0.000000   0.000000   0.000000
    16  C    0.000000   0.000000   0.000000   0.000000   0.000000   0.000000
    17  C    0.000000   0.000000   0.000000   0.000000   0.000000   0.000000
    18  C    0.000000   0.000000   0.000000   0.000000   0.000000   0.000000
    19  C    0.000000   0.000000   0.000000   0.000000   0.000000   0.000000
    20  C    0.000000   0.000000   0.000000   0.000000   0.000000   0.000000
    21  C    0.000000   0.000000   0.000000   0.000000   0.000000   0.000000
    22  C    0.000000   0.000000   0.000000   0.000000   0.000000   0.000000
    23  C    0.000000   0.000000   0.000000   0.000000   0.000000   0.000000
    24  C    0.000000   0.000000   0.000000   0.000000   0.000000   0.000000
    25  C    0.000000   0.000000   0.000000   0.000000   0.000000   0.000000
    26  C    0.000000   0.000000   0.000000   0.000000   0.000000   0.000000
    27  C    0.000000   0.000000   0.000000   0.000000   0.000000   0.000000
    28  C    0.000000   0.000000   0.000000   0.000000   0.000000   0.000000
    29  C    0.000000   0.000000   0.000000   0.000000   0.000000   0.000000
    30  H    0.000000   0.000000   0.000000   0.000000   0.000000   0.000000
    31  H    0.000000   0.000000   0.000000   0.000000   0.000000   0.000000
    32  H    0.000000   0.000000   0.000000   0.000000   0.000000   0.000000
    33  H    0.000000   0.000000   0.000000   0.000000   0.000000   0.000000
    34  H    0.000000   0.000000   0.000000   0.000000   0.000000   0.000000
    35  H    0.000000   0.000000   0.000000   0.000000   0.000000   0.000000
    36  H    0.000000   0.000000   0.000000   0.000000   0.000000   0.000000
    37  H    0.000000   0.000000   0.000000   0.000000   0.000000   0.000000
    38  H    0.000000   0.000000   0.000000   0.000000   0.000000   0.000000
    39  H    0.000000   0.000000   0.000000   0.000000   0.000000   0.000000
    40  H    0.000000   0.000000   0.000000   0.000000   0.000000   0.000000
    41  H    0.000000   0.000000   0.000000   0.000000   0.000000   0.000000
    42  H    0.000000   0.000000   0.000000   0.000000   0.000000   0.000000
    43  H    0.000000   0.000000   0.000000   0.000000   0.000000   0.000000
    44  Pd   0.000000   0.000000   0.000000   0.000000   0.000000   0.000000
    45  C    0.000000   0.000000   0.000000   0.000000   0.000000   0.000000
    46  O    0.000000   0.000000   0.000000   0.000000   0.000000   0.000000
              13         14         15         16         17         18
     1  C    0.000000   0.000000   0.000000   0.000000   0.000000   0.000000
     2  C    0.000000   0.000000   0.000000   0.000000   0.000000   0.000000
     3  C    0.000000   0.000000   0.000000   0.000000   0.000000   0.000000
     4  C    0.000000   0.000000   0.000000   0.000000   0.000000   0.000000
     5  C    0.000000   0.000000   0.000000   0.000000   0.000000   0.000000
     6  C    0.000000   0.000000   0.000000   0.000000   0.000000   0.000000
     7  C    0.000000   0.000000   0.000000   0.000000   0.000000   0.000000
[...]
 002880,0.00000089,-0.02475737,0.01201976,0.01158282,-0.00025199,-0.000
 01060,0.00000489,-0.00004265,-0.00000391,0.00000077,0.00029444,0.00045
 537,-0.00024185,0.00003050,0.00003337,0.00001251,0.00001915,0.00003225
 ,-0.00000139,-0.00000978,0.00002081,-0.00000689,-0.00000941,0.00002054
 ,-0.00000768,-0.00002727,0.00004730,-0.00001674,-0.00003439,-0.0000025
 8,-0.00001108,-0.00003271,-0.00003905,-0.00001269,-0.00004633,-0.00007
 907,-0.00001924,-0.00000471,-0.00003525,0.00000367,0.00001390,-0.00003
 726,-0.00000640,0.00004552,-0.00007250,-0.00000519,0.00030283,-0.00039
 506,-0.00071690,0.24971054,0.00002558,-0.00003467,-0.00000670,-0.00006
 056,-0.00002642,0.00000829,0.00014837,-0.00015441,-0.00003716,-0.00101
 605,-0.00210973,-0.00109719,-0.01494745,-0.03516314,0.00555071,-0.0006
 4766,-0.00018452,0.00018792,-0.03012482,-0.01069705,0.00749908,0.00010
 431,-0.00005157,0.00000764,0.00002383,-0.00001241,0.00000641,-0.000114
 63,-0.00003395,-0.00002291,-0.00004461,0.00007854,-0.00000430,-0.00000
 247,0.00001012,-0.00000199,0.00012798,0.00007476,-0.00000134,0.0000022
 3,-0.00002664,0.00000548,0.00000334,-0.00001203,0.00000358,0.00003267,
 0.00002729,0.00013749,0.00000991,0.00001736,-0.00000945,0.00000094,0.0
 0000229,0.00000137,0.00051792,-0.00224301,-0.00076207,-0.00000696,-0.0
 0009179,0.00005273,0.00000320,-0.00001099,0.00000597,-0.00012597,0.000
 07196,0.00003031,-0.00000318,0.00000932,-0.00000534,0.00000887,0.00012
 635,-0.00007715,0.00000040,0.00000326,-0.00000845,-0.00000741,-0.00000
 749,-0.00000254,0.02530284,-0.00418677,-0.00993514,0.00052969,-0.00010
 686,-0.00018444,0.00002952,-0.00000875,-0.00000033,0.00097289,-0.00027
 692,-0.00025138,0.00003007,0.00005388,-0.00003098,0.00000661,0.0000084
 7,-0.00000345,0.00000148,0.00000245,-0.00000045,0.00000096,-0.00000049
 ,0.00000032,-0.00000170,0.00000422,-0.00000131,-0.00000161,-0.00000018
 ,-0.00000046,-0.00000184,-0.00000110,-0.00000120,-0.00000403,-0.000005
 67,-0.00000180,-0.00000083,0.00000013,0.00000002,-0.00000374,0.0000042
 4,0.00000190,-0.00002801,0.00003964,-0.00000028,-0.00063363,-0.0004739
 0,0.00041242,0.01988062,0.05541870,-0.00012880,0.00008468,0.00001501,0
 .00014034,0.00011298,-0.00004951,-0.00061125,0.00020215,-0.00011539,0.
 00148445,-0.00157731,0.00540764,0.05098803,0.00515251,-0.05609782,0.00
 057885,0.00033452,0.00009031,0.00491535,0.00330592,0.00394861,-0.00050
 389,0.00022025,-0.00005391,-0.00010807,0.00004196,-0.00002973,0.000565
 76,0.00019655,0.00013206,0.00019283,-0.00035973,0.00001673,0.00000852,
 -0.00003816,0.00000634,-0.00062604,-0.00037681,0.00000738,0.00000553,0
 .00013721,-0.00001150,-0.00002123,0.00005065,-0.00002128,-0.00047435,-
 0.00006044,-0.00058900,-0.00004826,-0.00004940,0.00003192,-0.00000649,
 -0.00000078,-0.00000981,0.00140601,-0.00093315,0.00305861,0.00000585,-
 0.00005928,-0.00004991,-0.00000008,0.00000522,-0.00001019,0.00066283,-
 0.00012963,-0.00008101,0.00001889,-0.00005048,0.00002254,0.00033994,-0
 .00005417,0.00021471,0.00001583,0.00004040,-0.00001573,0.00002657,0.00
 001273,0.00000707,0.01341096,-0.00518042,0.00017249,0.00015132,-0.0000
 0981,-0.00020448,0.00000154,0.00002542,-0.00001850,-0.00029830,-0.0000
 6609,-0.00067655,-0.00000507,0.00000790,0.00005440,-0.00000817,-0.0000
 0665,0.00001291,0.00000087,0.00000027,0.00000527,-0.00000277,-0.000000
 32,0.00000264,0.00000818,-0.00001900,0.00000802,0.00001080,0.00000119,
 0.00000482,0.00001061,0.00001211,0.00000771,0.00002019,0.00003162,0.00
 001140,0.00000256,0.00001491,0.00000783,-0.00000361,0.00001323,0.00000
 707,0.00001189,0.00001360,0.00011287,-0.00086759,0.00037159,-0.0013586
 8,-0.07129648,-0.00144871,0.04596475,0.00059618,-0.00061137,-0.0007337
 8,-0.00038520,-0.00007746,0.00005389,-0.00185973,-0.00010336,-0.000678
 02,0.00022581,-0.00012582,-0.00018280,0.00006156,0.00022789,-0.0000023
 5,-0.00028674,0.00052267,0.00020203,-0.00027326,-0.00013294,0.00008663
 ,0.00255761,-0.00229029,0.00133136,0.00362503,-0.00306578,0.00110106,0
 .00057989,0.00126233,0.00102587,-0.01727357,-0.00727658,-0.00905691,-0
 .00075941,0.00370237,-0.00072951,-0.04881938,0.04956266,0.03897317,-0.
 09183654,0.00443301,-0.09299795,-0.00185709,-0.00141901,-0.00168555,-0
 .00163447,0.00113534,0.00063974,-0.03923727,-0.05596852,0.04096702,-0.
 00061047,-0.00046638,-0.00021659,-0.00026363,0.00010192,-0.00003820,-0
 .00115842,-0.00073504,-0.00165361,0.00017561,0.00008213,-0.00024430,-0
 .01109062,0.01308288,0.00663822,-0.00963049,0.00791916,-0.00759917,-0.
 00069544,0.00006677,0.00050089,-0.01683557,-0.01650259,0.00324255,0.00
 221707,-0.00129912,0.00008566,0.00011311,-0.00010657,-0.00007611,0.000
 00881,-0.00034308,0.00010513,0.00004463,0.00005206,0.00008608,0.000010
 26,0.00000052,0.00000995,0.00005150,0.00010012,0.00019199,-0.00000680,
 -0.00005950,0.00006119,0.00007367,-0.00003148,0.00001854,0.00000653,-0
 .00025969,0.00008251,-0.00018959,0.00013761,-0.00014135,0.00015622,-0.
 00001921,0.00014304,-0.00026058,-0.00006508,-0.00003604,-0.00009966,0.
 00003270,-0.00019631,0.00008907,0.00002051,0.00009633,0.00004952,-0.00
 003315,0.00010655,-0.00006495,-0.00003699,0.00009934,0.00000335,0.0000
 0660,0.00000688,-0.00003055,-0.00000293,0.00001607,0.23373535,-0.00268
 310,-0.00152810,0.00009652,0.00096652,0.00033872,-0.00001739,0.0016441
 5,-0.00019704,-0.00051114,0.00139017,0.00000535,-0.00061352,0.00022093
 ,0.00140909,0.00012136,-0.00058348,-0.00085507,-0.00018769,-0.00137259
 ,-0.00065312,0.00045048,-0.00279622,-0.00059153,0.00065435,-0.00127421
 ,-0.00103520,0.00010201,0.00667872,-0.02020635,-0.00733285,-0.00829740
 ,-0.00153913,-0.00513382,0.00020185,-0.00009660,0.00007627,0.05783453,
 -0.08581509,-0.05375550,-0.00144335,-0.01070741,-0.00242618,0.00022643
 ,-0.00108472,0.00089174,0.00135964,0.00337876,0.00056458,-0.05115216,-
 0.11969409,0.06612354,0.00022513,0.00050933,0.00031616,-0.00083512,0.0
 0023131,0.00035238,-0.00070734,0.00265599,-0.00008516,0.00122633,-0.00
 108336,0.00092570,0.00354036,-0.00927723,-0.00351520,0.00886292,-0.000
 92285,0.00541424,-0.00153862,0.00057224,0.00046383,-0.01849193,-0.0098
 4366,-0.00041719,-0.00296498,-0.01597221,0.00798955,0.00087635,-0.0006
 3706,-0.00044424,0.00041649,-0.00116679,0.00009426,0.00025316,-0.00012
 764,0.00002675,0.00007909,0.00007052,0.00000272,0.00001379,0.00023475,
 -0.00017107,0.00004412,-0.00002486,-0.00002681,-0.00018667,-0.00015970
 ,0.00002380,0.00008238,-0.00035177,0.00009380,0.00034956,0.00003172,0.
 00000857,0.00001829,-0.00001019,-0.00006994,-0.00012594,0.00018707,-0.
 00003769,0.00003119,-0.00006466,-0.00011247,0.00038154,-0.00030716,-0.
 00016228,-0.00006806,0.00006617,-0.00005741,0.00007426,0.00003756,-0.0
 0001508,0.00004536,-0.00005262,-0.00003789,-0.00003560,-0.00000308,0.0
 0001320,0.00722387,0.27599412,-0.00051785,-0.00109901,0.00260802,-0.00
 038780,-0.00009176,-0.00001129,0.00086484,0.00019637,0.00276908,-0.000
 96605,0.00028057,0.00053320,-0.00020272,-0.00087650,-0.00007737,0.0004
 6428,-0.00013548,0.00008971,0.00092119,0.00042797,-0.00030277,0.000706
 24,0.00019397,-0.00025142,0.00143161,-0.00231376,0.00359961,0.00305776
 ,-0.00737434,-0.00337092,-0.01549043,-0.00511182,-0.00710823,-0.000359
 59,0.00272716,-0.00035432,0.03322061,-0.04357181,-0.04501169,-0.074345
 12,0.00393943,-0.10345827,-0.00285209,0.00045472,0.00132086,-0.0025892
 7,-0.00183635,-0.00063885,0.02648948,0.04983032,-0.04933796,-0.0001372
 5,-0.00156251,-0.00064932,0.00063510,-0.00034592,-0.00008908,0.0000973
 4,0.00153781,0.00339808,-0.00103878,0.00099290,-0.00028183,0.00873340,
 -0.00488566,-0.00416117,-0.01186296,0.00461955,-0.00651729,0.00150192,
 -0.00024970,-0.00052109,0.00613645,0.00309616,0.00285307,0.00403627,0.
 00967194,-0.00178938,-0.00053027,0.00039331,0.00027364,-0.00058332,0.0
 0031758,0.00021514,-0.00025535,0.00014332,-0.00017820,-0.00003374,-0.0
 0002176,0.00001087,-0.00020319,-0.00017867,-0.00026279,-0.00003374,0.0
 0001736,0.00000459,0.00019654,0.00024489,0.00003006,-0.00003276,0.0000
 1466,-0.00009843,-0.00037458,0.00004894,-0.00009162,0.00027952,-0.0000
 7605,-0.00035810,-0.00018927,-0.00011523,-0.00033342,-0.00002996,0.000
 08672,0.00023727,0.00003356,-0.00016142,-0.00021347,-0.00008723,0.0000
 3076,-0.00035958,0.00001389,0.00003007,-0.00006856,-0.00002073,0.00001
 951,0.00002668,0.00006009,0.00000404,-0.00001048,0.02248532,-0.0106144
 4,0.21097219,-0.00116635,0.00155117,-0.00011969,0.00191553,0.00064746,
 -0.00054702,-0.00868574,0.00073797,0.00425563,-0.00672817,-0.00718119,
 0.00183567,-0.00010784,-0.00413550,-0.00067951,0.00745364,0.00433400,-
 0.00112189,0.00387867,0.00259642,-0.00092060,-0.00982297,0.00499858,-0
 .00052235,-0.00248141,0.00183185,-0.00067995,0.01097396,0.00580871,0.0
 0268231,0.00560098,-0.00743844,0.00124006,0.00033052,-0.00152529,0.000
 34600,-0.01604680,-0.01171088,-0.00213023,-0.00263560,0.00214628,-0.00
 374432,0.00038442,0.00099361,0.00020771,-0.08376348,0.03161124,0.03359
 677,-0.04006886,0.02116550,-0.02336148,-0.00032099,-0.00052063,-0.0001
 2122,0.00143478,0.00125108,-0.00000966,0.01043530,-0.00592483,0.004926
 03,-0.00012977,-0.00017602,0.00011755,0.02763845,-0.00729506,-0.008979
 77,0.00073482,-0.00014067,0.00073579,-0.02488348,0.01427140,0.03047633
 ,-0.08611311,0.05678673,-0.03827606,-0.00013737,0.00008045,-0.00095920
 ,-0.00316460,0.00280531,0.00127511,-0.00068044,-0.00213978,0.00111325,
 -0.00192133,-0.00273633,0.00106291,0.00005240,-0.00016302,0.00000126,0
 .00008100,0.00041595,-0.00000719,0.00042765,-0.00028802,0.00007387,-0.
 00006127,0.00009671,-0.00001636,-0.00024372,0.00035232,-0.00013707,0.0
 0010931,-0.00011377,-0.00002999,-0.00005443,0.00001109,-0.00008176,0.0
 0012840,-0.00007067,0.00011212,0.00027223,0.00042691,0.00018541,-0.000
 10513,0.00012093,0.00000921,-0.00004488,-0.00009943,0.00010724,-0.0002
 3826,0.00028596,-0.00003589,-0.00008504,-0.00001873,0.00014680,0.00006
 271,0.00001947,0.00003816,0.00288009,0.00062396,0.00318497,0.26951344,
 0.00206898,-0.00279200,0.00042182,-0.00298645,-0.00179533,0.00041004,0
 .00968640,-0.00439382,-0.00605048,0.00551859,0.01008181,0.00024991,-0.
 00010734,0.00533412,0.00080365,-0.01183027,-0.00654347,0.00211188,-0.0
 0542602,-0.00260059,0.00132608,0.01752033,-0.00840718,0.00125378,0.003
 80911,-0.00237023,0.00111731,-0.01877044,-0.01002085,-0.00506962,-0.00
 799179,0.01269661,-0.00097944,-0.00040360,0.00183750,-0.00041583,0.021
 24350,0.01425496,0.00279825,0.00027455,-0.00467118,0.00021860,-0.00004
 769,-0.00202217,0.00029365,0.04079194,-0.14390126,-0.07636586,0.032461
 35,0.00783190,0.00618659,0.00042119,0.00264008,-0.00025360,-0.00608995
 ,-0.00209879,0.00190456,-0.00682617,-0.02718239,0.02442342,0.00005909,
 0.00028390,-0.00023041,-0.03260165,-0.03896205,-0.02551310,-0.00021482
 ,0.00137404,-0.00079694,0.02073122,0.00785491,-0.01648898,0.04390989,-
 0.15135022,0.06154132,-0.00595784,-0.00109282,0.00314844,0.00458818,-0
 .00398040,-0.00192075,-0.00031523,0.00006728,0.00091140,0.00025887,0.0
 0103237,0.00035769,0.00000062,0.00025716,0.00021589,-0.00000947,-0.000
 52570,-0.00030117,-0.00014523,0.00000965,-0.00002660,0.00008436,-0.000
 14128,-0.00008359,0.00041334,-0.00099829,0.00010237,-0.00006458,0.0003
 1560,0.00005003,-0.00001309,-0.00003303,0.00006064,-0.00011860,0.00005
 819,-0.00018881,-0.00050109,-0.00079540,-0.00039218,0.00017004,-0.0002
 1538,-0.00004146,-0.00001792,-0.00011377,-0.00013997,0.00038705,-0.000
 50273,-0.00015902,-0.00011109,0.00002110,-0.00011940,-0.00000331,-0.00
 003393,-0.00000393,0.00172391,-0.00140982,0.00152455,-0.09942177,0.401
 42181,0.00118002,-0.00094088,-0.00025225,-0.00187522,-0.00058542,-0.00
 017712,0.00517436,-0.00274485,-0.00011726,0.00543198,0.00518727,0.0021
 1754,-0.00028287,0.00323194,0.00009954,-0.00613045,-0.00251193,0.00158
 872,-0.00289488,-0.00158332,0.00084214,0.00769628,-0.00245428,0.000148
 42,0.00161036,-0.00074290,0.00023532,-0.00860405,-0.00445266,-0.001451
 37,-0.00329346,0.00571025,-0.00020650,-0.00008077,0.00072223,-0.000146
 06,0.00902245,0.00605691,-0.00305531,0.00278449,-0.00181995,0.00164715
 ,0.00024453,-0.00025607,-0.00009406,0.04561893,-0.09317416,-0.13306140
 ,-0.02513494,0.00578955,-0.00347389,0.00040978,-0.00153743,0.00024160,
 -0.00171696,-0.00010866,-0.00184897,0.00252793,0.02380456,-0.01002740,
 0.00014356,-0.00058411,-0.00026423,-0.01413886,-0.02681710,-0.00397135
 ,-0.00127952,-0.00047225,-0.00001724,0.02893930,-0.01093060,-0.0206141
 0,-0.03659726,0.07273765,-0.09525877,-0.00071573,0.00512421,0.00524616
 ,0.00228389,-0.00257655,-0.00112526,0.00127688,-0.00033638,-0.00138029
 ,0.00043159,-0.00036180,0.00025303,0.00021841,0.00042745,0.00035557,0.
 00009996,0.00041909,0.00028347,0.00013337,0.00039611,0.00025810,-0.000
 07637,0.00012456,0.00009916,0.00008567,0.00037209,-0.00068906,-0.00032
 298,0.00029495,-0.00006859,-0.00024705,-0.00000613,-0.00003797,-0.0003
 1490,-0.00030230,-0.00007303,-0.00030250,-0.00058093,0.00001325,-0.000
 00395,-0.00021125,0.00018705,0.00015891,-0.00026295,0.00017111,0.00016
 225,-0.00037263,-0.00063750,0.00022994,-0.00024473,0.00000800,0.000235
 86,-0.00002457,0.00009869,0.00435679,0.00154238,0.00110803,0.01596103,
 0.00029547,1.01595209,0.00040273,-0.00048890,0.00000050,-0.00058246,-0
 .00029031,0.00016142,0.00236289,-0.00027580,-0.00122911,0.00146600,0.0
 0184627,-0.00000822,0.00003493,0.00087238,0.00021432,-0.00207500,-0.00
 118846,0.00029229,-0.00089461,-0.00056653,0.00022720,0.00323972,-0.001
 62786,0.00016590,0.00089220,-0.00076420,0.00025279,-0.00352247,-0.0017
 4712,-0.00075056,-0.00204655,0.00273715,-0.00049887,-0.00012223,0.0006
 6160,-0.00014861,0.00426957,0.00288041,-0.00046943,0.00151898,-0.00068
 111,0.00151673,-0.00027629,-0.00023538,-0.00018437,0.01491967,0.010557
 73,0.01784101,0.00149918,0.00006307,0.00049217,0.00000301,-0.00000073,
 -0.00002616,-0.00058746,-0.00047944,0.00042791,-0.00186081,0.00066525,
 -0.00113457,0.00011259,0.00001570,-0.00007018,-0.00676694,-0.00048728,
 0.00227126,-0.00032960,-0.00039319,-0.00015635,0.00113214,0.00016395,-
 0.00249307,0.01066929,0.01161376,-0.02025611,-0.00022879,0.00014256,0.
 00026992,0.00070531,-0.00055677,-0.00024791,-0.00012134,0.00028565,0.0
 0016234,0.00041242,0.00073735,-0.00017635,-0.00003876,-0.00000372,-0.0
 0003739,-0.00006853,-0.00015871,0.00000958,-0.00013629,0.00005969,-0.0
 0000849,0.00000005,-0.00001687,0.00001084,0.00003263,-0.00003363,0.000
 01088,-0.00007316,0.00002089,0.00001417,0.00002887,-0.00000129,0.00003
 648,-0.00007041,0.00002699,-0.00003820,-0.00008272,-0.00013239,-0.0000
 3211,0.00002710,-0.00004528,0.00000976,0.00000227,0.00003300,-0.000026
 19,0.00004235,-0.00005462,-0.00001213,-0.00001429,0.00003095,-0.000039
 99,-0.00003706,-0.00000174,-0.00003199,-0.00210041,-0.00031667,-0.0014
 2429,-0.05463241,-0.00612841,-0.03239662,0.03289225,-0.00036418,0.0004
 6168,-0.00014866,0.00052282,0.00024243,-0.00010064,-0.00164871,0.00026
 218,0.00083781,0.00005826,-0.00149682,-0.00023650,0.00014949,-0.000182
 94,-0.00011100,0.00161309,0.00092449,-0.00026709,0.00028444,0.00006079
 ,0.00000848,-0.00286275,0.00146587,-0.00022462,-0.00058502,0.00033366,
 -0.00016922,0.00294041,0.00150753,0.00093043,0.00124685,-0.00203831,0.
 00011956,0.00006283,-0.00021463,0.00005187,-0.00340785,-0.00260298,-0.
 00159421,0.00016185,0.00112881,0.00024031,-0.00008999,0.00037672,-0.00
 010195,0.00686594,0.00323478,-0.03339989,-0.00324409,-0.00328462,0.001
 66786,-0.00011678,-0.00056948,0.00006830,0.00041108,0.00053023,-0.0000
 6409,0.00127835,0.00000588,-0.00054131,-0.00008319,-0.00001718,0.00010
 208,0.00510977,0.00013219,0.00100604,0.00004076,-0.00035728,0.00010154
 ,-0.00225757,-0.00232418,0.00005874,0.01443860,-0.00264015,0.03675325,
 0.00172928,0.00000331,-0.00108984,-0.00034826,0.00036482,0.00012214,0.
 00019848,-0.00039940,0.00001687,-0.00020284,-0.00056062,0.00015790,0.0
 0002510,-0.00004833,-0.00004334,0.00003668,0.00014547,-0.00002347,0.00
 006234,-0.00009067,-0.00005720,-0.00000837,0.00003385,-0.00001557,-0.0
 0008949,0.00019790,0.00004402,0.00000300,-0.00007343,-0.00001150,0.000
 01056,0.00000475,-0.00000633,0.00000980,-0.00001222,0.00003636,0.00008
 781,0.00011540,0.00008614,-0.00001775,0.00006237,0.00004019,-0.0000021
 5,-0.00000044,0.00005892,-0.00007112,0.00008054,0.00001588,0.00006313,
 -0.00003452,0.00002330,-0.00004080,-0.00000246,0.00002055,-0.00036007,
 -0.00027818,-0.00022716,-0.00488554,-0.04840538,0.02477764,-0.01673164
 ,0.05396138,-0.00064080,0.00031710,0.00013439,0.00101258,0.00030642,-0
 .00021212,-0.00258490,-0.00004176,0.00176922,-0.00078760,-0.00235859,0
 .00020761,0.00031723,-0.00188119,-0.00016733,0.00265496,0.00156527,-0.
 00050791,0.00164314,0.00057300,-0.00044822,-0.00423556,0.00131155,-0.0
 0001731,-0.00092053,0.00031843,-0.00016419,0.00472402,0.00253169,0.000
 58449,0.00159011,-0.00309253,-0.00002023,0.00004761,-0.00034818,0.0000
 7195,-0.00578566,-0.00436259,0.00081506,-0.00097704,0.00088002,0.00002
 672,-0.00017738,0.00025037,-0.00005333,0.01260320,-0.02862057,-0.05975
 963,0.00588420,0.00243918,-0.00148364,-0.00005089,0.00071158,-0.000089
 13,0.00185993,0.00099101,-0.00035211,-0.00352014,-0.00193531,0.0008083
 6,-0.00007627,0.00019496,0.00001665,0.00824119,0.00413804,-0.00289339,
 0.00031331,-0.00007943,0.00017048,-0.00558323,-0.00332139,0.00161876,-
 0.02266999,0.03202119,-0.05232140,-0.00155472,-0.00005116,0.00050337,-
 0.00153108,0.00123480,0.00074943,0.00002505,0.00099919,-0.00000139,0.0
 0062510,0.00103850,-0.00015301,-0.00016680,-0.00025071,-0.00013572,-0.
 00017800,-0.00038889,-0.00007132,-0.00025936,-0.00002730,-0.00013875,0
 .00005526,-0.00016372,-0.00006986,0.00008313,-0.00026429,-0.00006574,0
 .00015632,-0.00018481,0.00005315,0.00014836,0.00000625,0.00003094,0.00
 017303,0.00018131,0.00001386,0.00018876,0.00034462,-0.00000565,0.00004
 473,0.00017246,-0.00008089,-0.00010181,0.00011558,-0.00000527,-0.00016
 652,0.00023741,-0.00007030,-0.00008161,0.00018906,0.00003234,-0.000219
 35,0.00000497,-0.00002443,-0.00642608,-0.00059872,-0.00412797,-0.02120
 958,0.02380791,-0.75289339,0.03750617,-0.02891237,0.86871949||-0.00001
 451,-0.00000867,-0.00000235,0.00000492,-0.00001342,-0.00000451,0.00001
 476,0.00000705,-0.00000054,0.00001304,0.00001003,-0.00000228,-0.000000
 24,0.00001940,0.00000155,-0.00000071,-0.00000636,-0.00000827,-0.000016
 90,-0.00001036,0.00000247,0.00003612,-0.00000606,0.00000002,0.00002192
 ,-0.00001525,0.00001383,-0.00003865,-0.00000296,0.00000008,-0.00002746
 ,0.00000042,-0.00001602,-0.00000471,0.00002239,-0.00000571,0.00001226,
 0.00001700,-0.00000076,0.00010773,0.00002018,0.00009355,-0.00001307,-0
 .00001500,-0.00000781,0.00003322,-0.00002181,0.00000346,0.00002623,0.0
 0001209,-0.00006174,-0.00002877,0.00002417,-0.00000553,-0.00001093,-0.
 00002904,0.00000241,-0.00001076,-0.00001004,0.00001310,-0.00000214,0.0
 0000430,-0.00000457,-0.00000373,-0.00001769,-0.00001206,0.00000219,-0.
 00000745,0.00000161,-0.00000371,0.00003369,0.00000787,0.00000822,0.000
 01556,0.00002409,0.00001314,-0.00001960,0.00002174,0.00000932,-0.00001
 076,-0.00000692,0.00001442,0.00002452,-0.00002137,0.00001046,0.0000176
 6,-0.00000729,-0.00000123,0.00000210,-0.00000039,-0.00000149,-0.000004
 03,0.00000846,0.00000050,-0.00000170,0.00000724,-0.00000208,-0.0000010
 2,-0.00000728,0.00000274,-0.00000399,-0.00000057,0.00000011,0.00000339
 ,0.00000225,-0.00000026,-0.00000247,0.00000191,-0.00000176,0.00000100,
 -0.00000281,-0.00000087,-0.00000160,-0.00000370,-0.00000050,0.00000197
 ,0.00000444,0.00000184,0.00000199,0.00000359,-0.00000123,-0.00000016,-
 0.00000018,0.00000123,0.00000108,0.00000038,-0.00000081,-0.00000261,0.
 00000027,-0.00010090,-0.00001540,-0.00004104,-0.00007272,-0.00004137,-
 0.00000746,0.00002577,0.00002883,0.00001685|||@


 THE ONLY EXISTING THINGS ARE ATOMS AND EMPTY SPACE;
 ALL ELSE IS MERE OPINION. -- DEMOCRITUS OF ABDERA D. 370 B.C.
 EXPERIMENTS ARE THE ONLY MEANS OF KNOWLEDGE AT OUR DISPOSAL
 THE REST IS POETRY, IMAGINATION. -- MAX PLANCK
 Job cpu time:       0 days  0 hours  0 minutes  8.0 seconds.
 File lengths (MBytes):  RWF=    444 Int=      0 D2E=      0 Chk=      5 Scr=      1
 Normal termination of Gaussian 09 at Thu Mar 12 10:39:49 2026.
