 Entering Link 1 = C:\Gaussian\G09W\l1.exe PID=     15892.
  
 Copyright (c) 1988,1990,1992,1993,1995,1998,2003,2009,2013,
            Gaussian, Inc.  All Rights Reserved.
  
 This is part of the Gaussian(R) 09 program.  It is based on
 the Gaussian(R) 03 system (copyright 2003, Gaussian, Inc.),
 the Gaussian(R) 98 system (copyright 1998, Gaussian, Inc.),
 the Gaussian(R) 94 system (copyright 1995, Gaussian, Inc.),
 the Gaussian 92(TM) system (copyright 1992, Gaussian, Inc.),
 the Gaussian 90(TM) system (copyright 1990, Gaussian, Inc.),
 the Gaussian 88(TM) system (copyright 1988, Gaussian, Inc.),
 the Gaussian 86(TM) system (copyright 1986, Carnegie Mellon
 University), and the Gaussian 82(TM) system (copyright 1983,
 Carnegie Mellon University). Gaussian is a federally registered
 trademark of Gaussian, Inc.
  
 This software contains proprietary and confidential information,
 including trade secrets, belonging to Gaussian, Inc.
  
 This software is provided under written license and may be
 used, copied, transmitted, or stored only in accord with that
 written license.
  
 The following legend is applicable only to US Government
 contracts under FAR:
  
                    RESTRICTED RIGHTS LEGEND
  
 Use, reproduction and disclosure by the US Government is
 subject to restrictions as set forth in subparagraphs (a)
 and (c) of the Commercial Computer Software - Restricted
 Rights clause in FAR 52.227-19.
  
 Gaussian, Inc.
 340 Quinnipiac St., Bldg. 40, Wallingford CT 06492
  
  
 ---------------------------------------------------------------
 Warning -- This program may not be used in any manner that
 competes with the business of Gaussian, Inc. or will provide
 assistance to any competitor of Gaussian, Inc.  The licensee
 of this program is prohibited from giving any competitor of
 Gaussian, Inc. access to this program.  By using this program,
 the user acknowledges that Gaussian, Inc. is engaged in the
 business of creating and licensing software in the field of
 computational chemistry and represents and warrants to the
 licensee that it is not a competitor of Gaussian, Inc. and that
 it will not use this program in any manner prohibited above.
 ---------------------------------------------------------------
  

 Cite this work as:
 Gaussian 09, Revision D.01,
 M. J. Frisch, G. W. Trucks, H. B. Schlegel, G. E. Scuseria, 
 M. A. Robb, J. R. Cheeseman, G. Scalmani, V. Barone, B. Mennucci, 
 G. A. Petersson, H. Nakatsuji, M. Caricato, X. Li, H. P. Hratchian, 
 A. F. Izmaylov, J. Bloino, G. Zheng, J. L. Sonnenberg, M. Hada, 
 M. Ehara, K. Toyota, R. Fukuda, J. Hasegawa, M. Ishida, T. Nakajima, 
 Y. Honda, O. Kitao, H. Nakai, T. Vreven, J. A. Montgomery, Jr., 
 J. E. Peralta, F. Ogliaro, M. Bearpark, J. J. Heyd, E. Brothers, 
 K. N. Kudin, V. N. Staroverov, T. Keith, R. Kobayashi, J. Normand, 
 K. Raghavachari, A. Rendell, J. C. Burant, S. S. Iyengar, J. Tomasi, 
 M. Cossi, N. Rega, J. M. Millam, M. Klene, J. E. Knox, J. B. Cross, 
 V. Bakken, C. Adamo, J. Jaramillo, R. Gomperts, R. E. Stratmann, 
 O. Yazyev, A. J. Austin, R. Cammi, C. Pomelli, J. W. Ochterski, 
 R. L. Martin, K. Morokuma, V. G. Zakrzewski, G. A. Voth, 
 P. Salvador, J. J. Dannenberg, S. Dapprich, A. D. Daniels, 
 O. Farkas, J. B. Foresman, J. V. Ortiz, J. Cioslowski, 
 and D. J. Fox, Gaussian, Inc., Wallingford CT, 2013.
 
 ******************************************
 Gaussian 09:  IA32W-G09RevD.01 24-Apr-2013
                11-Mar-2026 
 ******************************************
 %chk=C:\Users\User\Desktop\IMRG\ECE+ML\Pd_Gr_NS.chk
 ---------------------------------------
 # opt freq pm6 scf=qc geom=connectivity
 ---------------------------------------
 1/14=-1,18=20,19=15,26=1,38=1,57=2/1,3;
 2/9=110,12=2,17=6,18=5,40=1/2;
 3/5=2,16=1,25=1,41=3900000,71=1/1,2,3;
 4/35=1/1;
 5/5=2,8=3,35=1,38=5/8;
 6/7=2,8=2,9=2,10=2,28=1/1;
 7//1,2,3,16;
 1/14=-1,18=20,19=15,26=1/3(2);
 2/9=110/2;
 99//99;
 2/9=110/2;
 3/5=2,16=1,25=1,41=3900000,71=1,135=20/1,2,3;
 4/5=5,16=3,35=1/1;
 5/5=2,8=3,35=1,38=5/8;
 7//1,2,3,16;
 1/14=-1,18=20,19=15,26=1/3(-5);
 2/9=110/2;
 6/7=2,8=2,9=2,10=2,19=2,28=1/1;
 99/9=1/99;
 --------
 Pd_Gr_NS
 --------
 Symbolic Z-matrix:
 Charge =  0 Multiplicity = 1
 C                    -1.48734   1.25527   0. 
 C                    -0.11458   1.26757   0.00021 
 C                     0.63784   2.49562   0.00024 
 C                     2.76155   3.73782  -0.0001 
 C                     4.87637   4.98541  -0.00058 
 C                     2.0603    2.51615  -0.00001 
 C                     4.19236   3.77104  -0.00038 
 C                    -3.68033   2.52318  -0.00036 
 C                    -5.85442   3.76459  -0.00032 
 C                    -2.22717   2.49171  -0.00016 
 C                    -4.4314    3.73294  -0.00038 
 C                    -6.52317   4.98925  -0.00022 
 C                    -1.49723   3.66543   0.00004 
 C                    -3.77063   4.98776  -0.00006 
 C                    -5.83173   6.21539  -0.00016 
 C                     0.61876   4.98443   0.00024 
 C                    -1.48853   6.30241   0.00019 
 C                    -3.64606   7.47395  -0.00004 
 C                     2.76334   6.23383  -0.00007 
 C                     0.64426   7.4887    0.0001 
 C                    -1.48605   8.7395   -0.00011 
 C                    -0.07268   3.72258   0.00025 
 C                    -4.42338   6.2256   -0.00018 
 C                     2.03942   4.98572   0.00009 
 C                    -0.08682   6.24592   0.00026 
 C                    -2.24783   7.50962   0.00012 
 C                     4.18329   6.20584  -0.00024 
 C                     2.05117   7.46407  -0.0001 
 C                    -0.10808   8.71832  -0.00011 
 H                     4.73683   7.14171  -0.00013 
 H                     2.60821   8.39816  -0.00027 
 H                     0.45062   9.65387  -0.00038 
 H                    -2.02415   9.68484  -0.0001 
 H                    -4.21082   8.4023   -0.00019 
 H                    -6.39162   7.1481   -0.0001 
 H                    -7.61353   5.00188  -0.00006 
 H                    -6.41745   2.83421  -0.00027 
 H                    -4.20834   1.57407  -0.00036 
 H                    -2.035     0.31468   0.00008 
 H                     0.44259   0.33017   0.00001 
 H                     2.60785   1.57708  -0.00018 
 H                     4.74181   2.8329   -0.00058 
 H                     5.96597   4.99136  -0.0008 
 Pd                   -2.25175   4.98582   0.00002 
 

 GradGradGradGradGradGradGradGradGradGradGradGradGradGradGradGradGradGrad
 Berny optimization.
 Initialization pass.
                           ----------------------------
                           !    Initial Parameters    !
                           ! (Angstroms and Degrees)  !
 --------------------------                            --------------------------
 ! Name  Definition              Value          Derivative Info.                !
 --------------------------------------------------------------------------------
 ! R1    R(1,2)                  1.3728         estimate D2E/DX2                !
 ! R2    R(1,10)                 1.4409         estimate D2E/DX2                !
 ! R3    R(1,39)                 1.0884         estimate D2E/DX2                !
 ! R4    R(2,3)                  1.4402         estimate D2E/DX2                !
 ! R5    R(2,40)                 1.0905         estimate D2E/DX2                !
 ! R6    R(3,6)                  1.4226         estimate D2E/DX2                !
 ! R7    R(3,22)                 1.4178         estimate D2E/DX2                !
 ! R8    R(4,6)                  1.4086         estimate D2E/DX2                !
 ! R9    R(4,7)                  1.4312         estimate D2E/DX2                !
 ! R10   R(4,24)                 1.4418         estimate D2E/DX2                !
 ! R11   R(5,7)                  1.3938         estimate D2E/DX2                !
 ! R12   R(5,27)                 1.4035         estimate D2E/DX2                !
 ! R13   R(5,43)                 1.0896         estimate D2E/DX2                !
 ! R14   R(6,41)                 1.087          estimate D2E/DX2                !
 ! R15   R(7,42)                 1.0872         estimate D2E/DX2                !
 ! R16   R(8,10)                 1.4535         estimate D2E/DX2                !
 ! R17   R(8,11)                 1.4239         estimate D2E/DX2                !
 ! R18   R(8,38)                 1.0861         estimate D2E/DX2                !
 ! R19   R(9,11)                 1.4234         estimate D2E/DX2                !
 ! R20   R(9,12)                 1.3954         estimate D2E/DX2                !
 ! R21   R(9,37)                 1.0875         estimate D2E/DX2                !
 ! R22   R(10,13)                1.3822         estimate D2E/DX2                !
 ! R23   R(11,14)                1.4182         estimate D2E/DX2                !
 ! R24   R(12,15)                1.4077         estimate D2E/DX2                !
 ! R25   R(12,36)                1.0904         estimate D2E/DX2                !
 ! R26   R(13,22)                1.4257         estimate D2E/DX2                !
 ! R27   R(13,44)                1.5208         estimate D2E/DX2                !
 ! R28   R(14,23)                1.3994         estimate D2E/DX2                !
 ! R29   R(14,44)                1.5189         estimate D2E/DX2                !
 ! R30   R(15,23)                1.4084         estimate D2E/DX2                !
 ! R31   R(15,35)                1.0879         estimate D2E/DX2                !
 ! R32   R(16,22)                1.4389         estimate D2E/DX2                !
 ! R33   R(16,24)                1.4207         estimate D2E/DX2                !
 ! R34   R(16,25)                1.4454         estimate D2E/DX2                !
 ! R35   R(17,25)                1.4028         estimate D2E/DX2                !
 ! R36   R(17,26)                1.4261         estimate D2E/DX2                !
 ! R37   R(17,44)                1.5218         estimate D2E/DX2                !
 ! R38   R(18,23)                1.4706         estimate D2E/DX2                !
 ! R39   R(18,26)                1.3987         estimate D2E/DX2                !
 ! R40   R(18,34)                1.0866         estimate D2E/DX2                !
 ! R41   R(19,24)                1.4429         estimate D2E/DX2                !
 ! R42   R(19,27)                1.4202         estimate D2E/DX2                !
 ! R43   R(19,28)                1.4215         estimate D2E/DX2                !
 ! R44   R(20,25)                1.4419         estimate D2E/DX2                !
 ! R45   R(20,28)                1.4071         estimate D2E/DX2                !
 ! R46   R(20,29)                1.4415         estimate D2E/DX2                !
 ! R47   R(21,26)                1.4467         estimate D2E/DX2                !
 ! R48   R(21,29)                1.3781         estimate D2E/DX2                !
 ! R49   R(21,33)                1.0878         estimate D2E/DX2                !
 ! R50   R(27,30)                1.0873         estimate D2E/DX2                !
 ! R51   R(28,31)                1.0876         estimate D2E/DX2                !
 ! R52   R(29,32)                1.0897         estimate D2E/DX2                !
 ! A1    A(2,1,10)             120.3811         estimate D2E/DX2                !
 ! A2    A(2,1,39)             120.7234         estimate D2E/DX2                !
 ! A3    A(10,1,39)            118.8954         estimate D2E/DX2                !
 ! A4    A(1,2,3)              122.0091         estimate D2E/DX2                !
 ! A5    A(1,2,40)             120.2126         estimate D2E/DX2                !
 ! A6    A(3,2,40)             117.7783         estimate D2E/DX2                !
 ! A7    A(2,3,6)              122.323          estimate D2E/DX2                !
 ! A8    A(2,3,22)             118.4295         estimate D2E/DX2                !
 ! A9    A(6,3,22)             119.2474         estimate D2E/DX2                !
 ! A10   A(6,4,7)              121.1867         estimate D2E/DX2                !
 ! A11   A(6,4,24)             120.0864         estimate D2E/DX2                !
 ! A12   A(7,4,24)             118.7269         estimate D2E/DX2                !
 ! A13   A(7,5,27)             121.017          estimate D2E/DX2                !
 ! A14   A(7,5,43)             119.7036         estimate D2E/DX2                !
 ! A15   A(27,5,43)            119.2794         estimate D2E/DX2                !
 ! A16   A(3,6,4)              120.6839         estimate D2E/DX2                !
 ! A17   A(3,6,41)             119.4183         estimate D2E/DX2                !
 ! A18   A(4,6,41)             119.8978         estimate D2E/DX2                !
 ! A19   A(4,7,5)              120.7208         estimate D2E/DX2                !
 ! A20   A(4,7,42)             119.0266         estimate D2E/DX2                !
 ! A21   A(5,7,42)             120.2526         estimate D2E/DX2                !
 ! A22   A(10,8,11)            123.0746         estimate D2E/DX2                !
 ! A23   A(10,8,38)            117.8469         estimate D2E/DX2                !
 ! A24   A(11,8,38)            119.0785         estimate D2E/DX2                !
 ! A25   A(11,9,12)            119.9113         estimate D2E/DX2                !
 ! A26   A(11,9,37)            119.9067         estimate D2E/DX2                !
 ! A27   A(12,9,37)            120.182          estimate D2E/DX2                !
 ! A28   A(1,10,8)             122.1353         estimate D2E/DX2                !
 ! A29   A(1,10,13)            117.2279         estimate D2E/DX2                !
 ! A30   A(8,10,13)            120.6368         estimate D2E/DX2                !
 ! A31   A(8,11,9)             123.1078         estimate D2E/DX2                !
 ! A32   A(8,11,14)            120.3955         estimate D2E/DX2                !
 ! A33   A(9,11,14)            116.4967         estimate D2E/DX2                !
 ! A34   A(9,12,15)            121.9432         estimate D2E/DX2                !
 ! A35   A(9,12,36)            119.3009         estimate D2E/DX2                !
 ! A36   A(15,12,36)           118.7559         estimate D2E/DX2                !
 ! A37   A(10,13,22)           124.1752         estimate D2E/DX2                !
 ! A38   A(10,13,44)           118.3771         estimate D2E/DX2                !
 ! A39   A(22,13,44)           117.4477         estimate D2E/DX2                !
 ! A40   A(11,14,23)           124.4256         estimate D2E/DX2                !
 ! A41   A(11,14,44)           117.6975         estimate D2E/DX2                !
 ! A42   A(23,14,44)           117.8769         estimate D2E/DX2                !
 ! A43   A(12,15,23)           119.8349         estimate D2E/DX2                !
 ! A44   A(12,15,35)           119.6049         estimate D2E/DX2                !
 ! A45   A(23,15,35)           120.5602         estimate D2E/DX2                !
 ! A46   A(22,16,24)           118.7733         estimate D2E/DX2                !
 ! A47   A(22,16,25)           122.0594         estimate D2E/DX2                !
 ! A48   A(24,16,25)           119.1674         estimate D2E/DX2                !
 ! A49   A(25,17,26)           124.4765         estimate D2E/DX2                !
 ! A50   A(25,17,44)           117.7927         estimate D2E/DX2                !
 ! A51   A(26,17,44)           117.7308         estimate D2E/DX2                !
 ! A52   A(23,18,26)           123.3713         estimate D2E/DX2                !
 ! A53   A(23,18,34)           116.7761         estimate D2E/DX2                !
 ! A54   A(26,18,34)           119.8525         estimate D2E/DX2                !
 ! A55   A(24,19,27)           118.9848         estimate D2E/DX2                !
 ! A56   A(24,19,28)           119.8195         estimate D2E/DX2                !
 ! A57   A(27,19,28)           121.1957         estimate D2E/DX2                !
 ! A58   A(25,20,28)           119.4641         estimate D2E/DX2                !
 ! A59   A(25,20,29)           118.073          estimate D2E/DX2                !
 ! A60   A(28,20,29)           122.4629         estimate D2E/DX2                !
 ! A61   A(26,21,29)           120.8936         estimate D2E/DX2                !
 ! A62   A(26,21,33)           118.5771         estimate D2E/DX2                !
 ! A63   A(29,21,33)           120.5293         estimate D2E/DX2                !
 ! A64   A(3,22,13)            117.777          estimate D2E/DX2                !
 ! A65   A(3,22,16)            121.2041         estimate D2E/DX2                !
 ! A66   A(13,22,16)           121.0189         estimate D2E/DX2                !
 ! A67   A(14,23,15)           117.3883         estimate D2E/DX2                !
 ! A68   A(14,23,18)           120.2865         estimate D2E/DX2                !
 ! A69   A(15,23,18)           122.3252         estimate D2E/DX2                !
 ! A70   A(4,24,16)            120.005          estimate D2E/DX2                !
 ! A71   A(4,24,19)            119.8289         estimate D2E/DX2                !
 ! A72   A(16,24,19)           120.1662         estimate D2E/DX2                !
 ! A73   A(16,25,17)           121.5273         estimate D2E/DX2                !
 ! A74   A(16,25,20)           120.3138         estimate D2E/DX2                !
 ! A75   A(17,25,20)           118.159          estimate D2E/DX2                !
 ! A76   A(17,26,18)           120.707          estimate D2E/DX2                !
 ! A77   A(17,26,21)           116.0575         estimate D2E/DX2                !
 ! A78   A(18,26,21)           123.2355         estimate D2E/DX2                !
 ! A79   A(5,27,19)            120.7216         estimate D2E/DX2                !
 ! A80   A(5,27,30)            119.8045         estimate D2E/DX2                !
 ! A81   A(19,27,30)           119.4739         estimate D2E/DX2                !
 ! A82   A(19,28,20)           121.0692         estimate D2E/DX2                !
 ! A83   A(19,28,31)           119.1239         estimate D2E/DX2                !
 ! A84   A(20,28,31)           119.8069         estimate D2E/DX2                !
 ! A85   A(20,29,21)           122.3405         estimate D2E/DX2                !
 ! A86   A(20,29,32)           117.6945         estimate D2E/DX2                !
 ! A87   A(21,29,32)           119.965          estimate D2E/DX2                !
 ! A88   A(13,44,14)           119.8184         estimate D2E/DX2                !
 ! A89   A(13,44,17)           120.1541         estimate D2E/DX2                !
 ! A90   A(14,44,17)           120.0275         estimate D2E/DX2                !
 ! D1    D(10,1,2,3)            -0.0025         estimate D2E/DX2                !
 ! D2    D(10,1,2,40)         -179.9806         estimate D2E/DX2                !
 ! D3    D(39,1,2,3)          -179.9941         estimate D2E/DX2                !
 ! D4    D(39,1,2,40)            0.0278         estimate D2E/DX2                !
 ! D5    D(2,1,10,8)          -179.9988         estimate D2E/DX2                !
 ! D6    D(2,1,10,13)           -0.0059         estimate D2E/DX2                !
 ! D7    D(39,1,10,8)           -0.0071         estimate D2E/DX2                !
 ! D8    D(39,1,10,13)         179.9859         estimate D2E/DX2                !
 ! D9    D(1,2,3,6)           -179.9775         estimate D2E/DX2                !
 ! D10   D(1,2,3,22)             0.0102         estimate D2E/DX2                !
 ! D11   D(40,2,3,6)             0.0012         estimate D2E/DX2                !
 ! D12   D(40,2,3,22)          179.9889         estimate D2E/DX2                !
 ! D13   D(2,3,6,4)            179.9947         estimate D2E/DX2                !
 ! D14   D(2,3,6,41)            -0.0032         estimate D2E/DX2                !
 ! D15   D(22,3,6,4)             0.0071         estimate D2E/DX2                !
 ! D16   D(22,3,6,41)         -179.9908         estimate D2E/DX2                !
 ! D17   D(2,3,22,13)           -0.0093         estimate D2E/DX2                !
 ! D18   D(2,3,22,16)         -179.9984         estimate D2E/DX2                !
 ! D19   D(6,3,22,13)          179.9788         estimate D2E/DX2                !
 ! D20   D(6,3,22,16)           -0.0104         estimate D2E/DX2                !
 ! D21   D(7,4,6,3)           -179.9983         estimate D2E/DX2                !
 ! D22   D(7,4,6,41)            -0.0004         estimate D2E/DX2                !
 ! D23   D(24,4,6,3)             0.0005         estimate D2E/DX2                !
 ! D24   D(24,4,6,41)          179.9984         estimate D2E/DX2                !
 ! D25   D(6,4,7,5)            179.9946         estimate D2E/DX2                !
 ! D26   D(6,4,7,42)             0.0023         estimate D2E/DX2                !
 ! D27   D(24,4,7,5)            -0.0043         estimate D2E/DX2                !
 ! D28   D(24,4,7,42)         -179.9966         estimate D2E/DX2                !
 ! D29   D(6,4,24,16)           -0.0051         estimate D2E/DX2                !
 ! D30   D(6,4,24,19)         -179.9968         estimate D2E/DX2                !
 ! D31   D(7,4,24,16)          179.9938         estimate D2E/DX2                !
 ! D32   D(7,4,24,19)            0.0021         estimate D2E/DX2                !
 ! D33   D(27,5,7,4)             0.0119         estimate D2E/DX2                !
 ! D34   D(27,5,7,42)         -179.9959         estimate D2E/DX2                !
 ! D35   D(43,5,7,4)          -179.9999         estimate D2E/DX2                !
 ! D36   D(43,5,7,42)           -0.0077         estimate D2E/DX2                !
 ! D37   D(7,5,27,19)           -0.0173         estimate D2E/DX2                !
 ! D38   D(7,5,27,30)          179.9838         estimate D2E/DX2                !
 ! D39   D(43,5,27,19)         179.9944         estimate D2E/DX2                !
 ! D40   D(43,5,27,30)          -0.0044         estimate D2E/DX2                !
 ! D41   D(11,8,10,1)          179.9932         estimate D2E/DX2                !
 ! D42   D(11,8,10,13)           0.0005         estimate D2E/DX2                !
 ! D43   D(38,8,10,1)            0.002          estimate D2E/DX2                !
 ! D44   D(38,8,10,13)        -179.9907         estimate D2E/DX2                !
 ! D45   D(10,8,11,9)         -179.9875         estimate D2E/DX2                !
 ! D46   D(10,8,11,14)          -0.0059         estimate D2E/DX2                !
 ! D47   D(38,8,11,9)            0.0036         estimate D2E/DX2                !
 ! D48   D(38,8,11,14)         179.9852         estimate D2E/DX2                !
 ! D49   D(12,9,11,8)          179.9943         estimate D2E/DX2                !
 ! D50   D(12,9,11,14)           0.012          estimate D2E/DX2                !
 ! D51   D(37,9,11,8)           -0.0011         estimate D2E/DX2                !
 ! D52   D(37,9,11,14)        -179.9834         estimate D2E/DX2                !
 ! D53   D(11,9,12,15)          -0.0008         estimate D2E/DX2                !
 ! D54   D(11,9,12,36)        -179.9935         estimate D2E/DX2                !
 ! D55   D(37,9,12,15)         179.9946         estimate D2E/DX2                !
 ! D56   D(37,9,12,36)           0.0019         estimate D2E/DX2                !
 ! D57   D(1,10,13,22)           0.0067         estimate D2E/DX2                !
 ! D58   D(1,10,13,44)        -179.9942         estimate D2E/DX2                !
 ! D59   D(8,10,13,22)         179.9997         estimate D2E/DX2                !
 ! D60   D(8,10,13,44)          -0.0012         estimate D2E/DX2                !
 ! D61   D(8,11,14,23)         179.9937         estimate D2E/DX2                !
 ! D62   D(8,11,14,44)           0.0113         estimate D2E/DX2                !
 ! D63   D(9,11,14,23)          -0.0235         estimate D2E/DX2                !
 ! D64   D(9,11,14,44)         179.9941         estimate D2E/DX2                !
 ! D65   D(9,12,15,23)          -0.0008         estimate D2E/DX2                !
 ! D66   D(9,12,15,35)         179.9989         estimate D2E/DX2                !
 ! D67   D(36,12,15,23)        179.9919         estimate D2E/DX2                !
 ! D68   D(36,12,15,35)         -0.0083         estimate D2E/DX2                !
 ! D69   D(10,13,22,3)           0.001          estimate D2E/DX2                !
 ! D70   D(10,13,22,16)        179.9902         estimate D2E/DX2                !
 ! D71   D(44,13,22,3)        -179.9981         estimate D2E/DX2                !
 ! D72   D(44,13,22,16)         -0.0089         estimate D2E/DX2                !
 ! D73   D(10,13,44,14)          0.0069         estimate D2E/DX2                !
 ! D74   D(10,13,44,17)       -179.9981         estimate D2E/DX2                !
 ! D75   D(22,13,44,14)       -179.9939         estimate D2E/DX2                !
 ! D76   D(22,13,44,17)          0.001          estimate D2E/DX2                !
 ! D77   D(11,14,23,15)          0.0221         estimate D2E/DX2                !
 ! D78   D(11,14,23,18)       -179.9904         estimate D2E/DX2                !
 ! D79   D(44,14,23,15)       -179.9955         estimate D2E/DX2                !
 ! D80   D(44,14,23,18)         -0.008          estimate D2E/DX2                !
 ! D81   D(11,14,44,13)         -0.012          estimate D2E/DX2                !
 ! D82   D(11,14,44,17)        179.993          estimate D2E/DX2                !
 ! D83   D(23,14,44,13)       -179.9956         estimate D2E/DX2                !
 ! D84   D(23,14,44,17)          0.0095         estimate D2E/DX2                !
 ! D85   D(12,15,23,14)         -0.0092         estimate D2E/DX2                !
 ! D86   D(12,15,23,18)       -179.9964         estimate D2E/DX2                !
 ! D87   D(35,15,23,14)        179.991          estimate D2E/DX2                !
 ! D88   D(35,15,23,18)          0.0039         estimate D2E/DX2                !
 ! D89   D(24,16,22,3)           0.0059         estimate D2E/DX2                !
 ! D90   D(24,16,22,13)       -179.9829         estimate D2E/DX2                !
 ! D91   D(25,16,22,3)        -179.9999         estimate D2E/DX2                !
 ! D92   D(25,16,22,13)          0.0113         estimate D2E/DX2                !
 ! D93   D(22,16,24,4)           0.0019         estimate D2E/DX2                !
 ! D94   D(22,16,24,19)        179.9936         estimate D2E/DX2                !
 ! D95   D(25,16,24,4)        -179.9925         estimate D2E/DX2                !
 ! D96   D(25,16,24,19)         -0.0008         estimate D2E/DX2                !
 ! D97   D(22,16,25,17)         -0.005          estimate D2E/DX2                !
 ! D98   D(22,16,25,20)       -179.9929         estimate D2E/DX2                !
 ! D99   D(24,16,25,17)        179.9893         estimate D2E/DX2                !
 ! D100  D(24,16,25,20)          0.0013         estimate D2E/DX2                !
 ! D101  D(26,17,25,16)       -179.9962         estimate D2E/DX2                !
 ! D102  D(26,17,25,20)         -0.008          estimate D2E/DX2                !
 ! D103  D(44,17,25,16)         -0.003          estimate D2E/DX2                !
 ! D104  D(44,17,25,20)        179.9852         estimate D2E/DX2                !
 ! D105  D(25,17,26,18)        179.9954         estimate D2E/DX2                !
 ! D106  D(25,17,26,21)          0.0108         estimate D2E/DX2                !
 ! D107  D(44,17,26,18)          0.0021         estimate D2E/DX2                !
 ! D108  D(44,17,26,21)       -179.9825         estimate D2E/DX2                !
 ! D109  D(25,17,44,13)          0.0049         estimate D2E/DX2                !
 ! D110  D(25,17,44,14)        179.9998         estimate D2E/DX2                !
 ! D111  D(26,17,44,13)        179.9986         estimate D2E/DX2                !
 ! D112  D(26,17,44,14)         -0.0065         estimate D2E/DX2                !
 ! D113  D(26,18,23,14)          0.0039         estimate D2E/DX2                !
 ! D114  D(26,18,23,15)        179.9907         estimate D2E/DX2                !
 ! D115  D(34,18,23,14)        179.9976         estimate D2E/DX2                !
 ! D116  D(34,18,23,15)         -0.0156         estimate D2E/DX2                !
 ! D117  D(23,18,26,17)         -0.0007         estimate D2E/DX2                !
 ! D118  D(23,18,26,21)        179.9827         estimate D2E/DX2                !
 ! D119  D(34,18,26,17)       -179.9942         estimate D2E/DX2                !
 ! D120  D(34,18,26,21)         -0.0107         estimate D2E/DX2                !
 ! D121  D(27,19,24,4)          -0.0072         estimate D2E/DX2                !
 ! D122  D(27,19,24,16)       -179.999          estimate D2E/DX2                !
 ! D123  D(28,19,24,4)         179.9902         estimate D2E/DX2                !
 ! D124  D(28,19,24,16)         -0.0015         estimate D2E/DX2                !
 ! D125  D(24,19,27,5)           0.0148         estimate D2E/DX2                !
 ! D126  D(24,19,27,30)       -179.9864         estimate D2E/DX2                !
 ! D127  D(28,19,27,5)        -179.9826         estimate D2E/DX2                !
 ! D128  D(28,19,27,30)          0.0163         estimate D2E/DX2                !
 ! D129  D(24,19,28,20)          0.0035         estimate D2E/DX2                !
 ! D130  D(24,19,28,31)       -179.9967         estimate D2E/DX2                !
 ! D131  D(27,19,28,20)       -179.9991         estimate D2E/DX2                !
 ! D132  D(27,19,28,31)          0.0007         estimate D2E/DX2                !
 ! D133  D(28,20,25,16)          0.0006         estimate D2E/DX2                !
 ! D134  D(28,20,25,17)       -179.9877         estimate D2E/DX2                !
 ! D135  D(29,20,25,16)        179.9894         estimate D2E/DX2                !
 ! D136  D(29,20,25,17)          0.0011         estimate D2E/DX2                !
 ! D137  D(25,20,28,19)         -0.003          estimate D2E/DX2                !
 ! D138  D(25,20,28,31)        179.9972         estimate D2E/DX2                !
 ! D139  D(29,20,28,19)       -179.9913         estimate D2E/DX2                !
 ! D140  D(29,20,28,31)          0.0089         estimate D2E/DX2                !
 ! D141  D(25,20,29,21)          0.0025         estimate D2E/DX2                !
 ! D142  D(25,20,29,32)       -179.9913         estimate D2E/DX2                !
 ! D143  D(28,20,29,21)        179.991          estimate D2E/DX2                !
 ! D144  D(28,20,29,32)         -0.0029         estimate D2E/DX2                !
 ! D145  D(29,21,26,17)         -0.0068         estimate D2E/DX2                !
 ! D146  D(29,21,26,18)       -179.9909         estimate D2E/DX2                !
 ! D147  D(33,21,26,17)       -179.9966         estimate D2E/DX2                !
 ! D148  D(33,21,26,18)          0.0193         estimate D2E/DX2                !
 ! D149  D(26,21,29,20)          0.0005         estimate D2E/DX2                !
 ! D150  D(26,21,29,32)        179.9942         estimate D2E/DX2                !
 ! D151  D(33,21,29,20)        179.9901         estimate D2E/DX2                !
 ! D152  D(33,21,29,32)         -0.0162         estimate D2E/DX2                !
 --------------------------------------------------------------------------------
 Trust Radius=3.00D-01 FncErr=1.00D-07 GrdErr=1.00D-07
 Number of steps in this run=    264 maximum allowed number of steps=    264.
 GradGradGradGradGradGradGradGradGradGradGradGradGradGradGradGradGradGrad

                          Input orientation:                          
 ---------------------------------------------------------------------
 Center     Atomic      Atomic             Coordinates (Angstroms)
 Number     Number       Type             X           Y           Z
 ---------------------------------------------------------------------
      1          6           0       -1.487342    1.255274    0.000000
      2          6           0       -0.114579    1.267573    0.000214
      3          6           0        0.637842    2.495615    0.000237
      4          6           0        2.761554    3.737816   -0.000096
      5          6           0        4.876369    4.985412   -0.000577
      6          6           0        2.060297    2.516154   -0.000014
      7          6           0        4.192364    3.771038   -0.000385
      8          6           0       -3.680332    2.523182   -0.000361
      9          6           0       -5.854424    3.764586   -0.000316
     10          6           0       -2.227169    2.491707   -0.000158
     11          6           0       -4.431403    3.732940   -0.000377
     12          6           0       -6.523170    4.989254   -0.000217
     13          6           0       -1.497229    3.665426    0.000042
     14          6           0       -3.770635    4.987756   -0.000065
     15          6           0       -5.831731    6.215386   -0.000158
     16          6           0        0.618765    4.984426    0.000243
     17          6           0       -1.488529    6.302410    0.000188
     18          6           0       -3.646057    7.473946   -0.000044
     19          6           0        2.763344    6.233835   -0.000066
     20          6           0        0.644264    7.488696    0.000097
     21          6           0       -1.486048    8.739497   -0.000106
     22          6           0       -0.072682    3.722583    0.000254
     23          6           0       -4.423380    6.225598   -0.000181
     24          6           0        2.039423    4.985716    0.000088
     25          6           0       -0.086819    6.245918    0.000262
     26          6           0       -2.247828    7.509622    0.000125
     27          6           0        4.183286    6.205843   -0.000242
     28          6           0        2.051167    7.464069   -0.000096
     29          6           0       -0.108077    8.718323   -0.000112
     30          1           0        4.736826    7.141709   -0.000134
     31          1           0        2.608212    8.398162   -0.000269
     32          1           0        0.450622    9.653867   -0.000382
     33          1           0       -2.024149    9.684844   -0.000104
     34          1           0       -4.210816    8.402296   -0.000186
     35          1           0       -6.391623    7.148101   -0.000098
     36          1           0       -7.613530    5.001882   -0.000063
     37          1           0       -6.417453    2.834207   -0.000272
     38          1           0       -4.208336    1.574068   -0.000359
     39          1           0       -2.035005    0.314677    0.000084
     40          1           0        0.442586    0.330166    0.000014
     41          1           0        2.607852    1.577080   -0.000179
     42          1           0        4.741811    2.832903   -0.000582
     43          1           0        5.965971    4.991361   -0.000799
     44         46           0       -2.251750    4.985817    0.000017
 ---------------------------------------------------------------------
                    Distance matrix (angstroms):
                    1          2          3          4          5
     1  C    0.000000
     2  C    1.372818   0.000000
     3  C    2.460661   1.440217   0.000000
     4  C    4.920988   3.791337   2.460328   0.000000
     5  C    7.376364   6.223494   4.915709   2.455390   0.000000
     6  C    3.765044   2.507795   1.422603   1.408623   3.745330
     7  C    6.211934   4.981675   3.776417   1.431196   1.393760
     8  C    2.533140   3.780364   4.318263   6.555397   8.903916
     9  C    5.036670   6.259464   6.615119   8.616019  10.800015
    10  C    1.440871   2.441627   2.865014   5.141998   7.528533
    11  C    3.847899   4.971218   5.218067   7.192959   9.391662
    12  C    6.269144   7.410867   7.582765   9.368681  11.399540
    13  C    2.410172   2.767927   2.434540   4.259398   6.508849
    14  C    4.375483   5.215986   5.064132   6.650702   8.647004
    15  C    6.593666   7.560866   7.462713   8.943316  10.778509
    16  C    4.282786   3.788507   2.488884   2.479028   4.257604
    17  C    5.047136   5.218939   4.360406   4.963904   6.499724
    18  C    6.582699   7.140757   6.567768   7.417287   8.878319
    19  C    6.546327   5.739878   4.300238   2.496019   2.454269
    20  C    6.587813   6.267233   4.993085   4.307204   4.917026
    21  C    7.484223   7.596748   6.595223   6.561930   7.387389
    22  C    2.844095   2.455367   1.417849   2.834277   5.107626
    23  C    5.772732   6.568697   6.287188   7.603442   9.382078
    24  C    5.133641   4.297012   2.857452   1.441779   2.836946
    25  C    5.183434   4.978422   3.819674   3.795234   5.120753
    26  C    6.300413   6.596509   5.785098   6.270600   7.558163
    27  C    7.527559   6.546613   5.131857   2.848241   1.403502
    28  C    7.146340   6.564070   5.165562   3.793364   3.758392
    29  C    7.589432   7.450753   6.267256   5.748063   6.227305
    30  H    8.566818   7.618504   6.195794   3.935503   2.160808
    31  H    8.233736   7.632751   6.222734   4.662868   4.097731
    32  H    8.619284   8.405318   7.160700   6.351382   6.432862
    33  H    8.446645   8.631159   7.666238   7.633485   8.348761
    34  H    7.648348   8.226994   7.641883   8.388761   9.708349
    35  H    7.666641   8.601273   8.429650   9.767839  11.473660
    36  H    7.181034   8.377311   8.623602  10.451805  12.489910
    37  H    5.176778   6.494657   7.063415   9.223376  11.496873
    38  H    2.739605   4.105214   4.933020   7.298025   9.704078
    39  H    1.088420   2.143839   3.449725   5.892780   8.341634
    40  H    2.140197   1.090488   2.174234   4.121855   6.428821
    41  H    4.107818   2.739967   2.173625   2.166196   4.094252
    42  H    6.425828   5.102429   4.117806   2.177221   2.156710
    43  H    8.337279   7.130195   5.883681   3.440881   1.089618
    44  Pd   3.808053   4.288687   3.814558   5.166306   7.128119
                    6          7          8          9         10
     6  C    0.000000
     7  C    2.473953   0.000000
     8  C    5.740633   7.970978   0.000000
     9  C    8.012576  10.046789   2.503549   0.000000
    10  C    4.287535   6.545768   1.453504   3.844112   0.000000
    11  C    6.604751   8.623851   1.423946   1.423372   2.529685
    12  C    8.932643  10.784559   3.763407   1.395361   4.969242
    13  C    3.738558   5.690573   2.463871   4.358323   1.382183
    14  C    6.333133   8.055417   2.466228   2.416262   2.934714
    15  C    8.715987  10.317816   4.273276   2.450906   5.182534
    16  C    2.858387   3.773979   4.953783   6.587123   3.783251
    17  C    5.189402   6.219356   4.368817   5.049910   3.881629
    18  C    7.559244   8.669047   4.950883   4.316971   5.180343
    19  C    3.783573   2.847361   7.435719   8.964548   6.237687
    20  C    5.170233   5.139065   6.584714   7.490123   5.763248
    21  C    7.162859   7.545194   6.592227   6.620608   6.291593
    22  C    2.450524   4.265321   3.801803   5.781894   2.481304
    23  C    7.469808   8.958565   3.776242   2.846835   4.331892
    24  C    2.469650   2.471962   6.227333   7.987739   4.942053
    25  C    4.303631   4.943322   5.174177   6.278716   4.321481
    26  C    6.595048   7.446683   5.188126   5.199311   5.017958
    27  C    4.256863   2.434822   8.683230  10.330312   7.408693
    28  C    4.947924   4.268865   7.567196   8.728376   6.559615
    29  C    6.570293   6.555106   7.151279   7.586832   6.577333
    30  H    5.344115   3.414361   9.601008  11.116633   8.373753
    31  H    5.907472   4.890788   8.605881   9.648121   7.633290
    32  H    7.316966   6.971965   8.240841   8.627702   7.646378
    33  H    8.250625   8.580101   7.350670   7.051274   7.196001
    34  H    8.600786   9.594894   5.902999   4.920346   6.234575
    35  H    9.637940  11.109695   5.361061   3.425895   6.246974
    36  H    9.988081  11.869882   4.649085   2.150664   5.942547
    37  H    8.483714  10.651096   2.754735   1.087477   4.204258
    38  H    6.339028   8.683227   1.086096   2.740068   2.183365
    39  H    4.649516   7.122257   2.754015   5.146827   2.185495
    40  H    2.719473   5.089246   4.669879   7.172696   3.435091
    41  H    1.087050   2.706313   6.358960   8.740440   4.920769
    42  H    2.700158   1.087194   8.427837  10.637116   6.977328
    43  H    4.623953   2.152875   9.957062  11.883884   8.565968
    44  Pd   4.969203   6.557613   2.847002   3.804032   2.494231
                   11         12         13         14         15
    11  C    0.000000
    12  C    2.440044   0.000000
    13  C    2.934951   5.197365   0.000000
    14  C    1.418161   2.752535   2.630006   0.000000
    15  C    2.850168   1.407654   5.028937   2.398999   0.000000
    16  C    5.202924   7.141937   2.493430   4.389401   6.566899
    17  C    3.906749   5.203075   2.636998   2.633690   4.344074
    18  C    3.822551   3.801510   4.372904   2.489309   2.522131
    19  C    7.617012   9.369543   4.974858   6.651736   8.595095
    20  C    6.314120   7.590740   4.382166   5.074055   6.599988
    21  C    5.808677   6.279882   5.074083   4.392596   5.025544
    22  C    4.358734   6.573679   1.425693   3.908391   6.275406
    23  C    2.492671   2.436733   3.888038   1.399403   1.408389
    24  C    6.590982   8.562594   3.775060   5.810059   7.966628
    25  C    5.019011   6.557882   2.940781   3.892746   5.744993
    26  C    4.362491   4.962943   3.916790   2.945972   3.810434
    27  C    8.962595  10.775355   6.222697   8.046651  10.015021
    28  C    7.479642   8.924347   5.198154   6.326571   7.981184
    29  C    6.598879   7.420201   5.240374   5.227950   6.246993
    30  H    9.781418  11.463882   7.137786   8.775899  10.609076
    31  H    8.445146   9.746938   6.265256   7.233295   8.717635
    32  H    7.674083   8.390018   6.297265   6.292186   7.161782
    33  H    6.420283   6.503057   6.042436   5.011272   5.151196
    34  H    4.674564   4.122601   5.459074   3.442796   2.722120
    35  H    3.937739   2.162852   6.007006   3.396567   1.087858
    36  H    3.425806   1.090433   6.260611   3.842921   2.155783
    37  H    2.179934   2.157638   4.989943   3.412245   3.431536
    38  H    2.170366   4.125767   3.424015   3.441635   4.917037
    39  H    4.174595   6.480378   3.393630   4.984985   7.016659
    40  H    5.944294   8.380265   3.858347   6.280475   8.602492
    41  H    7.361986   9.747743   4.605744   7.233105   9.630184
    42  H    9.217263  11.469510   6.294340   8.780953  11.101396
    43  H   10.473252  12.489141   7.580070   9.736606  11.861029
    44  Pd   2.514078   4.271421   1.520768   1.518886   3.785248
                   16         17         18         19         20
    16  C    0.000000
    17  C    2.485512   0.000000
    18  C    4.938261   2.455081   0.000000
    19  C    2.481984   4.252426   6.528269   0.000000
    20  C    2.504399   2.440509   4.290347   2.462758   0.000000
    21  C    4.304741   2.437089   2.503449   4.933121   2.470372
    22  C    1.438870   2.942810   5.180901   3.788064   3.833747
    23  C    5.192661   2.935855   1.470579   7.186729   5.222684
    24  C    1.420659   3.765651   6.206124   1.442866   2.865550
    25  C    1.445410   1.402848   3.765133   2.850189   1.441867
    26  C    3.820206   1.426147   1.398684   5.171023   2.892168
    27  C    3.767979   5.672637   7.931374   1.420217   3.764357
    28  C    2.863635   3.725440   5.697232   1.421504   1.407118
    29  C    3.803983   2.782497   3.750437   3.797070   1.441528
    30  H    4.648903   6.281678   8.389465   2.172295   4.107245
    31  H    3.951138   4.601681   6.322188   2.169880   2.164306
    32  H    4.672467   3.872024   4.640564   4.128595   2.173813
    33  H    5.392488   3.424580   2.742016   5.901657   3.455937
    34  H    5.916645   3.438077   1.086640   7.303502   4.940291
    35  H    7.336691   4.975492   2.764834   9.200506   7.044127
    36  H    8.232313   6.261550   4.674606  10.449748   8.624118
    37  H    7.357432   6.026833   5.404425   9.790021   8.457666
    38  H    5.910283   5.454775   5.926611   8.385568   7.650526
    39  H    5.371131   6.012618   7.338298   7.619749   7.658004
    40  H    4.657593   6.276695   8.231075   6.343439   7.161370
    41  H    3.945437   6.253725   8.595604   4.659350   6.229195
    42  H    4.650652   7.131243   9.586220   3.934548   6.202120
    43  H    5.347210   7.568911   9.927452   3.435194   5.878540
    44  Pd   2.870516   1.521816   2.852171   5.168048   3.827702
                   21         22         23         24         25
    21  C    0.000000
    22  C    5.212200   0.000000
    23  C    3.866213   5.019328   0.000000
    24  C    5.149740   2.460994   6.580663   0.000000
    25  C    2.859332   2.523375   4.336608   2.471643   0.000000
    26  C    1.446686   4.367256   2.526211   4.975000   2.503379
    27  C    6.209730   4.927458   8.606688   2.466750   4.270293
    28  C    3.760134   4.302262   6.591931   2.478382   2.460666
    29  C    1.378134   4.995866   4.983525   4.306288   2.472497
    30  H    6.424725   5.900999   9.205902   3.453156   4.906118
    31  H    4.108464   5.389641   7.359573   3.459524   3.448963
    32  H    2.141673   5.954324   5.958936   4.931118   3.450066
    33  H    1.087765   6.273498   4.209832   6.212441   3.947082
    34  H    2.745554   6.246909   2.187052   7.123097   4.653743
    35  H    5.157248   7.187711   2.173705   8.703933   6.369026
    36  H    7.177451   7.648594   3.416803   9.652967   7.628827
    37  H    7.693582   6.406663   3.934191   8.726267   7.191432
    38  H    7.665131   4.660445   4.656499   7.118556   6.230015
    39  H    8.442686   3.932497   6.375212   6.198352   6.243000
    40  H    8.627657   3.431325   7.644196   4.921791   5.939393
    41  H    8.249863   3.433431   8.428934   3.455707   5.390668
    42  H    8.583361   4.896006   9.772978   3.455069   5.913066
    43  H    8.341529   6.170505  10.462406   3.926552   6.181438
    44  Pd   3.830981   2.518749   2.500606   4.291174   2.504951
                   26         27         28         29         30
    26  C    0.000000
    27  C    6.561941   0.000000
    28  C    4.299236   2.475695   0.000000
    29  C    2.457539   4.972761   2.497095   0.000000
    30  H    6.994338   1.087314   2.704937   5.094978   0.000000
    31  H    4.936662   2.699466   1.087579   2.735092   2.471775
    32  H    3.446653   5.081500   2.712371   1.089672   4.968147
    33  H    2.186692   7.115876   4.641125   2.146042   7.223457
    34  H    2.156430   8.676713   6.331880   4.114893   9.036005
    35  H    4.159535  10.616805   8.448700   6.476770  11.128451
    36  H    5.922796  11.858093   9.973401   8.375188  12.534359
    37  H    6.264605  11.124009   9.651587   8.627343  11.957111
    38  H    6.250952   9.585022   8.594969   8.237264  10.536344
    39  H    7.198092   8.565802   8.234720   8.621736   9.615927
    40  H    7.667001   6.965372   7.313009   8.406212   8.052180
    41  H    7.666335   4.889524   5.913252   7.640264   5.957989
    42  H    8.409921   3.418871   5.356050   7.626243   4.308809
    43  H    8.591166   2.157066   4.630332   7.126310   2.476851
    44  Pd   2.523808   6.549668   4.965564   4.304293   7.313554
                   31         32         33         34         35
    31  H    0.000000
    32  H    2.496395   0.000000
    33  H    4.807736   2.474965   0.000000
    34  H    6.819030   4.826535   2.535043   0.000000
    35  H    9.086236   7.286644   5.050732   2.515735   0.000000
    36  H   10.771199   9.309754   7.291866   4.810538   2.469679
    37  H   10.602840   9.678750   8.138325   5.989395   4.313971
    38  H    9.645392   9.326792   8.399724   6.828229   5.986367
    39  H    9.322134   9.664306   9.370173   8.375186   8.104061
    40  H    8.353591   9.323704   9.674439   9.317372   9.653530
    41  H    6.821082   8.359912   9.337627   9.647684  10.584273
    42  H    5.960231   8.058527   9.629502  10.543609  11.940448
    43  H    4.783391   7.222051   9.266650  10.733195  12.544387
    44  Pd   5.938294   5.393840   4.704536   3.938308   4.670548
                   36         37         38         39         40
    36  H    0.000000
    37  H    2.475765   0.000000
    38  H    4.831693   2.543256   0.000000
    39  H    7.286277   5.055085   2.511858   0.000000
    40  H    9.312676   7.302763   4.814391   2.477639   0.000000
    41  H   10.779885   9.112436   6.816188   4.811421   2.498633
    42  H   12.544279  11.159264   9.038241   7.229571   4.974639
    43  H   13.579505  12.569904  10.732866   9.267523   7.227345
    44  Pd   5.361804   4.688550   3.932971   4.676166   5.379083
                   41         42         43         44
    41  H    0.000000
    42  H    2.476061   0.000000
    43  H    4.788975   2.481433   0.000000
    44  Pd   5.935926   7.317441   8.217723   0.000000
 Stoichiometry    C29H14Pd
 Framework group  C1[X(C29H14Pd)]
 Deg. of freedom   126
 Full point group                 C1      NOp   1
 Largest Abelian subgroup         C1      NOp   1
 Largest concise Abelian subgroup C1      NOp   1
                         Standard orientation:                         
 ---------------------------------------------------------------------
 Center     Atomic      Atomic             Coordinates (Angstroms)
 Number     Number       Type             X           Y           Z
 ---------------------------------------------------------------------
      1          6           0        0.428904   -3.733674   -0.000058
      2          6           0       -0.943861   -3.721603   -0.000272
      3          6           0       -1.696487   -2.493687   -0.000295
      4          6           0       -3.820405   -1.251840    0.000038
      5          6           0       -5.935429   -0.004597    0.000519
      6          6           0       -3.118945   -2.473385   -0.000043
      7          6           0       -5.251221   -1.218857    0.000327
      8          6           0        2.621683   -2.465400    0.000303
      9          6           0        4.795568   -1.223634    0.000259
     10          6           0        1.168525   -2.497117    0.000100
     11          6           0        3.372552   -1.255518    0.000320
     12          6           0        5.464110    0.001145    0.000159
     13          6           0        0.438389   -1.323520   -0.000100
     14          6           0        2.711575   -0.000811    0.000007
     15          6           0        4.772467    1.227162    0.000100
     16          6           0       -1.677824   -0.004873   -0.000301
     17          6           0        0.429250    1.313462   -0.000246
     18          6           0        2.586583    2.485358   -0.000014
     19          6           0       -3.822612    1.244179    0.000009
     20          6           0       -1.703741    2.499392   -0.000154
     21          6           0        0.426363    3.750549    0.000048
     22          6           0       -0.986167   -1.266601   -0.000311
     23          6           0        3.364113    1.237140    0.000124
     24          6           0       -3.098483   -0.003820   -0.000146
     25          6           0       -0.972451    1.256737   -0.000320
     26          6           0        1.188348    2.520801   -0.000182
     27          6           0       -5.242549    1.215950    0.000185
     28          6           0       -3.110639    2.474532    0.000039
     29          6           0       -0.951605    3.729146    0.000054
     30          1           0       -5.796245    2.151723    0.000077
     31          1           0       -3.667841    3.408531    0.000211
     32          1           0       -1.510460    4.664596    0.000324
     33          1           0        0.964306    4.695985    0.000047
     34          1           0        3.151187    3.413802    0.000129
     35          1           0        5.332203    2.159971    0.000040
     36          1           0        6.554467    0.013955    0.000005
     37          1           0        5.358752   -2.153919    0.000214
     38          1           0        3.149844   -3.414427    0.000301
     39          1           0        0.976723   -4.674179   -0.000141
     40          1           0       -1.500870   -4.659103   -0.000072
     41          1           0       -3.666343   -3.412551    0.000122
     42          1           0       -5.800512   -2.157083    0.000524
     43          1           0       -7.025031    0.001171    0.000741
     44         46           0        1.192691   -0.003004   -0.000074
 ---------------------------------------------------------------------
 Rotational constants (GHZ):      0.3074628      0.1321388      0.0924195
 Standard basis: VSTO-6G (5D, 7F)
 There are   140 symmetry adapted cartesian basis functions of A   symmetry.
 There are   139 symmetry adapted basis functions of A   symmetry.
   139 basis functions,   840 primitive gaussians,   140 cartesian basis functions
    70 alpha electrons       70 beta electrons
       nuclear repulsion energy      1378.0701706841 Hartrees.
 Integral buffers will be    262144 words long.
 Regular integral format.
 Two-electron integral symmetry is turned off.
 Do NDO integrals.
 One-electron integrals computed using PRISM.
 NBasis=   139 RedAO= F EigKep=  0.00D+00  NBF=   139
 NBsUse=   139 1.00D-04 EigRej=  0.00D+00 NBFU=   139
 Simple Huckel Guess.
 Keep J ints in memory in canonical form, NReq=2092071.
 Gradient too large for Newton-Raphson -- use scaled steepest descent instead.
     Accept linear search using points  1 and  2.
 Gradient too large for Newton-Raphson -- use scaled steepest descent instead.
     Minimum is close to point  3 DX=  1.21D-02 DF= -9.86D-04 DXR=  2.93D-02 DFR=  8.32D-04 which will be used.
 Gradient too large for Newton-Raphson -- use scaled steepest descent instead.
 Gradient too large for Newton-Raphson -- use scaled steepest descent instead.
     Accept linear search using points  1 and  2.
 Gradient too large for Newton-Raphson -- use scaled steepest descent instead.
     Accept linear search using points  3 and  4.
 Gradient too large for Newton-Raphson -- use scaled steepest descent instead.
 Gradient too large for Newton-Raphson -- use scaled steepest descent instead.
     Accept linear search using points  2 and  3.
 Gradient too large for Newton-Raphson -- use scaled steepest descent instead.
     Accept linear search using points  1 and  2.
 Gradient too large for Newton-Raphson -- use scaled steepest descent instead.
     Minimum is close to point  3 DX=  5.27D-02 DF= -6.45D-06 DXR=  3.63D-02 DFR=  1.32D-03 which will be used.
 Gradient too large for Newton-Raphson -- use scaled steepest descent instead.
     Accept linear search using points  1 and  2.
 Gradient too large for Newton-Raphson -- use scaled steepest descent instead.
 Gradient too large for Newton-Raphson -- use scaled steepest descent instead.
 Gradient too large for Newton-Raphson -- use scaled steepest descent instead.
     Minimum is close to point  3 DX=  7.51D-02 DF= -3.32D-06 DXR=  4.77D-02 DFR=  2.28D-03 which will be used.
 Gradient too large for Newton-Raphson -- use scaled steepest descent instead.
     Accept linear search using points  1 and  2.
 Gradient too large for Newton-Raphson -- use scaled steepest descent instead.
 Gradient too large for Newton-Raphson -- use scaled steepest descent instead.
 Gradient too large for Newton-Raphson -- use scaled steepest descent instead.
     Minimum is close to point  3 DX=  8.07D-02 DF= -1.10D-06 DXR=  4.80D-02 DFR=  2.31D-03 which will be used.
 Gradient too large for Newton-Raphson -- use scaled steepest descent instead.
 Gradient too large for Newton-Raphson -- use scaled steepest descent instead.
     Accept linear search using points  2 and  3.
     Minimum is close to point  3 DX= -1.40D-01 DF= -1.72D-06 DXR=  9.56D-02 DFR=  7.02D-03 which will be used.
 Gradient too large for Newton-Raphson -- use scaled steepest descent instead.
     Accept linear search using points  1 and  2.
 Gradient too large for Newton-Raphson -- use scaled steepest descent instead.
 Gradient too large for Newton-Raphson -- use scaled steepest descent instead.
 LinEq1:  Iter=  0 NonCon=     1 RMS=1.87D-04 Max=5.33D-03 NDo=     1
 AX will form     1 AO Fock derivatives at one time.
 LinEq1:  Iter=  1 NonCon=     1 RMS=4.16D-05 Max=1.33D-03 NDo=     1
 LinEq1:  Iter=  2 NonCon=     1 RMS=1.85D-05 Max=3.91D-04 NDo=     1
 LinEq1:  Iter=  3 NonCon=     1 RMS=6.94D-06 Max=1.84D-04 NDo=     1
 LinEq1:  Iter=  4 NonCon=     1 RMS=2.59D-06 Max=4.62D-05 NDo=     1
 LinEq1:  Iter=  5 NonCon=     1 RMS=1.32D-06 Max=5.25D-05 NDo=     1
 LinEq1:  Iter=  6 NonCon=     1 RMS=4.68D-07 Max=7.26D-06 NDo=     1
 LinEq1:  Iter=  7 NonCon=     1 RMS=1.17D-07 Max=2.46D-06 NDo=     1
 LinEq1:  Iter=  8 NonCon=     1 RMS=4.13D-08 Max=1.03D-06 NDo=     1
 LinEq1:  Iter=  9 NonCon=     1 RMS=1.43D-08 Max=2.30D-07 NDo=     1
 LinEq1:  Iter= 10 NonCon=     1 RMS=6.17D-09 Max=1.06D-07 NDo=     1
 LinEq1:  Iter= 11 NonCon=     0 RMS=2.03D-09 Max=2.39D-08 NDo=     1
 Linear equations converged to 9.829D-09 9.829D-08 after    11 iterations.
     Accept linear search using points  1 and  2.
     Minimum is close to point  2 DX= -9.74D-03 DF= -3.11D-08 DXR=  9.83D-03 DFR=  9.74D-05 which will be used.
 LinEq1:  Iter=  0 NonCon=     1 RMS=3.86D-06 Max=1.37D-04 NDo=     1
 LinEq1:  Iter=  1 NonCon=     1 RMS=2.12D-06 Max=9.14D-05 NDo=     1
 LinEq1:  Iter=  2 NonCon=     1 RMS=7.11D-07 Max=1.28D-05 NDo=     1
 LinEq1:  Iter=  3 NonCon=     1 RMS=3.08D-07 Max=7.61D-06 NDo=     1
 LinEq1:  Iter=  4 NonCon=     1 RMS=1.17D-07 Max=2.23D-06 NDo=     1
 LinEq1:  Iter=  5 NonCon=     1 RMS=3.67D-08 Max=8.03D-07 NDo=     1
 LinEq1:  Iter=  6 NonCon=     1 RMS=1.09D-08 Max=1.47D-07 NDo=     1
 LinEq1:  Iter=  7 NonCon=     1 RMS=4.00D-09 Max=5.81D-08 NDo=     1
 LinEq1:  Iter=  8 NonCon=     1 RMS=1.56D-09 Max=4.01D-08 NDo=     1
 LinEq1:  Iter=  9 NonCon=     0 RMS=5.52D-10 Max=1.04D-08 NDo=     1
 Linear equations converged to 1.502D-09 1.502D-08 after     9 iterations.
     Accept linear search using points  1 and  2.
     Minimum is close to point  2 DX= -5.22D-04 DF= -3.77D-14 DXR=  5.22D-04 DFR=  2.72D-07 which will be used.
 LinEq1:  Iter=  0 NonCon=     1 RMS=8.20D-08 Max=1.71D-06 NDo=     1
 LinEq1:  Iter=  1 NonCon=     1 RMS=4.63D-08 Max=1.92D-06 NDo=     1
 LinEq1:  Iter=  2 NonCon=     1 RMS=1.80D-08 Max=2.98D-07 NDo=     1
 LinEq1:  Iter=  3 NonCon=     1 RMS=6.49D-09 Max=1.21D-07 NDo=     1
 LinEq1:  Iter=  4 NonCon=     1 RMS=2.11D-09 Max=3.41D-08 NDo=     1
 LinEq1:  Iter=  5 NonCon=     1 RMS=6.13D-10 Max=9.55D-09 NDo=     1
 LinEq1:  Iter=  6 NonCon=     1 RMS=2.19D-10 Max=5.09D-09 NDo=     1
 LinEq1:  Iter=  7 NonCon=     1 RMS=7.83D-11 Max=1.48D-09 NDo=     1
 LinEq1:  Iter=  8 NonCon=     1 RMS=2.47D-11 Max=7.35D-10 NDo=     1
 LinEq1:  Iter=  9 NonCon=     0 RMS=1.04D-11 Max=2.36D-10 NDo=     1
 Linear equations converged to 4.526D-11 4.526D-10 after     9 iterations.
 SCF Done:  E(RPM6) =  0.785904687034     a.u. after   26 cycles
            Convg  =    0.1183D-06                    98 Fock formations.
              S**2 =  0.0000                  -V/T =  1.0081

 **********************************************************************

            Population analysis using the SCF density.

 **********************************************************************

 Orbital symmetries:
       Occupied  (A) (A) (A) (A) (A) (A) (A) (A) (A) (A) (A) (A)
                 (A) (A) (A) (A) (A) (A) (A) (A) (A) (A) (A) (A)
                 (A) (A) (A) (A) (A) (A) (A) (A) (A) (A) (A) (A)
                 (A) (A) (A) (A) (A) (A) (A) (A) (A) (A) (A) (A)
                 (A) (A) (A) (A) (A) (A) (A) (A) (A) (A) (A) (A)
                 (A) (A) (A) (A) (A) (A) (A) (A) (A) (A)
       Virtual   (A) (A) (A) (A) (A) (A) (A) (A) (A) (A) (A) (A)
                 (A) (A) (A) (A) (A) (A) (A) (A) (A) (A) (A) (A)
                 (A) (A) (A) (A) (A) (A) (A) (A) (A) (A) (A) (A)
                 (A) (A) (A) (A) (A) (A) (A) (A) (A) (A) (A) (A)
                 (A) (A) (A) (A) (A) (A) (A) (A) (A) (A) (A) (A)
                 (A) (A) (A) (A) (A) (A) (A) (A) (A)
 The electronic state is 1-A.
 Alpha  occ. eigenvalues --   -1.22472  -1.11049  -1.10509  -1.08747  -1.04437
 Alpha  occ. eigenvalues --   -1.03819  -1.02005  -1.00634  -0.96790  -0.94620
 Alpha  occ. eigenvalues --   -0.94321  -0.93751  -0.90965  -0.88489  -0.86622
 Alpha  occ. eigenvalues --   -0.81943  -0.80969  -0.79508  -0.79155  -0.75868
 Alpha  occ. eigenvalues --   -0.75628  -0.73257  -0.70465  -0.68807  -0.66886
 Alpha  occ. eigenvalues --   -0.63739  -0.62644  -0.60483  -0.59582  -0.58825
 Alpha  occ. eigenvalues --   -0.57722  -0.56988  -0.56557  -0.54947  -0.53546
 Alpha  occ. eigenvalues --   -0.53054  -0.52574  -0.51942  -0.51589  -0.51495
 Alpha  occ. eigenvalues --   -0.51293  -0.51045  -0.49380  -0.49265  -0.48593
 Alpha  occ. eigenvalues --   -0.48264  -0.47958  -0.47883  -0.46718  -0.45821
 Alpha  occ. eigenvalues --   -0.44680  -0.44487  -0.42871  -0.42825  -0.42166
 Alpha  occ. eigenvalues --   -0.42152  -0.41255  -0.41058  -0.40913  -0.40384
 Alpha  occ. eigenvalues --   -0.39556  -0.38567  -0.36189  -0.34552  -0.33980
 Alpha  occ. eigenvalues --   -0.33174  -0.32338  -0.29790  -0.25661  -0.24581
 Alpha virt. eigenvalues --   -0.07702  -0.01940  -0.00347   0.00221   0.01687
 Alpha virt. eigenvalues --    0.02028   0.02204   0.02391   0.03309   0.04089
 Alpha virt. eigenvalues --    0.05613   0.06904   0.08968   0.09951   0.10606
 Alpha virt. eigenvalues --    0.12445   0.12655   0.13243   0.13767   0.14341
 Alpha virt. eigenvalues --    0.14897   0.15070   0.15472   0.16028   0.16195
 Alpha virt. eigenvalues --    0.16404   0.16601   0.16906   0.17037   0.17245
 Alpha virt. eigenvalues --    0.17313   0.17673   0.17802   0.17968   0.18122
 Alpha virt. eigenvalues --    0.18330   0.18383   0.18554   0.18632   0.18868
 Alpha virt. eigenvalues --    0.19176   0.19353   0.19752   0.19884   0.19948
 Alpha virt. eigenvalues --    0.20053   0.20439   0.20719   0.20785   0.21291
 Alpha virt. eigenvalues --    0.21457   0.21648   0.21878   0.21990   0.22197
 Alpha virt. eigenvalues --    0.22412   0.22573   0.22645   0.22758   0.22875
 Alpha virt. eigenvalues --    0.22961   0.23052   0.23299   0.23590   0.23688
 Alpha virt. eigenvalues --    0.25286   2.76403   2.76999   2.96731
          Condensed to atoms (all electrons):
               1          2          3          4          5          6
     1  C    4.139304   0.000000   0.000000   0.000000   0.000000   0.000000
     2  C    0.000000   4.183986   0.000000   0.000000   0.000000   0.000000
     3  C    0.000000   0.000000   3.948326   0.000000   0.000000   0.000000
     4  C    0.000000   0.000000   0.000000   3.968828   0.000000   0.000000
     5  C    0.000000   0.000000   0.000000   0.000000   4.127556   0.000000
     6  C    0.000000   0.000000   0.000000   0.000000   0.000000   4.208580
     7  C    0.000000   0.000000   0.000000   0.000000   0.000000   0.000000
     8  C    0.000000   0.000000   0.000000   0.000000   0.000000   0.000000
     9  C    0.000000   0.000000   0.000000   0.000000   0.000000   0.000000
    10  C    0.000000   0.000000   0.000000   0.000000   0.000000   0.000000
    11  C    0.000000   0.000000   0.000000   0.000000   0.000000   0.000000
    12  C    0.000000   0.000000   0.000000   0.000000   0.000000   0.000000
    13  C    0.000000   0.000000   0.000000   0.000000   0.000000   0.000000
    14  C    0.000000   0.000000   0.000000   0.000000   0.000000   0.000000
    15  C    0.000000   0.000000   0.000000   0.000000   0.000000   0.000000
    16  C    0.000000   0.000000   0.000000   0.000000   0.000000   0.000000
    17  C    0.000000   0.000000   0.000000   0.000000   0.000000   0.000000
    18  C    0.000000   0.000000   0.000000   0.000000   0.000000   0.000000
    19  C    0.000000   0.000000   0.000000   0.000000   0.000000   0.000000
    20  C    0.000000   0.000000   0.000000   0.000000   0.000000   0.000000
    21  C    0.000000   0.000000   0.000000   0.000000   0.000000   0.000000
    22  C    0.000000   0.000000   0.000000   0.000000   0.000000   0.000000
    23  C    0.000000   0.000000   0.000000   0.000000   0.000000   0.000000
    24  C    0.000000   0.000000   0.000000   0.000000   0.000000   0.000000
    25  C    0.000000   0.000000   0.000000   0.000000   0.000000   0.000000
    26  C    0.000000   0.000000   0.000000   0.000000   0.000000   0.000000
    27  C    0.000000   0.000000   0.000000   0.000000   0.000000   0.000000
    28  C    0.000000   0.000000   0.000000   0.000000   0.000000   0.000000
    29  C    0.000000   0.000000   0.000000   0.000000   0.000000   0.000000
    30  H    0.000000   0.000000   0.000000   0.000000   0.000000   0.000000
    31  H    0.000000   0.000000   0.000000   0.000000   0.000000   0.000000
    32  H    0.000000   0.000000   0.000000   0.000000   0.000000   0.000000
    33  H    0.000000   0.000000   0.000000   0.000000   0.000000   0.000000
    34  H    0.000000   0.000000   0.000000   0.000000   0.000000   0.000000
    35  H    0.000000   0.000000   0.000000   0.000000   0.000000   0.000000
    36  H    0.000000   0.000000   0.000000   0.000000   0.000000   0.000000
    37  H    0.000000   0.000000   0.000000   0.000000   0.000000   0.000000
    38  H    0.000000   0.000000   0.000000   0.000000   0.000000   0.000000
    39  H    0.000000   0.000000   0.000000   0.000000   0.000000   0.000000
    40  H    0.000000   0.000000   0.000000   0.000000   0.000000   0.000000
    41  H    0.000000   0.000000   0.000000   0.000000   0.000000   0.000000
    42  H    0.000000   0.000000   0.000000   0.000000   0.000000   0.000000
    43  H    0.000000   0.000000   0.000000   0.000000   0.000000   0.000000
    44  Pd   0.000000   0.000000   0.000000   0.000000   0.000000   0.000000
               7          8          9         10         11         12
     1  C    0.000000   0.000000   0.000000   0.000000   0.000000   0.000000
     2  C    0.000000   0.000000   0.000000   0.000000   0.000000   0.000000
     3  C    0.000000   0.000000   0.000000   0.000000   0.000000   0.000000
     4  C    0.000000   0.000000   0.000000   0.000000   0.000000   0.000000
     5  C    0.000000   0.000000   0.000000   0.000000   0.000000   0.000000
     6  C    0.000000   0.000000   0.000000   0.000000   0.000000   0.000000
     7  C    4.183537   0.000000   0.000000   0.000000   0.000000   0.000000
     8  C    0.000000   4.423834   0.000000   0.000000   0.000000   0.000000
     9  C    0.000000   0.000000   4.115363   0.000000   0.000000   0.000000
    10  C    0.000000   0.000000   0.000000   3.992423   0.000000   0.000000
    11  C    0.000000   0.000000   0.000000   0.000000   4.027013   0.000000
    12  C    0.000000   0.000000   0.000000   0.000000   0.000000   4.206477
    13  C    0.000000   0.000000   0.000000   0.000000   0.000000   0.000000
    14  C    0.000000   0.000000   0.000000   0.000000   0.000000   0.000000
    15  C    0.000000   0.000000   0.000000   0.000000   0.000000   0.000000
    16  C    0.000000   0.000000   0.000000   0.000000   0.000000   0.000000
    17  C    0.000000   0.000000   0.000000   0.000000   0.000000   0.000000
    18  C    0.000000   0.000000   0.000000   0.000000   0.000000   0.000000
    19  C    0.000000   0.000000   0.000000   0.000000   0.000000   0.000000
    20  C    0.000000   0.000000   0.000000   0.000000   0.000000   0.000000
    21  C    0.000000   0.000000   0.000000   0.000000   0.000000   0.000000
    22  C    0.000000   0.000000   0.000000   0.000000   0.000000   0.000000
    23  C    0.000000   0.000000   0.000000   0.000000   0.000000   0.000000
    24  C    0.000000   0.000000   0.000000   0.000000   0.000000   0.000000
    25  C    0.000000   0.000000   0.000000   0.000000   0.000000   0.000000
    26  C    0.000000   0.000000   0.000000   0.000000   0.000000   0.000000
    27  C    0.000000   0.000000   0.000000   0.000000   0.000000   0.000000
    28  C    0.000000   0.000000   0.000000   0.000000   0.000000   0.000000
    29  C    0.000000   0.000000   0.000000   0.000000   0.000000   0.000000
    30  H    0.000000   0.000000   0.000000   0.000000   0.000000   0.000000
    31  H    0.000000   0.000000   0.000000   0.000000   0.000000   0.000000
    32  H    0.000000   0.000000   0.000000   0.000000   0.000000   0.000000
    33  H    0.000000   0.000000   0.000000   0.000000   0.000000   0.000000
    34  H    0.000000   0.000000   0.000000   0.000000   0.000000   0.000000
    35  H    0.000000   0.000000   0.000000   0.000000   0.000000   0.000000
    36  H    0.000000   0.000000   0.000000   0.000000   0.000000   0.000000
    37  H    0.000000   0.000000   0.000000   0.000000   0.000000   0.000000
    38  H    0.000000   0.000000   0.000000   0.000000   0.000000   0.000000
    39  H    0.000000   0.000000   0.000000   0.000000   0.000000   0.000000
    40  H    0.000000   0.000000   0.000000   0.000000   0.000000   0.000000
    41  H    0.000000   0.000000   0.000000   0.000000   0.000000   0.000000
    42  H    0.000000   0.000000   0.000000   0.000000   0.000000   0.000000
    43  H    0.000000   0.000000   0.000000   0.000000   0.000000   0.000000
    44  Pd   0.000000   0.000000   0.000000   0.000000   0.000000   0.000000
              13         14         15         16         17         18
     1  C    0.000000   0.000000   0.000000   0.000000   0.000000   0.000000
     2  C    0.000000   0.000000   0.000000   0.000000   0.000000   0.000000
     3  C    0.000000   0.000000   0.000000   0.000000   0.000000   0.000000
     4  C    0.000000   0.000000   0.000000   0.000000   0.000000   0.000000
     5  C    0.000000   0.000000   0.000000   0.000000   0.000000   0.000000
     6  C    0.000000   0.000000   0.000000   0.000000   0.000000   0.000000
     7  C    0.000000   0.000000   0.000000   0.000000   0.000000   0.000000
     8  C    0.000000   0.000000   0.000000   0.000000   0.000000   0.000000
     9  C    0.000000   0.000000   0.000000   0.000000   0.000000   0.000000
    10  C    0.000000   0.000000   0.000000   0.000000   0.000000   0.000000
    11  C    0.000000   0.000000   0.000000   0.000000   0.000000   0.000000
    12  C    0.000000   0.000000   0.000000   0.000000   0.000000   0.000000
    13  C    4.123692   0.000000   0.000000   0.000000   0.000000   0.000000
    14  C    0.000000   4.066633   0.000000   0.000000   0.000000   0.000000
    15  C    0.000000   0.000000   4.110238   0.000000   0.000000   0.000000
    16  C    0.000000   0.000000   0.000000   4.026793   0.000000   0.000000
    17  C    0.000000   0.000000   0.000000   0.000000   4.005908   0.000000
    18  C    0.000000   0.000000   0.000000   0.000000   0.000000   4.195003
    19  C    0.000000   0.000000   0.000000   0.000000   0.000000   0.000000
    20  C    0.000000   0.000000   0.000000   0.000000   0.000000   0.000000
    21  C    0.000000   0.000000   0.000000   0.000000   0.000000   0.000000
    22  C    0.000000   0.000000   0.000000   0.000000   0.000000   0.000000
    23  C    0.000000   0.000000   0.000000   0.000000   0.000000   0.000000
    24  C    0.000000   0.000000   0.000000   0.000000   0.000000   0.000000
    25  C    0.000000   0.000000   0.000000   0.000000   0.000000   0.000000
    26  C    0.000000   0.000000   0.000000   0.000000   0.000000   0.000000
    27  C    0.000000   0.000000   0.000000   0.000000   0.000000   0.000000
    28  C    0.000000   0.000000   0.000000   0.000000   0.000000   0.000000
    29  C    0.000000   0.000000   0.000000   0.000000   0.000000   0.000000
    30  H    0.000000   0.000000   0.000000   0.000000   0.000000   0.000000
    31  H    0.000000   0.000000   0.000000   0.000000   0.000000   0.000000
    32  H    0.000000   0.000000   0.000000   0.000000   0.000000   0.000000
    33  H    0.000000   0.000000   0.000000   0.000000   0.000000   0.000000
    34  H    0.000000   0.000000   0.000000   0.000000   0.000000   0.000000
    35  H    0.000000   0.000000   0.000000   0.000000   0.000000   0.000000
    36  H    0.000000   0.000000   0.000000   0.000000   0.000000   0.000000
    37  H    0.000000   0.000000   0.000000   0.000000   0.000000   0.000000
    38  H    0.000000   0.000000   0.000000   0.000000   0.000000   0.000000
    39  H    0.000000   0.000000   0.000000   0.000000   0.000000   0.000000
    40  H    0.000000   0.000000   0.000000   0.000000   0.000000   0.000000
    41  H    0.000000   0.000000   0.000000   0.000000   0.000000   0.000000
    42  H    0.000000   0.000000   0.000000   0.000000   0.000000   0.000000
    43  H    0.000000   0.000000   0.000000   0.000000   0.000000   0.000000
    44  Pd   0.000000   0.000000   0.000000   0.000000   0.000000   0.000000
              19         20         21         22         23         24
     1  C    0.000000   0.000000   0.000000   0.000000   0.000000   0.000000
     2  C    0.000000   0.000000   0.000000   0.000000   0.000000   0.000000
     3  C    0.000000   0.000000   0.000000   0.000000   0.000000   0.000000
     4  C    0.000000   0.000000   0.000000   0.000000   0.000000   0.000000
     5  C    0.000000   0.000000   0.000000   0.000000   0.000000   0.000000
     6  C    0.000000   0.000000   0.000000   0.000000   0.000000   0.000000
     7  C    0.000000   0.000000   0.000000   0.000000   0.000000   0.000000
     8  C    0.000000   0.000000   0.000000   0.000000   0.000000   0.000000
     9  C    0.000000   0.000000   0.000000   0.000000   0.000000   0.000000
    10  C    0.000000   0.000000   0.000000   0.000000   0.000000   0.000000
    11  C    0.000000   0.000000   0.000000   0.000000   0.000000   0.000000
    12  C    0.000000   0.000000   0.000000   0.000000   0.000000   0.000000
    13  C    0.000000   0.000000   0.000000   0.000000   0.000000   0.000000
    14  C    0.000000   0.000000   0.000000   0.000000   0.000000   0.000000
    15  C    0.000000   0.000000   0.000000   0.000000   0.000000   0.000000
    16  C    0.000000   0.000000   0.000000   0.000000   0.000000   0.000000
    17  C    0.000000   0.000000   0.000000   0.000000   0.000000   0.000000
    18  C    0.000000   0.000000   0.000000   0.000000   0.000000   0.000000
    19  C    3.957164   0.000000   0.000000   0.000000   0.000000   0.000000
    20  C    0.000000   3.923357   0.000000   0.000000   0.000000   0.000000
    21  C    0.000000   0.000000   4.136307   0.000000   0.000000   0.000000
    22  C    0.000000   0.000000   0.000000   4.130616   0.000000   0.000000
    23  C    0.000000   0.000000   0.000000   0.000000   4.130231   0.000000
    24  C    0.000000   0.000000   0.000000   0.000000   0.000000   4.007902
    25  C    0.000000   0.000000   0.000000   0.000000   0.000000   0.000000
    26  C    0.000000   0.000000   0.000000   0.000000   0.000000   0.000000
    27  C    0.000000   0.000000   0.000000   0.000000   0.000000   0.000000
    28  C    0.000000   0.000000   0.000000   0.000000   0.000000   0.000000
    29  C    0.000000   0.000000   0.000000   0.000000   0.000000   0.000000
    30  H    0.000000   0.000000   0.000000   0.000000   0.000000   0.000000
    31  H    0.000000   0.000000   0.000000   0.000000   0.000000   0.000000
    32  H    0.000000   0.000000   0.000000   0.000000   0.000000   0.000000
    33  H    0.000000   0.000000   0.000000   0.000000   0.000000   0.000000
    34  H    0.000000   0.000000   0.000000   0.000000   0.000000   0.000000
    35  H    0.000000   0.000000   0.000000   0.000000   0.000000   0.000000
    36  H    0.000000   0.000000   0.000000   0.000000   0.000000   0.000000
    37  H    0.000000   0.000000   0.000000   0.000000   0.000000   0.000000
    38  H    0.000000   0.000000   0.000000   0.000000   0.000000   0.000000
    39  H    0.000000   0.000000   0.000000   0.000000   0.000000   0.000000
    40  H    0.000000   0.000000   0.000000   0.000000   0.000000   0.000000
    41  H    0.000000   0.000000   0.000000   0.000000   0.000000   0.000000
    42  H    0.000000   0.000000   0.000000   0.000000   0.000000   0.000000
    43  H    0.000000   0.000000   0.000000   0.000000   0.000000   0.000000
    44  Pd   0.000000   0.000000   0.000000   0.000000   0.000000   0.000000
              25         26         27         28         29         30
     1  C    0.000000   0.000000   0.000000   0.000000   0.000000   0.000000
     2  C    0.000000   0.000000   0.000000   0.000000   0.000000   0.000000
     3  C    0.000000   0.000000   0.000000   0.000000   0.000000   0.000000
     4  C    0.000000   0.000000   0.000000   0.000000   0.000000   0.000000
     5  C    0.000000   0.000000   0.000000   0.000000   0.000000   0.000000
     6  C    0.000000   0.000000   0.000000   0.000000   0.000000   0.000000
     7  C    0.000000   0.000000   0.000000   0.000000   0.000000   0.000000
     8  C    0.000000   0.000000   0.000000   0.000000   0.000000   0.000000
     9  C    0.000000   0.000000   0.000000   0.000000   0.000000   0.000000
    10  C    0.000000   0.000000   0.000000   0.000000   0.000000   0.000000
    11  C    0.000000   0.000000   0.000000   0.000000   0.000000   0.000000
    12  C    0.000000   0.000000   0.000000   0.000000   0.000000   0.000000
    13  C    0.000000   0.000000   0.000000   0.000000   0.000000   0.000000
    14  C    0.000000   0.000000   0.000000   0.000000   0.000000   0.000000
    15  C    0.000000   0.000000   0.000000   0.000000   0.000000   0.000000
    16  C    0.000000   0.000000   0.000000   0.000000   0.000000   0.000000
    17  C    0.000000   0.000000   0.000000   0.000000   0.000000   0.000000
    18  C    0.000000   0.000000   0.000000   0.000000   0.000000   0.000000
    19  C    0.000000   0.000000   0.000000   0.000000   0.000000   0.000000
    20  C    0.000000   0.000000   0.000000   0.000000   0.000000   0.000000
    21  C    0.000000   0.000000   0.000000   0.000000   0.000000   0.000000
    22  C    0.000000   0.000000   0.000000   0.000000   0.000000   0.000000
    23  C    0.000000   0.000000   0.000000   0.000000   0.000000   0.000000
    24  C    0.000000   0.000000   0.000000   0.000000   0.000000   0.000000
    25  C    4.206574   0.000000   0.000000   0.000000   0.000000   0.000000
    26  C    0.000000   4.098944   0.000000   0.000000   0.000000   0.000000
    27  C    0.000000   0.000000   4.191325   0.000000   0.000000   0.000000
    28  C    0.000000   0.000000   0.000000   4.221265   0.000000   0.000000
    29  C    0.000000   0.000000   0.000000   0.000000   4.173454   0.000000
    30  H    0.000000   0.000000   0.000000   0.000000   0.000000   0.851630
    31  H    0.000000   0.000000   0.000000   0.000000   0.000000   0.000000
    32  H    0.000000   0.000000   0.000000   0.000000   0.000000   0.000000
    33  H    0.000000   0.000000   0.000000   0.000000   0.000000   0.000000
    34  H    0.000000   0.000000   0.000000   0.000000   0.000000   0.000000
    35  H    0.000000   0.000000   0.000000   0.000000   0.000000   0.000000
    36  H    0.000000   0.000000   0.000000   0.000000   0.000000   0.000000
    37  H    0.000000   0.000000   0.000000   0.000000   0.000000   0.000000
    38  H    0.000000   0.000000   0.000000   0.000000   0.000000   0.000000
    39  H    0.000000   0.000000   0.000000   0.000000   0.000000   0.000000
    40  H    0.000000   0.000000   0.000000   0.000000   0.000000   0.000000
    41  H    0.000000   0.000000   0.000000   0.000000   0.000000   0.000000
    42  H    0.000000   0.000000   0.000000   0.000000   0.000000   0.000000
    43  H    0.000000   0.000000   0.000000   0.000000   0.000000   0.000000
    44  Pd   0.000000   0.000000   0.000000   0.000000   0.000000   0.000000
              31         32         33         34         35         36
     1  C    0.000000   0.000000   0.000000   0.000000   0.000000   0.000000
[...]
 00474,-0.00000632,-0.00001245,-0.00000609,0.00005439,0.00002097,0.0002
 4230,0.00017960,-0.00018328,-0.00259038,0.01670041,-0.02278715,0.02597
 861,0.00029827,0.00008638,0.00010178,-0.00192583,-0.00024600,0.0001285
 9,-0.03126551,0.02642182,-0.00799743,0.00660726,-0.00924781,0.00076689
 ,-0.00018751,0.00003271,-0.00000717,-0.08269256,0.08011892,-0.01271920
 ,-0.00005129,-0.00138856,0.00015570,0.00010192,-0.00008821,0.00005969,
 0.00002719,-0.00000869,0.00000444,-0.00000579,0.00034470,-0.00012358,-
 0.00006251,0.00014856,-0.00002562,-0.00000775,-0.00003146,0.00000438,-
 0.00039872,0.00030613,-0.00007627,0.00010866,-0.00005999,-0.00003538,0
 .00006194,-0.00001111,-0.00001733,-0.00018962,-0.00051122,0.00007426,0
 .00005356,-0.00014759,0.00000067,0.00002553,-0.00003849,0.00001807,0.0
 0011285,-0.00033803,0.00003892,-0.00002827,-0.00001256,-0.00000457,-0.
 00001087,-0.00002230,-0.00000895,-0.00232145,-0.00001159,-0.00145410,-
 0.00005458,0.00002005,0.00000590,-0.00067175,-0.00121911,-0.00040128,-
 0.00010128,0.00017618,0.00003925,-0.00004588,0.00011250,0.00000655,0.0
 0002636,0.00003248,0.00000604,-0.00005768,-0.00008364,-0.00004028,-0.0
 0000695,-0.00002687,0.00000021,0.00000244,0.00001373,-0.00000487,0.000
 02041,-0.00000064,0.00000547,0.00000684,0.00001225,0.00000216,-0.00000
 390,0.00000557,-0.00000057,-0.00000623,0.00001983,0.00000123,-0.000018
 99,0.00002774,0.00000852,-0.00001694,-0.00000064,0.00000660,-0.0000232
 6,-0.00001803,0.00000738,-0.00004632,-0.00004362,-0.00000454,-0.000011
 84,-0.00012507,-0.00004301,-0.00051697,-0.00066670,-0.00010060,0.11383
 686,-0.00047277,-0.00013054,-0.00007465,0.00034252,0.00102850,-0.00024
 508,0.01160061,-0.00212414,0.00239035,0.00427878,-0.03875390,0.0041369
 0,0.00030581,0.00000372,0.00002384,0.08078799,-0.16491798,0.02267624,-
 0.00102554,-0.00134538,-0.00008131,-0.00047771,0.00008066,-0.00006294,
 -0.00008403,0.00001903,0.00001022,0.00043959,-0.00003260,0.00007112,0.
 00015861,-0.00038250,0.00005381,0.00000932,0.00002992,-0.00000489,-0.0
 0002628,-0.00040835,0.00006447,-0.00008714,0.00016700,0.00001673,-0.00
 008981,0.00005882,0.00003268,0.00059147,0.00049022,-0.00002284,0.00016
 689,0.00001448,-0.00002120,0.00009451,0.00011990,-0.00001227,0.0004301
 4,-0.00023854,0.00001450,0.00011905,0.00004766,0.00003927,0.00002744,0
 .00004996,0.00001116,-0.00012655,-0.00075779,0.00067228,0.00000190,-0.
 00014894,-0.00000470,-0.00224793,-0.00160680,-0.00007959,-0.00026745,0
 .00001488,-0.00007057,-0.00006760,-0.00003501,0.00000986,-0.00006626,-
 0.00002324,-0.00001158,-0.00009454,-0.00003576,-0.00000817,-0.00000006
 ,0.00005980,0.00000596,-0.00000401,-0.00000206,0.00000440,0.00000059,-
 0.00003545,-0.00000345,-0.00001245,-0.00002055,-0.00000445,0.00000891,
 -0.00000521,-0.00000190,0.00000520,-0.00002311,-0.00000051,0.00003191,
 -0.00005505,-0.00001341,0.00003466,0.00000227,-0.00001565,0.00004032,0
 .00004299,-0.00001922,0.00007235,0.00012230,-0.00000705,0.00000422,0.0
 0015446,0.00001229,-0.00041268,0.00002612,-0.00003769,-0.09322849,0.20
 842060,0.00015386,-0.00003779,-0.00007339,0.00002305,-0.00038639,-0.00
 243921,-0.00744668,0.00501298,0.00504609,-0.00047900,0.00162906,0.0066
 0072,0.00000056,0.00007817,-0.00017836,-0.01222281,0.02268514,-0.04570
 261,0.00007228,-0.00021308,-0.00052474,0.00020842,-0.00007912,0.000018
 99,0.00000860,-0.00000716,-0.00001210,-0.00029095,0.00000772,0.0000927
 3,-0.00003011,0.00014185,-0.00000408,-0.00000260,-0.00001782,-0.000002
 87,0.00046585,0.00017929,-0.00036487,-0.00002097,-0.00012115,-0.000014
 49,0.00001965,-0.00002664,-0.00001718,0.00044411,0.00041948,-0.0001025
 4,-0.00016304,0.00016811,0.00012647,-0.00012231,-0.00005358,-0.0000332
 9,-0.00005613,0.00012896,-0.00035178,-0.00011862,-0.00003053,-0.000015
 67,-0.00002689,-0.00001938,0.00000783,-0.00188283,0.00010297,0.0069700
 2,0.00004257,0.00012344,0.00004301,-0.00069536,0.00022538,0.00234867,0
 .00029538,-0.00007739,-0.00051300,0.00014650,-0.00010971,0.00000150,0.
 00007914,-0.00004936,-0.00000695,0.00010769,-0.00011338,0.00014010,0.0
 0003803,-0.00003633,-0.00002419,-0.00000475,0.00000451,0.00005355,0.00
 000548,0.00000346,-0.00001651,0.00000087,-0.00000033,0.00000444,0.0000
 0039,-0.00000365,0.00000460,0.00000458,-0.00000913,-0.00000469,-0.0000
 0656,0.00001258,-0.00000553,-0.00000469,-0.00000104,0.00000589,-0.0000
 0061,-0.00000566,0.00001718,-0.00002259,-0.00003199,0.00000347,-0.0000
 2528,-0.00001421,0.00023761,-0.00010185,-0.00009887,0.00034803,0.02171
 564,-0.02932133,0.02821562,0.00011896,0.00000696,0.00003181,-0.0001412
 4,-0.00017347,-0.00002502,0.00040594,0.00020221,0.00006800,-0.03002590
 ,0.02615284,-0.00619104,0.00675534,-0.00959873,0.00030535,-0.00216206,
 -0.00018920,-0.00006055,-0.08046808,0.07975226,-0.00747717,0.00007970,
 -0.00000179,0.00003104,0.00004522,0.00000982,-0.00000984,-0.00005606,0
 .00006904,-0.00003996,-0.00003922,0.00005932,-0.00001266,-0.00000552,-
 0.00000332,0.00000349,-0.00010424,0.00005980,-0.00001478,0.00006024,-0
 .00000333,-0.00001706,0.00005005,-0.00000807,-0.00001191,-0.00060821,0
 .00045236,-0.00002834,-0.00004348,-0.00006869,-0.00000905,0.00008420,0
 .00000115,0.00002643,0.00031894,-0.00047200,0.00005326,0.00030447,-0.0
 0010106,0.00005791,0.00009635,0.00000260,0.00002142,0.00012008,0.00033
 801,-0.00002145,-0.00004291,-0.00005469,-0.00000988,-0.00234222,-0.000
 66556,-0.00121217,-0.00008020,-0.00024294,-0.00004666,-0.00007988,-0.0
 0002693,-0.00002224,-0.00086841,-0.00117502,-0.00099395,-0.00032216,0.
 00033648,0.00008454,-0.00013910,0.00013454,-0.00002444,0.00016397,-0.0
 0023248,0.00007234,0.00000243,0.00000400,-0.00000475,0.00001121,0.0000
 1795,0.00000224,-0.00001266,0.00003512,0.00000170,-0.00002201,0.000034
 27,-0.00000128,-0.00002041,0.00002597,0.00000836,-0.00001939,-0.000000
 19,0.00000826,-0.00002101,-0.00002644,0.00000855,-0.00002454,-0.000037
 37,-0.00000110,-0.00001395,-0.00004782,0.00000111,0.00001280,-0.000031
 48,0.00000002,-0.00053353,-0.00066294,-0.00006281,0.10911708,-0.000116
 95,-0.00001723,-0.00000431,0.00022788,0.00013616,0.00001979,-0.0005395
 5,-0.00025604,-0.00009652,0.01121613,-0.00257243,0.00190670,0.00517989
 ,-0.04065837,0.00160586,0.00020828,0.00105546,-0.00005506,0.07934503,-
 0.17067645,0.01514533,-0.00019928,-0.00001715,-0.00002095,-0.00007441,
 -0.00001199,0.00001924,0.00022066,0.00013611,0.00000300,0.00007647,-0.
 00010739,0.00001619,0.00000469,-0.00001038,-0.00000271,-0.00020129,-0.
 00029651,0.00000883,-0.00005327,-0.00000686,0.00000803,-0.00005593,0.0
 0001735,0.00001198,0.00026428,-0.00015556,-0.00001855,0.00010261,0.000
 09896,0.00001878,-0.00011171,-0.00000419,-0.00003260,-0.00024420,0.000
 88039,-0.00004856,-0.00038684,0.00017215,-0.00006696,-0.00014110,0.000
 00653,-0.00003428,0.00026455,-0.00012467,0.00007925,0.00004436,0.00007
 478,0.00001925,-0.00043299,-0.00023882,0.00009244,-0.00010395,0.000310
 15,0.00001871,0.00007801,0.00007536,0.00003835,-0.00159166,-0.00234278
 ,-0.00011367,0.00037706,-0.00042411,0.00003194,0.00019413,-0.00019291,
 0.00001377,0.00023207,-0.00033712,-0.00001261,-0.00001374,-0.00000206,
 -0.00000446,-0.00001624,-0.00002303,-0.00000207,0.00001889,-0.00005517
 ,0.00000081,0.00002990,-0.00004374,0.00000168,0.00002632,-0.00003318,-
 0.00001096,0.00002685,0.00000059,-0.00001170,0.00002715,0.00003863,-0.
 00001253,0.00002799,0.00005875,-0.00000561,0.00000991,0.00004260,-0.00
 000352,-0.00007712,0.00006069,-0.00001501,-0.00034339,-0.00000473,-0.0
 0003218,-0.09301346,0.21575188,-0.00001725,0.00002676,-0.00000857,0.00
 001491,0.00002736,0.00010725,-0.00013297,0.00006656,-0.00008151,-0.007
 06465,0.00431170,0.00484157,-0.00022455,-0.00175686,0.00610644,0.00018
 461,0.00003658,-0.00150224,-0.00632400,0.01582293,-0.04342321,-0.00009
 640,0.00003345,-0.00001213,-0.00000349,0.00002257,-0.00000472,0.000102
 89,0.00008112,0.00000194,0.00003418,-0.00007700,0.00000110,-0.00000069
 ,-0.00000542,-0.00000139,-0.00016508,-0.00012662,-0.00000094,-0.000005
 63,0.00004519,0.00000902,0.00001852,0.00001451,-0.00000632,-0.00008674
 ,-0.00011537,-0.00034475,0.00014843,-0.00015110,-0.00002121,0.00012574
 ,0.00003100,-0.00000108,0.00076618,-0.00000570,0.00021812,0.00024334,0
 .00004917,0.00005299,0.00004430,0.00001996,-0.00000499,0.00023800,0.00
 008057,0.00007557,-0.00003984,-0.00009032,-0.00000944,-0.00110995,-0.0
 0060048,0.00506190,-0.00018997,-0.00005930,-0.00011059,-0.00012951,0.0
 0008781,-0.00001223,-0.00153470,0.00037059,0.00515067,-0.00013721,0.00
 028519,-0.00087384,-0.00008389,0.00004666,0.00009718,0.00007215,0.0000
 1245,-0.00043824,-0.00000487,-0.00000435,0.00005355,0.00000261,0.00000
 466,0.00000285,-0.00000184,0.00001137,-0.00000949,-0.00000926,0.000017
 70,0.00001257,-0.00000342,0.00000269,0.00000386,-0.00000341,0.00000030
 ,0.00000332,-0.00000175,-0.00000808,0.00000358,0.00000360,0.00000506,0
 .00000291,-0.00000094,-0.00000445,-0.00000421,0.00000145,-0.00000352,0
 .00001898,-0.00008926,-0.00005662,0.00031256,0.01522765,-0.01836060,0.
 02590966,0.00009622,-0.00001574,-0.00002544,-0.00013216,-0.00003690,-0
 .00000399,0.00033514,-0.00011889,0.00013514,0.00073843,-0.00163749,-0.
 00057919,-0.21606760,0.00007647,-0.02608849,-0.00053369,-0.00016680,-0
 .00006619,-0.02725368,-0.01522655,-0.00465048,0.00040881,-0.00004028,-
 0.00000931,0.00007407,0.00002091,-0.00001265,-0.00047208,-0.00031524,0
 .00005375,-0.00011555,0.00018829,-0.00002047,0.00001066,0.00000003,-0.
 00000694,0.00074413,0.00039776,0.00002930,-0.00001843,-0.00000010,0.00
 001966,0.00007394,-0.00002111,-0.00001263,0.00130224,0.,0.00019176,0.0
 0074269,-0.00039773,0.00002984,0.00040819,0.00003966,-0.00000944,0.000
 74007,0.00163410,-0.00058052,0.00033475,0.00011844,0.00013486,0.000096
 12,0.00001552,-0.00002538,-0.00082070,-0.00032865,-0.00011283,-0.00011
 553,-0.00018773,-0.00002030,-0.00119075,0.00000069,-0.00027597,-0.0008
 1924,0.00032896,-0.00011309,-0.00047099,0.00031526,0.00005342,-0.02720
 940,0.01524063,-0.00465941,-0.00053253,0.00016686,-0.00006619,-0.00013
 194,0.00003692,-0.00000401,0.00043396,0.00046409,0.00024403,0.00003647
 ,0.00004585,-0.00001141,0.00001663,0.00003213,0.00000722,-0.00001016,0
 .00002948,-0.00000149,-0.00003097,0.00005592,0.00000993,-0.00002467,0.
 00003515,0.00001049,-0.00003329,0.00000002,0.00001230,-0.00002472,-0.0
 0003511,0.00001051,-0.00003107,-0.00005594,0.00000996,-0.00001019,-0.0
 0002948,-0.00000145,0.00001659,-0.00003214,0.00000726,0.00003641,-0.00
 004587,-0.00001139,0.00043271,-0.00046471,0.00024437,0.26897401,0.0000
 0825,-0.00002096,-0.00000200,-0.00004821,-0.00001734,-0.00000478,0.000
 07536,-0.00011813,0.00003306,-0.00063393,-0.00237909,-0.00000970,0.000
 07607,-0.03384187,0.00000817,-0.00062130,-0.00013845,-0.00009933,-0.02
 932376,-0.00742051,-0.00433341,0.00005676,-0.00001741,0.00000175,0.000
 00533,-0.00001077,-0.00000055,-0.00005948,-0.00004671,0.00000653,-0.00
 002013,0.00004549,-0.00000259,0.,0.00000275,0.,0.00008891,0.00007939,-
 0.00000954,0.,-0.00002395,0.,-0.00000539,-0.00001074,0.00000057,-0.000
 00049,0.00010895,-0.00000042,-0.00008940,0.00007982,0.00000944,-0.0000
 5710,-0.00001736,-0.00000172,0.00063029,-0.00238129,0.00001657,-0.0000
 7565,-0.00011814,-0.00003324,-0.00000834,-0.00002095,0.00000204,-0.000
 11048,-0.00002113,-0.00001737,0.00002026,0.00004561,0.00000257,0.00000
 062,0.00019657,0.00000018,0.00011112,-0.00002158,0.00001751,0.00005980
 ,-0.00004705,-0.00000652,0.02933827,-0.00745745,0.00434808,0.00062153,
 -0.00013907,0.00009953,0.00004830,-0.00001741,0.00000477,0.00085475,-0
 .00033824,0.00012707,0.00002592,0.00004518,0.00000745,0.00000374,0.000
 00588,0.00000004,0.00000134,0.00000126,-0.00000016,0.00000376,-0.00000
 623,-0.00000148,0.00000024,0.00000193,-0.00000027,0.00000001,-0.000000
 20,0.,-0.00000021,0.00000196,0.00000027,-0.00000374,-0.00000617,0.0000
 0148,-0.00000133,0.00000129,0.00000017,-0.00000375,0.00000591,-0.00000
 004,-0.00002592,0.00004525,-0.00000741,-0.00085529,-0.00033721,-0.0001
 2807,-0.00008667,0.05432903,0.00001914,-0.00000512,-0.00000300,-0.0000
 2129,-0.00000760,-0.00003307,0.00011146,-0.00005238,-0.00017156,-0.000
 66213,-0.00008638,0.00488482,-0.02594507,0.00000798,-0.04370903,-0.000
 14122,-0.00004845,0.00000490,-0.00463164,-0.00222969,0.00431234,0.0000
 7291,-0.00001012,-0.00001423,0.00001189,0.00000502,-0.00000542,-0.0000
 9132,-0.00005099,0.00002474,-0.00001734,0.00003082,-0.00000257,0.00000
 150,0.,-0.00000290,0.00013883,0.00006351,0.00002278,-0.00001466,0.0000
 0001,0.00001058,0.00001188,-0.00000503,-0.00000542,0.00030501,-0.00000
 042,-0.00061334,0.00013873,-0.00006363,0.00002284,0.00007291,0.0000100
 4,-0.00001425,-0.00066232,0.00009345,0.00488377,0.00011152,0.00005220,
 -0.00017147,0.00001914,0.00000512,-0.00000299,-0.00014149,-0.00003306,
 -0.00000958,-0.00001737,-0.00003080,-0.00000254,-0.00025579,0.00000007
 ,0.00028338,-0.00014143,0.00003317,-0.00000963,-0.00009124,0.00005111,
 0.00002470,-0.00465513,0.00224449,0.00430664,-0.00014165,0.00004870,0.
 00000463,-0.00002132,0.00000760,-0.00003306,0.00027581,0.00007557,-0.0
 0120160,-0.00000025,0.00000023,0.00007740,0.00000217,0.00000431,0.0000
 0910,-0.00000227,0.00000261,0.00000741,-0.00000488,0.00000930,0.000004
 46,-0.00000305,0.00000617,0.00000377,-0.00000517,0.,0.00000364,-0.0000
 0306,-0.00000617,0.00000377,-0.00000489,-0.00000929,0.00000446,-0.0000
 0227,-0.00000260,0.00000741,0.00000217,-0.00000431,0.00000911,-0.00000
 022,-0.00000021,0.00007742,0.00027653,-0.00007661,-0.00120178,0.036123
 91,-0.00002863,0.02819886,0.00116504,-0.00070801,-0.00013257,-0.000887
 39,-0.00042614,-0.00004841,-0.00095918,-0.00017740,-0.00039870,0.00000
 380,0.00068804,0.00000287,-0.00001084,0.00000407,0.00002348,-0.0008920
 7,0.00027554,-0.00016201,-0.00006410,0.00005443,0.00000120,0.00221452,
 -0.00198920,-0.00006763,0.00113569,-0.00129189,0.00058812,-0.00039174,
 0.00263702,-0.00005647,-0.01633041,-0.00708883,0.00865586,-0.00111546,
 0.00000290,0.00027370,-0.04329741,0.05636724,-0.04973644,-0.11242740,0
 .00009631,0.09935609,0.00113420,0.00128684,0.00058837,-0.00217923,0.00
 000828,-0.00070010,-0.04345064,-0.05651812,-0.04979718,0.00221055,0.00
 198317,-0.00006938,-0.00000460,-0.00068562,0.00000249,-0.00096437,0.00
 017811,-0.00040144,0.00116626,0.00070452,-0.00013268,-0.01345806,0.013
 28396,-0.00630568,-0.01630922,0.00711589,0.00864617,0.00099680,0.00000
 081,-0.00002392,-0.01347210,-0.01328981,-0.00629527,-0.00038862,-0.002
 66373,-0.00006201,-0.00005711,-0.00005868,0.00000235,-0.00088688,-0.00
 027911,-0.00016132,-0.00088587,0.00042627,-0.00004868,0.00001527,0.000
 02056,-0.00001262,-0.00006410,0.00005212,-0.00003255,0.00002551,-0.000
 00995,0.00001197,0.00003758,-0.00000447,-0.00002126,-0.00009881,-0.000
 11294,0.00003072,-0.00030939,0.00008402,0.00007512,0.00023478,-0.00000
 021,-0.00018690,-0.00030977,-0.00008340,0.00007518,-0.00009912,0.00011
 212,0.00003076,0.00003778,0.00000414,-0.00002115,0.00002552,0.00000978
 ,0.00001206,-0.00006406,-0.00005200,-0.00003258,0.00001525,-0.00002052
 ,-0.00001256,0.00000279,-0.00000002,-0.00001435,0.25893714,-0.00124060
 ,-0.00220213,-0.00019716,-0.00054828,-0.00043252,-0.00001355,0.0045144
 8,-0.00017535,0.00168942,0.00577895,0.00167802,0.00073026,0.00000319,0
 .00608822,-0.00000266,-0.00394550,-0.00330085,-0.00044552,-0.00528100,
 -0.00317758,-0.00081643,0.00294179,-0.00232998,0.00044753,0.00008814,-
 0.00197712,0.00017658,-0.00133951,-0.02447568,0.00750624,-0.01061084,0
 .00209682,0.00520491,0.00000105,0.00071941,-0.00000031,0.06653615,-0.0
 8756244,0.07866648,0.00008398,-0.00881121,-0.00008803,-0.00009031,-0.0
 0197956,-0.00017381,0.00000747,0.01219559,-0.00000677,-0.06667618,-0.0
 8765453,-0.07865310,-0.00294582,-0.00232820,-0.00044699,-0.00577645,0.
 00168235,-0.00073162,-0.00451180,-0.00016986,-0.00168493,0.00123866,-0
 .00220339,0.00019920,-0.00041784,-0.01067753,0.00168935,0.01063978,0.0
 0207093,-0.00521995,0.00000068,0.00219477,-0.00000062,0.00040528,-0.01
 067511,-0.00167743,0.00131386,-0.02449474,-0.00748871,0.00527719,-0.00
 318232,0.00081913,0.00394113,-0.00330377,0.00044852,0.00054844,-0.0004
 3312,0.00001389,0.00000040,0.00003961,-0.00003959,-0.00006204,0.000089
 58,0.00002108,0.00002276,-0.00005565,-0.00006258,-0.00029201,-0.000316
 00,-0.00006655,0.00027090,-0.00059131,-0.00010822,0.00026044,0.0001774
 8,-0.00002682,-0.00000021,-0.00001723,-0.00000010,-0.00025969,0.000177
 96,0.00002636,-0.00027150,-0.00059095,0.00010812,0.00029168,-0.0003161
 7,0.00006686,-0.00002285,-0.00005554,0.00006259,0.00006236,0.00008924,
 -0.00002146,-0.00000022,0.00003946,0.00003961,-0.00000003,-0.00002007,
 0.00000002,0.00006393,0.25419037,0.00141235,0.00061638,0.00114358,-0.0
 0026878,-0.00032302,-0.00005701,-0.00131642,-0.00026541,0.00337218,-0.
 00026896,0.00027868,0.00005096,-0.00013396,-0.00000462,-0.00005453,-0.
 00021477,0.00036705,0.00006495,0.00013503,0.00002738,0.00001114,-0.000
 46462,-0.00022609,0.00010547,0.00067713,0.00155843,0.00243007,-0.00392
 972,0.01224285,-0.00280896,0.01426233,0.00372712,-0.00572001,0.0004479
 7,-0.00000137,-0.00003076,-0.04222319,0.06406071,-0.06667193,0.0813932
 6,-0.00008191,-0.09470097,0.00067740,-0.00155552,0.00243123,-0.0006645
 3,-0.00001103,-0.00150587,-0.04224885,-0.06405703,-0.06655930,-0.00046
 081,0.00022823,0.00010414,-0.00026036,-0.00028095,0.00005241,-0.001310
 26,0.00027109,0.00337533,0.00141023,-0.00061524,0.00114283,-0.00708800
 ,0.00954066,-0.00438305,0.01425142,-0.00374907,-0.00571480,0.00101257,
 -0.00000216,0.00030227,-0.00710971,-0.00952221,-0.00437206,-0.00394225
 ,-0.01221882,-0.00278924,0.00012689,-0.00002269,0.00000993,-0.00022132
 ,-0.00036189,0.00006426,-0.00026856,0.00032362,-0.00005733,0.00000743,
 0.00001636,0.00002263,-0.00000406,0.00006242,-0.00027302,0.00004230,0.
 00000494,-0.00015445,-0.00016989,-0.00014761,-0.00011630,-0.00000470,0
 .00005086,-0.00003112,0.00026522,-0.00005623,-0.00025188,-0.00027445,0
 .00000006,-0.00035448,0.00026542,0.00005568,-0.00025189,-0.00000446,-0
 .00005028,-0.00003111,-0.00016999,0.00014794,-0.00011660,0.00004235,-0
 .00000505,-0.00015465,-0.00000423,-0.00006273,-0.00027278,0.00000742,-
 0.00001639,0.00002259,0.00004209,0.,0.00001709,-0.00345178,0.00005680,
 0.24271051||0.00000431,-0.00000020,0.00000188,-0.00000266,-0.00001130,
 0.00000007,-0.00000019,0.00001448,0.00000009,0.00001219,0.00000354,0.0
 0000177,-0.00000532,0.00000292,-0.00000199,-0.00000493,-0.00000217,0.0
 0000291,-0.00000692,0.00000008,0.00000027,0.00002576,-0.00001854,-0.00
 000306,0.00000726,-0.00001312,-0.00000447,-0.00002982,0.00001063,-0.00
 000917,-0.00001181,0.00000273,-0.00000384,-0.00001361,0.00001154,0.000
 00582,0.00002180,-0.00002595,0.00004158,0.00000335,0.00000057,0.000022
 35,-0.00000718,-0.00000706,0.00000179,0.00001757,0.00000062,0.00000392
 ,-0.00000968,-0.00002621,-0.00001678,-0.00001273,0.00000851,0.00000580
 ,0.00000360,0.00000379,0.00000068,-0.00000224,-0.00001535,-0.00000033,
 0.00000122,0.00000197,0.00000020,-0.00000011,-0.00001174,-0.00000769,0
 .00000953,0.00000455,-0.00001068,-0.00000843,-0.00000202,-0.00000287,0
 .00000408,0.00001307,-0.00000130,0.00000047,-0.00000811,-0.00000596,-0
 .00000347,-0.00000645,0.00000143,-0.00000089,-0.00000034,0.00000142,0.
 00000607,0.00001320,0.00000219,-0.00000075,-0.00000061,-0.00000065,-0.
 00000142,-0.00000017,-0.00000185,-0.00000254,-0.00000419,-0.00000159,0
 .00000040,0.00000009,-0.00000176,0.00000321,0.00000023,0.00000248,0.00
 000211,0.00000335,0.00000045,0.00000366,-0.00000121,-0.00000262,-0.000
 00003,0.00000101,-0.00000009,0.00000213,0.00000350,0.00000204,-0.00000
 032,0.00000105,0.00000010,-0.00000239,0.00000368,-0.00000273,0.0000024
 4,0.00000019,-0.00000199,0.00000049,0.00000249,-0.00000050,-0.00000012
 ,-0.00000067,0.00000155,-0.00000411,0.00004761,-0.00001888|||@


 TIME IS NATURE'S WAY OF MAKING SURE EVERYTHING
 DOESN'T HAPPEN AT ONCE.
                     - WOODY ALLEN
 Job cpu time:       0 days  0 hours  0 minutes 47.0 seconds.
 File lengths (MBytes):  RWF=    370 Int=      0 D2E=      0 Chk=      4 Scr=      1
 Normal termination of Gaussian 09 at Wed Mar 11 11:18:37 2026.
