 Entering Link 1 = C:\Gaussian\G09W\l1.exe PID=     38248.
  
 Copyright (c) 1988,1990,1992,1993,1995,1998,2003,2009,2013,
            Gaussian, Inc.  All Rights Reserved.
  
 This is part of the Gaussian(R) 09 program.  It is based on
 the Gaussian(R) 03 system (copyright 2003, Gaussian, Inc.),
 the Gaussian(R) 98 system (copyright 1998, Gaussian, Inc.),
 the Gaussian(R) 94 system (copyright 1995, Gaussian, Inc.),
 the Gaussian 92(TM) system (copyright 1992, Gaussian, Inc.),
 the Gaussian 90(TM) system (copyright 1990, Gaussian, Inc.),
 the Gaussian 88(TM) system (copyright 1988, Gaussian, Inc.),
 the Gaussian 86(TM) system (copyright 1986, Carnegie Mellon
 University), and the Gaussian 82(TM) system (copyright 1983,
 Carnegie Mellon University). Gaussian is a federally registered
 trademark of Gaussian, Inc.
  
 This software contains proprietary and confidential information,
 including trade secrets, belonging to Gaussian, Inc.
  
 This software is provided under written license and may be
 used, copied, transmitted, or stored only in accord with that
 written license.
  
 The following legend is applicable only to US Government
 contracts under FAR:
  
                    RESTRICTED RIGHTS LEGEND
  
 Use, reproduction and disclosure by the US Government is
 subject to restrictions as set forth in subparagraphs (a)
 and (c) of the Commercial Computer Software - Restricted
 Rights clause in FAR 52.227-19.
  
 Gaussian, Inc.
 340 Quinnipiac St., Bldg. 40, Wallingford CT 06492
  
  
 ---------------------------------------------------------------
 Warning -- This program may not be used in any manner that
 competes with the business of Gaussian, Inc. or will provide
 assistance to any competitor of Gaussian, Inc.  The licensee
 of this program is prohibited from giving any competitor of
 Gaussian, Inc. access to this program.  By using this program,
 the user acknowledges that Gaussian, Inc. is engaged in the
 business of creating and licensing software in the field of
 computational chemistry and represents and warrants to the
 licensee that it is not a competitor of Gaussian, Inc. and that
 it will not use this program in any manner prohibited above.
 ---------------------------------------------------------------
  

 Cite this work as:
 Gaussian 09, Revision D.01,
 M. J. Frisch, G. W. Trucks, H. B. Schlegel, G. E. Scuseria, 
 M. A. Robb, J. R. Cheeseman, G. Scalmani, V. Barone, B. Mennucci, 
 G. A. Petersson, H. Nakatsuji, M. Caricato, X. Li, H. P. Hratchian, 
 A. F. Izmaylov, J. Bloino, G. Zheng, J. L. Sonnenberg, M. Hada, 
 M. Ehara, K. Toyota, R. Fukuda, J. Hasegawa, M. Ishida, T. Nakajima, 
 Y. Honda, O. Kitao, H. Nakai, T. Vreven, J. A. Montgomery, Jr., 
 J. E. Peralta, F. Ogliaro, M. Bearpark, J. J. Heyd, E. Brothers, 
 K. N. Kudin, V. N. Staroverov, T. Keith, R. Kobayashi, J. Normand, 
 K. Raghavachari, A. Rendell, J. C. Burant, S. S. Iyengar, J. Tomasi, 
 M. Cossi, N. Rega, J. M. Millam, M. Klene, J. E. Knox, J. B. Cross, 
 V. Bakken, C. Adamo, J. Jaramillo, R. Gomperts, R. E. Stratmann, 
 O. Yazyev, A. J. Austin, R. Cammi, C. Pomelli, J. W. Ochterski, 
 R. L. Martin, K. Morokuma, V. G. Zakrzewski, G. A. Voth, 
 P. Salvador, J. J. Dannenberg, S. Dapprich, A. D. Daniels, 
 O. Farkas, J. B. Foresman, J. V. Ortiz, J. Cioslowski, 
 and D. J. Fox, Gaussian, Inc., Wallingford CT, 2013.
 
 ******************************************
 Gaussian 09:  IA32W-G09RevD.01 24-Apr-2013
                10-Mar-2026 
 ******************************************
 %chk=C:\Users\User\Desktop\IMRG\ECE+ML\Pt_Gr_NS.chk
 ----------------------------
 # freq pm6 geom=connectivity
 ----------------------------
 1/10=4,30=1,38=1,57=2/1,3;
 2/12=2,17=6,18=5,40=1/2;
 3/5=2,16=1,25=1,41=3900000,71=2,140=1/1,2,3;
 4/35=1/1;
 5/5=2,35=1,38=5,98=1/2;
 8/6=4,10=90,11=11/1;
 11/6=1,8=1,9=11,15=111,16=1/1,2,10;
 10/6=1/2;
 6/7=2,8=2,9=2,10=2,18=1,28=1/1;
 7/8=1,10=1,25=1/1,2,3,16;
 1/10=4,30=1/3;
 99//99;
 --------
 Pt_Gr_NS
 --------
 Symbolic Z-matrix:
 Charge =  0 Multiplicity = 1
 C                    -0.53797   0.99156   0. 
 C                    -0.13197  -0.30905  -0.4203 
 C                     2.3563    1.06519  -0.82127 
 C                     1.644     2.1932   -0.35388 
 C                     0.23866   2.14673  -0.01599 
 C                     2.3563   -1.68329  -0.82128 
 C                     3.77004   0.95707  -0.87424 
 C                     4.46878  -0.30905  -0.97866 
 C                     3.77004  -1.57516  -0.87425 
 C                     5.89026  -0.30905  -1.01383 
 C                     6.60136   0.93603  -0.98388 
 C                     5.93836   2.13224  -0.81049 
 C                     4.51182   2.17205  -0.70461 
 C                     3.80108   3.3731   -0.39172 
 C                     2.43167   3.38087  -0.18259 
 H                     1.93211   4.29749   0.12386 
 H                     4.36961   4.2922   -0.26882 
 H                    -1.54677   1.0663    0.41281 
 H                    -0.21916   3.07467   0.31912 
 H                     7.68687   0.91498  -1.04482 
 H                     6.49491   3.06303  -0.72876 
 C                    -0.53797  -1.60965   0.00002 
 C                     0.23867  -2.76481  -0.01596 
 C                     1.644    -2.81129  -0.35387 
 H                    -1.54676  -1.68438   0.41285 
 H                    -0.21915  -3.69275   0.31916 
 C                     2.43167  -3.99896  -0.18258 
 C                     3.80108  -3.9912   -0.39172 
 C                     4.51182  -2.79015  -0.70462 
 H                     1.93211  -4.91558   0.12389 
 H                     4.36961  -4.9103   -0.26882 
 C                     6.60136  -1.55413  -0.98388 
 H                     7.68687  -1.53308  -1.04483 
 C                     5.93836  -2.75034  -0.8105 
 H                     6.4949   -3.68113  -0.72877 
 Pt                    1.31413  -0.30905  -1.73809 
 

 GradGradGradGradGradGradGradGradGradGradGradGradGradGradGradGradGradGrad
 Berny optimization.
 Initialization pass.
 Trust Radius=3.00D-01 FncErr=1.00D-07 GrdErr=1.00D-07
 Number of steps in this run=      2 maximum allowed number of steps=      2.
 GradGradGradGradGradGradGradGradGradGradGradGradGradGradGradGradGradGrad

                          Input orientation:                          
 ---------------------------------------------------------------------
 Center     Atomic      Atomic             Coordinates (Angstroms)
 Number     Number       Type             X           Y           Z
 ---------------------------------------------------------------------
      1          6           0       -0.537975    0.991561    0.000000
      2          6           0       -0.131974   -0.309046   -0.420300
      3          6           0        2.356305    1.065193   -0.821268
      4          6           0        1.643996    2.193202   -0.353879
      5          6           0        0.238661    2.146727   -0.015987
      6          6           0        2.356299   -1.683287   -0.821284
      7          6           0        3.770041    0.957066   -0.874240
      8          6           0        4.468778   -0.309048   -0.978663
      9          6           0        3.770038   -1.575161   -0.874249
     10          6           0        5.890256   -0.309049   -1.013834
     11          6           0        6.601357    0.936032   -0.983877
     12          6           0        5.938360    2.132238   -0.810488
     13          6           0        4.511823    2.172049   -0.704607
     14          6           0        3.801083    3.373104   -0.391722
     15          6           0        2.431667    3.380871   -0.182588
     16          1           0        1.932114    4.297492    0.123865
     17          1           0        4.369612    4.292200   -0.268818
     18          1           0       -1.546770    1.066304    0.412808
     19          1           0       -0.219158    3.074666    0.319117
     20          1           0        7.686867    0.914980   -1.044820
     21          1           0        6.494906    3.063029   -0.728760
     22          6           0       -0.537969   -1.609645    0.000023
     23          6           0        0.238665   -2.764812   -0.015960
     24          6           0        1.643995   -2.811292   -0.353871
     25          1           0       -1.546759   -1.684382    0.412847
     26          1           0       -0.219149   -3.692747    0.319163
     27          6           0        2.431667   -3.998961   -0.182578
     28          6           0        3.801080   -3.991198   -0.391725
     29          6           0        4.511820   -2.790145   -0.704616
     30          1           0        1.932114   -4.915578    0.123886
     31          1           0        4.369608   -4.910295   -0.268820
     32          6           0        6.601355   -1.554133   -0.983883
     33          1           0        7.686865   -1.533081   -1.044827
     34          6           0        5.938356   -2.750336   -0.810496
     35          1           0        6.494900   -3.681129   -0.728770
     36         78           0        1.314133   -0.309055   -1.738093
 ---------------------------------------------------------------------
                    Distance matrix (angstroms):
                    1          2          3          4          5
     1  C    0.000000
     2  C    1.425857   0.000000
     3  C    3.009444   2.870686   0.000000
     4  C    2.515982   3.069157   1.413591   0.000000
     5  C    1.392059   2.516279   2.510500   1.446132   0.000000
     6  C    4.025685   2.870685   2.748480   3.969006   4.449933
     7  C    4.395962   4.127326   1.418854   2.513737   3.823942
     8  C    5.264688   4.634511   2.525045   3.825049   4.985124
     9  C    5.090319   4.127326   2.995483   4.357912   5.201893
    10  C    6.636384   6.051408   3.796635   4.972678   6.242360
    11  C    7.207021   6.870632   4.250129   5.152941   6.548778
    12  C    6.625778   6.554469   3.737622   4.319000   5.754824
    13  C    5.233592   5.272715   2.425903   2.889272   4.328366
    14  C    4.965140   5.387763   2.756511   2.458989   3.786295
    15  C    3.815876   4.499361   2.403322   1.435383   2.521932
    16  H    4.128663   5.077082   3.394256   2.176991   2.741009
    17  H    5.920379   6.438843   3.843460   3.441223   4.661731
    18  H    1.092550   2.141799   4.093523   3.469682   2.130480
    19  H    2.131386   3.464657   3.459981   2.168236   1.087641
    20  H    8.291293   7.938674   5.337362   6.215106   7.619151
    21  H    7.367733   7.441880   4.596513   4.942516   6.363038
    22  C    2.601206   1.425855   4.025680   4.398621   3.835850
    23  C    3.835852   2.516277   4.449927   5.164402   4.911539
    24  C    4.398626   3.069155   3.969002   5.004493   5.164405
    25  H    2.889422   2.141798   4.931238   5.079808   4.248414
    26  H    4.705981   3.464656   5.529153   6.210369   5.866974
    27  C    5.810113   4.499360   5.104827   6.244409   6.527366
    28  C    6.618817   5.387762   5.276265   6.549904   7.106767
    29  C    6.348088   5.272715   4.418539   5.760311   6.565578
    30  H    6.403981   5.077079   6.069833   7.130639   7.263849
    31  H    7.680400   6.438842   6.329696   7.608933   8.181089
    32  C    7.643207   6.870633   4.990768   6.246185   7.424087
    33  H    8.666803   7.938675   5.934298   7.132942   8.371096
    34  C    7.523400   6.554468   5.233494   6.564190   7.556387
    35  H    8.475049   7.441879   6.297944   7.627553   8.579772
    36  Pt   2.853572   1.956478   1.953265   2.878566   3.186401
                    6          7          8          9         10
     6  C    0.000000
     7  C    2.995486   0.000000
     8  C    2.525048   1.449891   0.000000
     9  C    1.418857   2.532227   1.449890   0.000000
    10  C    3.796638   2.473428   1.421913   2.473428   0.000000
    11  C    4.990770   2.833516   2.469442   3.786089   1.434151
    12  C    5.233498   2.467124   2.854440   4.295403   2.450213
    13  C    4.418543   1.433597   2.496558   3.823691   2.855092
    14  C    5.276270   2.463946   3.787949   4.971833   4.279009
    15  C    5.104832   2.853849   4.289412   5.179950   5.125263
    16  H    6.069840   3.941146   5.373122   6.233960   6.179116
    17  H    6.329700   3.442258   4.656737   5.928909   4.902949
    18  H    4.931246   5.471462   6.325709   6.074726   7.696509
    19  H    5.529161   4.671407   5.925411   6.241691   7.109939
    20  H    5.934300   3.920765   3.443649   4.644507   2.174171
    21  H    6.297948   3.446903   3.941897   5.381346   3.437700
    22  C    3.009445   5.090313   5.264684   4.395960   6.636380
    23  C    2.510501   5.201887   4.985121   3.823941   6.242356
    24  C    1.413593   4.357909   3.825047   2.513736   4.972675
    25  H    4.093525   6.074718   6.325704   5.471461   7.696503
    26  H    3.459983   6.241683   5.925405   4.671404   7.109931
    27  C    2.403324   5.179946   4.289409   2.853848   5.125258
    28  C    2.756513   4.971831   3.787948   2.463946   4.279007
    29  C    2.425906   3.823689   2.496557   1.433598   2.855090
    30  H    3.394257   6.233954   5.373118   3.941145   6.179110
    31  H    3.843463   5.928907   4.656736   3.442259   4.902946
    32  C    4.250132   3.786091   2.469443   2.833517   1.434152
    33  H    5.337366   4.644508   3.443650   3.920766   2.174171
    34  C    3.737625   4.295402   2.854440   2.467124   2.450212
    35  H    4.596514   5.381345   3.941896   3.446902   3.437699
    36  Pt   1.953245   2.894959   3.244768   2.894948   4.633083
                   11         12         13         14         15
    11  C    0.000000
    12  C    1.378600   0.000000
    13  C    2.443743   1.431014   0.000000
    14  C    3.759189   2.506604   1.430238   0.000000
    15  C    4.899553   3.774949   2.461870   1.385315   0.000000
    16  H    5.859039   4.648801   3.443657   2.147875   1.087962
    17  H    4.093393   2.723934   2.169142   1.087689   2.143266
    18  H    8.267991   7.658970   6.259220   5.879467   4.641086
    19  H    7.265740   6.330814   4.923913   4.093494   2.715206
    20  H    1.087423   2.143340   3.431744   4.644161   5.868662
    21  H    2.144885   1.087564   2.174177   2.732476   4.112085
    22  C    7.643200   7.523393   6.348080   6.618809   5.810106
    23  C    7.424079   7.556380   6.565570   7.106760   6.527361
    24  C    6.246181   6.564187   5.760307   6.549902   6.244409
    25  H    8.672324   8.490591   7.268232   7.404385   6.468323
    26  H    8.345226   8.551109   7.604343   8.160507   7.570644
    27  C    6.510188   7.091034   6.533064   7.501092   7.379832
    28  C    5.698227   6.499215   6.211978   7.364303   7.501096
    29  C    4.281185   5.126019   4.962194   6.211980   6.533069
    30  H    7.567715   8.160561   7.587869   8.512411   8.317123
    31  H    6.298535   7.235444   7.097164   8.303796   8.515074
    32  C    2.490164   3.749527   4.281188   5.698231   6.510195
    33  H    2.697881   4.067770   4.891281   6.292576   7.246205
    34  C    3.749525   4.882573   5.126020   6.499217   7.091039
    35  H    4.625428   5.840517   6.180038   7.558601   8.165783
    36  Pt   5.483960   5.310728   4.177223   4.642837   4.157407
                   16         17         18         19         20
    16  H    0.000000
    17  H    2.468932   0.000000
    18  H    4.756753   6.773079   0.000000
    19  H    2.482216   4.783813   2.409326   0.000000
    20  H    6.776754   4.797080   9.349205   8.308418   0.000000
    21  H    4.803118   2.497856   8.364128   6.795355   2.476848
    22  C    6.403976   7.680391   2.889424   4.705979   8.666796
    23  C    7.263846   8.181081   4.248420   5.866974   8.371089
    24  C    7.130642   7.608930   5.079816   6.210375   7.132938
    25  H    6.925957   8.437278   2.750686   4.941645   9.702645
    26  H    8.277076   9.228317   4.941651   6.767414   9.251847
    27  C    8.317126   8.515070   6.468334   7.570652   7.246199
    28  C    8.512418   8.303796   7.404397   8.160518   6.292572
    29  C    7.587876   7.097166   7.268243   7.604354   4.891279
    30  H    9.213070   9.533037   6.925967   8.277082   8.275171
    31  H    9.533044   9.202496   8.437291   9.228329   6.748349
    32  C    7.567723   6.298540   8.672334   8.345238   2.697882
    33  H    8.275179   6.748353   9.702656   9.251859   2.448061
    34  C    8.160569   7.235447   8.490601   8.551120   4.067768
    35  H    9.230622   8.264526   9.407963   9.582140   4.758664
    36  Pt   5.006901   5.715441   3.834417   4.246488   6.526150
                   21         22         23         24         25
    21  H    0.000000
    22  C    8.475042   0.000000
    23  C    8.579765   1.392059   0.000000
    24  C    7.627550   2.515982   1.446132   0.000000
    25  H    9.407952   1.092551   2.130480   3.469682   0.000000
    26  H    9.582129   2.131387   1.087642   2.168235   2.409327
    27  C    8.165778   3.815876   2.521932   1.435383   4.641086
    28  C    7.558599   4.965139   3.786294   2.458989   5.879466
    29  C    6.180037   5.233591   4.328365   2.889272   6.259219
    30  H    9.230615   4.128661   2.741007   2.176990   4.756751
    31  H    8.264523   5.920378   4.661730   3.441223   6.773078
    32  C    4.625429   7.207018   6.548774   5.152939   8.267986
    33  H    4.758665   8.291289   7.619148   6.215104   9.349199
    34  C    5.840517   6.625775   5.754821   4.318999   7.658967
    35  H    6.744158   7.367729   6.363034   4.942514   8.364124
    36  Pt   6.263395   2.853571   3.186396   2.878554   3.834419
                   26         27         28         29         30
    26  H    0.000000
    27  C    2.715204   0.000000
    28  C    4.093491   1.385314   0.000000
    29  C    4.923909   2.461869   1.430239   0.000000
    30  H    2.482212   1.087962   2.147875   3.443656   0.000000
    31  H    4.783810   2.143265   1.087690   2.169143   2.468932
    32  C    7.265733   4.899549   3.759187   2.443742   5.859034
    33  H    8.308411   5.868658   4.644159   3.431743   6.776750
    34  C    6.330808   3.774945   2.506603   1.431013   4.648797
    35  H    6.795347   4.112081   2.732473   2.174175   4.803114
    36  Pt   4.246484   4.157393   4.642822   4.177211   5.006888
                   31         32         33         34         35
    31  H    0.000000
    32  C    4.093390   0.000000
    33  H    4.797078   1.087423   0.000000
    34  C    2.723932   1.378599   2.143340   0.000000
    35  H    2.497853   2.144884   2.476849   1.087564   0.000000
    36  Pt   5.715427   5.483956   6.526146   5.310718   6.263383
                   36
    36  Pt   0.000000
 Stoichiometry    C23H12Pt
 Framework group  C1[X(C23H12Pt)]
 Deg. of freedom   102
 Full point group                 C1      NOp   1
 Largest Abelian subgroup         C1      NOp   1
 Largest concise Abelian subgroup C1      NOp   1
                         Standard orientation:                         
 ---------------------------------------------------------------------
 Center     Atomic      Atomic             Coordinates (Angstroms)
 Number     Number       Type             X           Y           Z
 ---------------------------------------------------------------------
      1          6           0       -3.039569    1.300611    0.938969
      2          6           0       -2.633569    0.000004    0.518669
      3          6           0       -0.145290    1.374242    0.117701
      4          6           0       -0.857598    2.502251    0.585090
      5          6           0       -2.262933    2.455777    0.922982
      6          6           0       -0.145296   -1.374238    0.117685
      7          6           0        1.268446    1.266115    0.064729
      8          6           0        1.967183    0.000001   -0.039694
      9          6           0        1.268443   -1.266112    0.064720
     10          6           0        3.388661    0.000000   -0.074865
     11          6           0        4.099762    1.245081   -0.044908
     12          6           0        3.436765    2.441287    0.128481
     13          6           0        2.010229    2.481098    0.234362
     14          6           0        1.299489    3.682153    0.547247
     15          6           0       -0.069928    3.689920    0.756381
     16          1           0       -0.569481    4.606541    1.062834
     17          1           0        1.868017    4.601250    0.670151
     18          1           0       -4.048364    1.375353    1.351777
     19          1           0       -2.720753    3.383716    1.258086
     20          1           0        5.185272    1.224029   -0.105851
     21          1           0        3.993312    3.372078    0.210209
     22          6           0       -3.039564   -1.300596    0.938992
     23          6           0       -2.262930   -2.455763    0.923009
     24          6           0       -0.857600   -2.502242    0.585098
     25          1           0       -4.048354   -1.375333    1.351816
     26          1           0       -2.720744   -3.383698    1.258132
     27          6           0       -0.069928   -3.689911    0.756391
     28          6           0        1.299485   -3.682149    0.547244
     29          6           0        2.010226   -2.481096    0.234353
     30          1           0       -0.569481   -4.606528    1.062855
     31          1           0        1.868013   -4.601246    0.670149
     32          6           0        4.099761   -1.245084   -0.044914
     33          1           0        5.185271   -1.224032   -0.105858
     34          6           0        3.436761   -2.441287    0.128473
     35          1           0        3.993305   -3.372080    0.210199
     36         78           0       -1.187462   -0.000005   -0.799124
 ---------------------------------------------------------------------
 Rotational constants (GHZ):      0.2897690      0.2392980      0.1467625
 Standard basis: VSTO-6G (5D, 7F)
 There are   114 symmetry adapted cartesian basis functions of A   symmetry.
 There are   113 symmetry adapted basis functions of A   symmetry.
   113 basis functions,   684 primitive gaussians,   114 cartesian basis functions
    57 alpha electrons       57 beta electrons
       nuclear repulsion energy       994.5034710643 Hartrees.
 Integral buffers will be    262144 words long.
 Regular integral format.
 Two-electron integral symmetry is turned off.
 Do NDO integrals.
 One-electron integrals computed using PRISM.
 NBasis=   113 RedAO= F EigKep=  0.00D+00  NBF=   113
 NBsUse=   113 1.00D-04 EigRej=  0.00D+00 NBFU=   113
 Nonelectrostatic core Hamiltonian diagonalized for initial guess.
 Overlap will be assumed to be unity.
 Keep J ints in memory in canonical form, NReq=1967587.
 Requested convergence on RMS density matrix=1.00D-08 within 128 cycles.
 Requested convergence on MAX density matrix=1.00D-06.
 Requested convergence on             energy=1.00D-06.
 No special actions if energy rises.
 SCF Done:  E(RPM6) =  0.371310965237     A.U. after   28 cycles
            NFock= 27  Conv=0.92D-08     -V/T= 1.0048
 Range of M.O.s used for correlation:     1   113
 NBasis=   113 NAE=    57 NBE=    57 NFC=     0 NFV=     0
 NROrb=    113 NOA=    57 NOB=    57 NVA=    56 NVB=    56
 Symmetrizing basis deriv contribution to polar:
 IMax=3 JMax=2 DiffMx= 0.00D+00
 G2DrvN: will do    37 centers at a time, making    1 passes.
 Calling FoFCou, ICntrl=  3107 FMM=F I1Cent=   0 AccDes= 0.00D+00.
 End of G2Drv F.D. properties file   721 does not exist.
 End of G2Drv F.D. properties file   722 does not exist.
 End of G2Drv F.D. properties file   788 does not exist.
          IDoAtm=111111111111111111111111111111111111
          Differentiating once with respect to electric field.
                with respect to dipole field.
          Differentiating once with respect to nuclear coordinates.
          Electric field/nuclear overlap derivatives assumed to be zero.
 Keep J ints in memory in canonical form, NReq=1921042.
          There are   111 degrees of freedom in the 1st order CPHF.  IDoFFX=5 NUNeed=   111.
 LinEq1:  Iter=  0 NonCon=   111 RMS=2.92D-01 Max=8.32D+00 NDo=   111
 AX will form   111 AO Fock derivatives at one time.
 LinEq1:  Iter=  1 NonCon=   111 RMS=9.07D-02 Max=1.24D+00 NDo=   111
 LinEq1:  Iter=  2 NonCon=   111 RMS=4.16D-02 Max=1.01D+00 NDo=   111
 LinEq1:  Iter=  3 NonCon=   111 RMS=1.41D-02 Max=3.51D-01 NDo=   111
 LinEq1:  Iter=  4 NonCon=   111 RMS=4.97D-03 Max=1.38D-01 NDo=   111
 LinEq1:  Iter=  5 NonCon=   111 RMS=2.25D-03 Max=5.77D-02 NDo=   111
 LinEq1:  Iter=  6 NonCon=   111 RMS=7.78D-04 Max=1.29D-02 NDo=   111
 LinEq1:  Iter=  7 NonCon=   111 RMS=2.50D-04 Max=6.85D-03 NDo=   111
 LinEq1:  Iter=  8 NonCon=   111 RMS=6.50D-05 Max=1.25D-03 NDo=   111
 LinEq1:  Iter=  9 NonCon=   111 RMS=2.01D-05 Max=4.33D-04 NDo=   111
 LinEq1:  Iter= 10 NonCon=   109 RMS=6.00D-06 Max=8.63D-05 NDo=   111
 LinEq1:  Iter= 11 NonCon=    96 RMS=1.95D-06 Max=3.02D-05 NDo=   111
 LinEq1:  Iter= 12 NonCon=    55 RMS=5.55D-07 Max=8.91D-06 NDo=   111
 LinEq1:  Iter= 13 NonCon=    11 RMS=1.38D-07 Max=2.09D-06 NDo=   111
 LinEq1:  Iter= 14 NonCon=     2 RMS=3.37D-08 Max=4.21D-07 NDo=   111
 LinEq1:  Iter= 15 NonCon=     1 RMS=8.73D-09 Max=1.13D-07 NDo=   111
 LinEq1:  Iter= 16 NonCon=     0 RMS=2.29D-09 Max=2.87D-08 NDo=   111
 Linear equations converged to 1.000D-08 1.000D-07 after    16 iterations.
 Isotropic polarizability for W=    0.000000      285.88 Bohr**3.
 End of Minotr F.D. properties file   721 does not exist.
 End of Minotr F.D. properties file   722 does not exist.
 End of Minotr F.D. properties file   788 does not exist.

 **********************************************************************

            Population analysis using the SCF density.

 **********************************************************************

 Orbital symmetries:
       Occupied  (A) (A) (A) (A) (A) (A) (A) (A) (A) (A) (A) (A)
                 (A) (A) (A) (A) (A) (A) (A) (A) (A) (A) (A) (A)
                 (A) (A) (A) (A) (A) (A) (A) (A) (A) (A) (A) (A)
                 (A) (A) (A) (A) (A) (A) (A) (A) (A) (A) (A) (A)
                 (A) (A) (A) (A) (A) (A) (A) (A) (A)
       Virtual   (A) (A) (A) (A) (A) (A) (A) (A) (A) (A) (A) (A)
                 (A) (A) (A) (A) (A) (A) (A) (A) (A) (A) (A) (A)
                 (A) (A) (A) (A) (A) (A) (A) (A) (A) (A) (A) (A)
                 (A) (A) (A) (A) (A) (A) (A) (A) (A) (A) (A) (A)
                 (A) (A) (A) (A) (A) (A) (A) (A)
 The electronic state is 1-A.
 Alpha  occ. eigenvalues --   -1.12343  -1.10835  -1.08941  -1.05739  -1.05330
 Alpha  occ. eigenvalues --   -1.00953  -1.00906  -0.97040  -0.94088  -0.91506
 Alpha  occ. eigenvalues --   -0.91396  -0.89190  -0.81870  -0.81508  -0.80548
 Alpha  occ. eigenvalues --   -0.79875  -0.74855  -0.72246  -0.69460  -0.69398
 Alpha  occ. eigenvalues --   -0.65392  -0.63617  -0.63237  -0.60421  -0.58756
 Alpha  occ. eigenvalues --   -0.57582  -0.57546  -0.56395  -0.54881  -0.53451
 Alpha  occ. eigenvalues --   -0.53431  -0.52470  -0.52034  -0.51983  -0.51664
 Alpha  occ. eigenvalues --   -0.51106  -0.50080  -0.49515  -0.49161  -0.47226
 Alpha  occ. eigenvalues --   -0.46590  -0.46141  -0.45220  -0.43856  -0.43545
 Alpha  occ. eigenvalues --   -0.42867  -0.42621  -0.41808  -0.38264  -0.37960
 Alpha  occ. eigenvalues --   -0.37905  -0.36639  -0.34718  -0.33690  -0.30987
 Alpha  occ. eigenvalues --   -0.30638  -0.27661
 Alpha virt. eigenvalues --   -0.06809  -0.04815  -0.03248  -0.01684  -0.00805
 Alpha virt. eigenvalues --   -0.00320  -0.00010   0.00671   0.02932   0.04414
 Alpha virt. eigenvalues --    0.04865   0.07010   0.07194   0.08011   0.08987
 Alpha virt. eigenvalues --    0.09517   0.10281   0.12313   0.12325   0.13322
 Alpha virt. eigenvalues --    0.13619   0.14192   0.14615   0.14950   0.15533
 Alpha virt. eigenvalues --    0.15549   0.15722   0.15779   0.15875   0.16081
 Alpha virt. eigenvalues --    0.16523   0.16631   0.17015   0.17344   0.17513
 Alpha virt. eigenvalues --    0.17990   0.18093   0.18144   0.18298   0.18543
 Alpha virt. eigenvalues --    0.18994   0.19604   0.19903   0.20032   0.20175
 Alpha virt. eigenvalues --    0.20436   0.20930   0.21056   0.21067   0.21243
 Alpha virt. eigenvalues --    0.21339   0.21553   0.21657   0.21729   0.21976
 Alpha virt. eigenvalues --    0.22011
          Condensed to atoms (all electrons):
               1          2          3          4          5          6
     1  C    4.297986   0.000000   0.000000   0.000000   0.000000   0.000000
     2  C    0.000000   3.986279   0.000000   0.000000   0.000000   0.000000
     3  C    0.000000   0.000000   4.107057   0.000000   0.000000   0.000000
     4  C    0.000000   0.000000   0.000000   4.129949   0.000000   0.000000
     5  C    0.000000   0.000000   0.000000   0.000000   3.977798   0.000000
     6  C    0.000000   0.000000   0.000000   0.000000   0.000000   4.107048
     7  C    0.000000   0.000000   0.000000   0.000000   0.000000   0.000000
     8  C    0.000000   0.000000   0.000000   0.000000   0.000000   0.000000
     9  C    0.000000   0.000000   0.000000   0.000000   0.000000   0.000000
    10  C    0.000000   0.000000   0.000000   0.000000   0.000000   0.000000
    11  C    0.000000   0.000000   0.000000   0.000000   0.000000   0.000000
    12  C    0.000000   0.000000   0.000000   0.000000   0.000000   0.000000
    13  C    0.000000   0.000000   0.000000   0.000000   0.000000   0.000000
    14  C    0.000000   0.000000   0.000000   0.000000   0.000000   0.000000
    15  C    0.000000   0.000000   0.000000   0.000000   0.000000   0.000000
    16  H    0.000000   0.000000   0.000000   0.000000   0.000000   0.000000
    17  H    0.000000   0.000000   0.000000   0.000000   0.000000   0.000000
    18  H    0.000000   0.000000   0.000000   0.000000   0.000000   0.000000
    19  H    0.000000   0.000000   0.000000   0.000000   0.000000   0.000000
    20  H    0.000000   0.000000   0.000000   0.000000   0.000000   0.000000
    21  H    0.000000   0.000000   0.000000   0.000000   0.000000   0.000000
    22  C    0.000000   0.000000   0.000000   0.000000   0.000000   0.000000
    23  C    0.000000   0.000000   0.000000   0.000000   0.000000   0.000000
    24  C    0.000000   0.000000   0.000000   0.000000   0.000000   0.000000
    25  H    0.000000   0.000000   0.000000   0.000000   0.000000   0.000000
    26  H    0.000000   0.000000   0.000000   0.000000   0.000000   0.000000
    27  C    0.000000   0.000000   0.000000   0.000000   0.000000   0.000000
    28  C    0.000000   0.000000   0.000000   0.000000   0.000000   0.000000
    29  C    0.000000   0.000000   0.000000   0.000000   0.000000   0.000000
    30  H    0.000000   0.000000   0.000000   0.000000   0.000000   0.000000
    31  H    0.000000   0.000000   0.000000   0.000000   0.000000   0.000000
    32  C    0.000000   0.000000   0.000000   0.000000   0.000000   0.000000
    33  H    0.000000   0.000000   0.000000   0.000000   0.000000   0.000000
    34  C    0.000000   0.000000   0.000000   0.000000   0.000000   0.000000
    35  H    0.000000   0.000000   0.000000   0.000000   0.000000   0.000000
    36  Pt   0.000000   0.000000   0.000000   0.000000   0.000000   0.000000
               7          8          9         10         11         12
     1  C    0.000000   0.000000   0.000000   0.000000   0.000000   0.000000
     2  C    0.000000   0.000000   0.000000   0.000000   0.000000   0.000000
     3  C    0.000000   0.000000   0.000000   0.000000   0.000000   0.000000
     4  C    0.000000   0.000000   0.000000   0.000000   0.000000   0.000000
     5  C    0.000000   0.000000   0.000000   0.000000   0.000000   0.000000
     6  C    0.000000   0.000000   0.000000   0.000000   0.000000   0.000000
     7  C    4.112543   0.000000   0.000000   0.000000   0.000000   0.000000
     8  C    0.000000   3.915477   0.000000   0.000000   0.000000   0.000000
     9  C    0.000000   0.000000   4.112547   0.000000   0.000000   0.000000
    10  C    0.000000   0.000000   0.000000   4.058160   0.000000   0.000000
    11  C    0.000000   0.000000   0.000000   0.000000   4.096343   0.000000
    12  C    0.000000   0.000000   0.000000   0.000000   0.000000   4.214699
    13  C    0.000000   0.000000   0.000000   0.000000   0.000000   0.000000
    14  C    0.000000   0.000000   0.000000   0.000000   0.000000   0.000000
    15  C    0.000000   0.000000   0.000000   0.000000   0.000000   0.000000
    16  H    0.000000   0.000000   0.000000   0.000000   0.000000   0.000000
    17  H    0.000000   0.000000   0.000000   0.000000   0.000000   0.000000
    18  H    0.000000   0.000000   0.000000   0.000000   0.000000   0.000000
    19  H    0.000000   0.000000   0.000000   0.000000   0.000000   0.000000
    20  H    0.000000   0.000000   0.000000   0.000000   0.000000   0.000000
    21  H    0.000000   0.000000   0.000000   0.000000   0.000000   0.000000
    22  C    0.000000   0.000000   0.000000   0.000000   0.000000   0.000000
    23  C    0.000000   0.000000   0.000000   0.000000   0.000000   0.000000
    24  C    0.000000   0.000000   0.000000   0.000000   0.000000   0.000000
    25  H    0.000000   0.000000   0.000000   0.000000   0.000000   0.000000
    26  H    0.000000   0.000000   0.000000   0.000000   0.000000   0.000000
    27  C    0.000000   0.000000   0.000000   0.000000   0.000000   0.000000
    28  C    0.000000   0.000000   0.000000   0.000000   0.000000   0.000000
    29  C    0.000000   0.000000   0.000000   0.000000   0.000000   0.000000
    30  H    0.000000   0.000000   0.000000   0.000000   0.000000   0.000000
    31  H    0.000000   0.000000   0.000000   0.000000   0.000000   0.000000
    32  C    0.000000   0.000000   0.000000   0.000000   0.000000   0.000000
    33  H    0.000000   0.000000   0.000000   0.000000   0.000000   0.000000
    34  C    0.000000   0.000000   0.000000   0.000000   0.000000   0.000000
    35  H    0.000000   0.000000   0.000000   0.000000   0.000000   0.000000
    36  Pt   0.000000   0.000000   0.000000   0.000000   0.000000   0.000000
              13         14         15         16         17         18
     1  C    0.000000   0.000000   0.000000   0.000000   0.000000   0.000000
     2  C    0.000000   0.000000   0.000000   0.000000   0.000000   0.000000
     3  C    0.000000   0.000000   0.000000   0.000000   0.000000   0.000000
     4  C    0.000000   0.000000   0.000000   0.000000   0.000000   0.000000
     5  C    0.000000   0.000000   0.000000   0.000000   0.000000   0.000000
     6  C    0.000000   0.000000   0.000000   0.000000   0.000000   0.000000
     7  C    0.000000   0.000000   0.000000   0.000000   0.000000   0.000000
     8  C    0.000000   0.000000   0.000000   0.000000   0.000000   0.000000
     9  C    0.000000   0.000000   0.000000   0.000000   0.000000   0.000000
    10  C    0.000000   0.000000   0.000000   0.000000   0.000000   0.000000
    11  C    0.000000   0.000000   0.000000   0.000000   0.000000   0.000000
    12  C    0.000000   0.000000   0.000000   0.000000   0.000000   0.000000
    13  C    3.879874   0.000000   0.000000   0.000000   0.000000   0.000000
    14  C    0.000000   4.237507   0.000000   0.000000   0.000000   0.000000
    15  C    0.000000   0.000000   4.068594   0.000000   0.000000   0.000000
    16  H    0.000000   0.000000   0.000000   0.857985   0.000000   0.000000
    17  H    0.000000   0.000000   0.000000   0.000000   0.840670   0.000000
    18  H    0.000000   0.000000   0.000000   0.000000   0.000000   0.832210
    19  H    0.000000   0.000000   0.000000   0.000000   0.000000   0.000000
    20  H    0.000000   0.000000   0.000000   0.000000   0.000000   0.000000
    21  H    0.000000   0.000000   0.000000   0.000000   0.000000   0.000000
    22  C    0.000000   0.000000   0.000000   0.000000   0.000000   0.000000
    23  C    0.000000   0.000000   0.000000   0.000000   0.000000   0.000000
    24  C    0.000000   0.000000   0.000000   0.000000   0.000000   0.000000
    25  H    0.000000   0.000000   0.000000   0.000000   0.000000   0.000000
    26  H    0.000000   0.000000   0.000000   0.000000   0.000000   0.000000
    27  C    0.000000   0.000000   0.000000   0.000000   0.000000   0.000000
    28  C    0.000000   0.000000   0.000000   0.000000   0.000000   0.000000
    29  C    0.000000   0.000000   0.000000   0.000000   0.000000   0.000000
    30  H    0.000000   0.000000   0.000000   0.000000   0.000000   0.000000
    31  H    0.000000   0.000000   0.000000   0.000000   0.000000   0.000000
    32  C    0.000000   0.000000   0.000000   0.000000   0.000000   0.000000
    33  H    0.000000   0.000000   0.000000   0.000000   0.000000   0.000000
    34  C    0.000000   0.000000   0.000000   0.000000   0.000000   0.000000
    35  H    0.000000   0.000000   0.000000   0.000000   0.000000   0.000000
    36  Pt   0.000000   0.000000   0.000000   0.000000   0.000000   0.000000
              19         20         21         22         23         24
     1  C    0.000000   0.000000   0.000000   0.000000   0.000000   0.000000
     2  C    0.000000   0.000000   0.000000   0.000000   0.000000   0.000000
     3  C    0.000000   0.000000   0.000000   0.000000   0.000000   0.000000
     4  C    0.000000   0.000000   0.000000   0.000000   0.000000   0.000000
     5  C    0.000000   0.000000   0.000000   0.000000   0.000000   0.000000
     6  C    0.000000   0.000000   0.000000   0.000000   0.000000   0.000000
     7  C    0.000000   0.000000   0.000000   0.000000   0.000000   0.000000
     8  C    0.000000   0.000000   0.000000   0.000000   0.000000   0.000000
     9  C    0.000000   0.000000   0.000000   0.000000   0.000000   0.000000
    10  C    0.000000   0.000000   0.000000   0.000000   0.000000   0.000000
    11  C    0.000000   0.000000   0.000000   0.000000   0.000000   0.000000
    12  C    0.000000   0.000000   0.000000   0.000000   0.000000   0.000000
    13  C    0.000000   0.000000   0.000000   0.000000   0.000000   0.000000
    14  C    0.000000   0.000000   0.000000   0.000000   0.000000   0.000000
    15  C    0.000000   0.000000   0.000000   0.000000   0.000000   0.000000
    16  H    0.000000   0.000000   0.000000   0.000000   0.000000   0.000000
    17  H    0.000000   0.000000   0.000000   0.000000   0.000000   0.000000
    18  H    0.000000   0.000000   0.000000   0.000000   0.000000   0.000000
    19  H    0.856431   0.000000   0.000000   0.000000   0.000000   0.000000
    20  H    0.000000   0.851289   0.000000   0.000000   0.000000   0.000000
    21  H    0.000000   0.000000   0.840273   0.000000   0.000000   0.000000
    22  C    0.000000   0.000000   0.000000   4.297987   0.000000   0.000000
    23  C    0.000000   0.000000   0.000000   0.000000   3.977795   0.000000
    24  C    0.000000   0.000000   0.000000   0.000000   0.000000   4.129953
    25  H    0.000000   0.000000   0.000000   0.000000   0.000000   0.000000
    26  H    0.000000   0.000000   0.000000   0.000000   0.000000   0.000000
    27  C    0.000000   0.000000   0.000000   0.000000   0.000000   0.000000
    28  C    0.000000   0.000000   0.000000   0.000000   0.000000   0.000000
    29  C    0.000000   0.000000   0.000000   0.000000   0.000000   0.000000
    30  H    0.000000   0.000000   0.000000   0.000000   0.000000   0.000000
    31  H    0.000000   0.000000   0.000000   0.000000   0.000000   0.000000
    32  C    0.000000   0.000000   0.000000   0.000000   0.000000   0.000000
    33  H    0.000000   0.000000   0.000000   0.000000   0.000000   0.000000
    34  C    0.000000   0.000000   0.000000   0.000000   0.000000   0.000000
    35  H    0.000000   0.000000   0.000000   0.000000   0.000000   0.000000
    36  Pt   0.000000   0.000000   0.000000   0.000000   0.000000   0.000000
              25         26         27         28         29         30
     1  C    0.000000   0.000000   0.000000   0.000000   0.000000   0.000000
     2  C    0.000000   0.000000   0.000000   0.000000   0.000000   0.000000
     3  C    0.000000   0.000000   0.000000   0.000000   0.000000   0.000000
     4  C    0.000000   0.000000   0.000000   0.000000   0.000000   0.000000
     5  C    0.000000   0.000000   0.000000   0.000000   0.000000   0.000000
     6  C    0.000000   0.000000   0.000000   0.000000   0.000000   0.000000
     7  C    0.000000   0.000000   0.000000   0.000000   0.000000   0.000000
     8  C    0.000000   0.000000   0.000000   0.000000   0.000000   0.000000
     9  C    0.000000   0.000000   0.000000   0.000000   0.000000   0.000000
    10  C    0.000000   0.000000   0.000000   0.000000   0.000000   0.000000
    11  C    0.000000   0.000000   0.000000   0.000000   0.000000   0.000000
    12  C    0.000000   0.000000   0.000000   0.000000   0.000000   0.000000
    13  C    0.000000   0.000000   0.000000   0.000000   0.000000   0.000000
    14  C    0.000000   0.000000   0.000000   0.000000   0.000000   0.000000
    15  C    0.000000   0.000000   0.000000   0.000000   0.000000   0.000000
    16  H    0.000000   0.000000   0.000000   0.000000   0.000000   0.000000
    17  H    0.000000   0.000000   0.000000   0.000000   0.000000   0.000000
    18  H    0.000000   0.000000   0.000000   0.000000   0.000000   0.000000
    19  H    0.000000   0.000000   0.000000   0.000000   0.000000   0.000000
    20  H    0.000000   0.000000   0.000000   0.000000   0.000000   0.000000
    21  H    0.000000   0.000000   0.000000   0.000000   0.000000   0.000000
    22  C    0.000000   0.000000   0.000000   0.000000   0.000000   0.000000
    23  C    0.000000   0.000000   0.000000   0.000000   0.000000   0.000000
    24  C    0.000000   0.000000   0.000000   0.000000   0.000000   0.000000
    25  H    0.832210   0.000000   0.000000   0.000000   0.000000   0.000000
    26  H    0.000000   0.856431   0.000000   0.000000   0.000000   0.000000
    27  C    0.000000   0.000000   4.068592   0.000000   0.000000   0.000000
    28  C    0.000000   0.000000   0.000000   4.237509   0.000000   0.000000
    29  C    0.000000   0.000000   0.000000   0.000000   3.879872   0.000000
    30  H    0.000000   0.000000   0.000000   0.000000   0.000000   0.857985
    31  H    0.000000   0.000000   0.000000   0.000000   0.000000   0.000000
    32  C    0.000000   0.000000   0.000000   0.000000   0.000000   0.000000
    33  H    0.000000   0.000000   0.000000   0.000000   0.000000   0.000000
    34  C    0.000000   0.000000   0.000000   0.000000   0.000000   0.000000
    35  H    0.000000   0.000000   0.000000   0.000000   0.000000   0.000000
    36  Pt   0.000000   0.000000   0.000000   0.000000   0.000000   0.000000
              31         32         33         34         35         36
     1  C    0.000000   0.000000   0.000000   0.000000   0.000000   0.000000
     2  C    0.000000   0.000000   0.000000   0.000000   0.000000   0.000000
     3  C    0.000000   0.000000   0.000000   0.000000   0.000000   0.000000
     4  C    0.000000   0.000000   0.000000   0.000000   0.000000   0.000000
     5  C    0.000000   0.000000   0.000000   0.000000   0.000000   0.000000
     6  C    0.000000   0.000000   0.000000   0.000000   0.000000   0.000000
     7  C    0.000000   0.000000   0.000000   0.000000   0.000000   0.000000
     8  C    0.000000   0.000000   0.000000   0.000000   0.000000   0.000000
     9  C    0.000000   0.000000   0.000000   0.000000   0.000000   0.000000
    10  C    0.000000   0.000000   0.000000   0.000000   0.000000   0.000000
    11  C    0.000000   0.000000   0.000000   0.000000   0.000000   0.000000
    12  C    0.000000   0.000000   0.000000   0.000000   0.000000   0.000000
    13  C    0.000000   0.000000   0.000000   0.000000   0.000000   0.000000
    14  C    0.000000   0.000000   0.000000   0.000000   0.000000   0.000000
    15  C    0.000000   0.000000   0.000000   0.000000   0.000000   0.000000
    16  H    0.000000   0.000000   0.000000   0.000000   0.000000   0.000000
    17  H    0.000000   0.000000   0.000000   0.000000   0.000000   0.000000
    18  H    0.000000   0.000000   0.000000   0.000000   0.000000   0.000000
    19  H    0.000000   0.000000   0.000000   0.000000   0.000000   0.000000
    20  H    0.000000   0.000000   0.000000   0.000000   0.000000   0.000000
    21  H    0.000000   0.000000   0.000000   0.000000   0.000000   0.000000
    22  C    0.000000   0.000000   0.000000   0.000000   0.000000   0.000000
    23  C    0.000000   0.000000   0.000000   0.000000   0.000000   0.000000
    24  C    0.000000   0.000000   0.000000   0.000000   0.000000   0.000000
    25  H    0.000000   0.000000   0.000000   0.000000   0.000000   0.000000
    26  H    0.000000   0.000000   0.000000   0.000000   0.000000   0.000000
    27  C    0.000000   0.000000   0.000000   0.000000   0.000000   0.000000
    28  C    0.000000   0.000000   0.000000   0.000000   0.000000   0.000000
    29  C    0.000000   0.000000   0.000000   0.000000   0.000000   0.000000
    30  H    0.000000   0.000000   0.000000   0.000000   0.000000   0.000000
    31  H    0.840669   0.000000   0.000000   0.000000   0.000000   0.000000
    32  C    0.000000   4.096342   0.000000   0.000000   0.000000   0.000000
    33  H    0.000000   0.000000   0.851289   0.000000   0.000000   0.000000
    34  C    0.000000   0.000000   0.000000   4.214700   0.000000   0.000000
    35  H    0.000000   0.000000   0.000000   0.000000   0.840273   0.000000
    36  Pt   0.000000   0.000000   0.000000   0.000000   0.000000   9.637675
 Mulliken charges:
               1
     1  C   -0.297986
     2  C    0.013721
     3  C   -0.107057
     4  C   -0.129949
     5  C    0.022202
     6  C   -0.107048
     7  C   -0.112543
     8  C    0.084523
     9  C   -0.112547
    10  C   -0.058160
    11  C   -0.096343
    12  C   -0.214699
    13  C    0.120126
    14  C   -0.237507
    15  C   -0.068594
    16  H    0.142015
    17  H    0.159330
    18  H    0.167790
    19  H    0.143569
    20  H    0.148711
    21  H    0.159727
    22  C   -0.297987
    23  C    0.022205
    24  C   -0.129953
    25  H    0.167790
    26  H    0.143569
    27  C   -0.068592
    28  C   -0.237509
    29  C    0.120128
    30  H    0.142015
    31  H    0.159331
    32  C   -0.096342
    33  H    0.148711
    34  C   -0.214700
    35  H    0.159727
    36  Pt   0.362325
 Sum of Mulliken charges =   0.00000
 Mulliken charges with hydrogens summed into heavy atoms:
               1
     1  C   -0.130196
     2  C    0.013721
     3  C   -0.107057
     4  C   -0.129949
     5  C    0.165771
     6  C   -0.107048
     7  C   -0.112543
     8  C    0.084523
     9  C   -0.112547
    10  C   -0.058160
    11  C    0.052368
    12  C   -0.054972
    13  C    0.120126
    14  C   -0.078176
    15  C    0.073422
    22  C   -0.130197
    23  C    0.165774
    24  C   -0.129953
    27  C    0.073423
    28  C   -0.078178
    29  C    0.120128
    32  C    0.052369
    34  C   -0.054973
    36  Pt   0.362325
 APT charges:
               1
     1  C   -0.755098
     2  C    0.837818
     3  C    0.438780
     4  C   -0.428722
     5  C    0.370373
     6  C    0.438814
     7  C   -0.181115
     8  C    0.095032
     9  C   -0.181120
    10  C   -0.219271
    11  C    0.004255
    12  C   -0.386503
    13  C    0.275235
    14  C   -0.463703
    15  C    0.114776
    16  H    0.180100
    17  H    0.213058
    18  H    0.213693
    19  H    0.192030
    20  H    0.194255
    21  H    0.210572
    22  C   -0.755106
    23  C    0.370385
    24  C   -0.428733
    25  H    0.213694
    26  H    0.192030
    27  C    0.114785
    28  C   -0.463710
    29  C    0.275243
    30  H    0.180100
    31  H    0.213059
    32  C    0.004258
    33  H    0.194255
    34  C   -0.386507
    35  H    0.210572
    36  Pt  -1.098234
 Sum of APT charges =  -0.00065
 APT charges with hydrogens summed into heavy atoms:
               1
     1  C   -0.541405
     2  C    0.837818
     3  C    0.438780
     4  C   -0.428722
     5  C    0.562403
     6  C    0.438814
     7  C   -0.181115
     8  C    0.095032
     9  C   -0.181120
    10  C   -0.219271
    11  C    0.198510
    12  C   -0.175931
    13  C    0.275235
    14  C   -0.250645
    15  C    0.294876
    22  C   -0.541412
    23  C    0.562416
    24  C   -0.428733
    27  C    0.294885
    28  C   -0.250652
    29  C    0.275243
    32  C    0.198513
    34  C   -0.175935
    36  Pt  -1.098234
 Charge=              0.0000 electrons
 Dipole moment (field-independent basis, Debye):
    X=              0.5298    Y=              0.0000    Z=              2.2760  Tot=              2.3368
 N-N= 9.945034710643D+02 E-N=-1.839730412426D+03  KE=-7.695226451673D+01
  Exact polarizability: 370.504   0.000 380.829 -35.878   0.001 106.321
 Approx polarizability: 365.698  -0.001 355.141 -45.231  -0.001  97.664
 Calling FoFJK, ICntrl=    100127 FMM=F ISym2X=0 I1Cent= 0 IOpClX= 0 NMat=1 NMatS=1 NMatT=0.
 Full mass-weighted force constant matrix:
 Low frequencies ---   -0.1083   -0.0883   -0.0589   25.6063   28.1705   36.4169
 Low frequencies ---   79.5527   85.8306  111.1593
 Diagonal vibrational polarizability:
       18.0193427      16.9788096      60.8073463
 Harmonic frequencies (cm**-1), IR intensities (KM/Mole), Raman scattering
 activities (A**4/AMU), depolarization ratios for plane and unpolarized
 incident light, reduced masses (AMU), force constants (mDyne/A),
 and normal coordinates:
                      1                      2                      3
                      A                      A                      A
 Frequencies --     79.3877                85.5549               110.8339
 Red. masses --      5.4349                 4.5055                 6.5903
 Frc consts  --      0.0202                 0.0194                 0.0477
 IR Inten    --      1.5978                 0.0233                14.9620
  Atom  AN      X      Y      Z        X      Y      Z        X      Y      Z
     1   6    -0.03  -0.01  -0.05    -0.05   0.07  -0.14     0.11  -0.05   0.24
     2   6     0.00   0.00  -0.06     0.00   0.03   0.00     0.13   0.00   0.13
     3   6    -0.03  -0.01   0.05    -0.01   0.02  -0.04    -0.02  -0.01  -0.06
     4   6    -0.02  -0.03   0.11    -0.01   0.03  -0.08     0.02  -0.02   0.04
     5   6    -0.03  -0.02   0.03    -0.05   0.06  -0.17     0.06  -0.02   0.18
     6   6    -0.03   0.01   0.05     0.01   0.02   0.04    -0.02   0.01  -0.06
     7   6    -0.03   0.00   0.03    -0.01   0.01   0.03    -0.02   0.00  -0.04
     8   6    -0.03   0.00  -0.03     0.00   0.01   0.00    -0.01   0.00  -0.02
     9   6    -0.03   0.00   0.03     0.01   0.01  -0.03    -0.02   0.00  -0.04
    10   6    -0.03   0.00  -0.12     0.00   0.00   0.00    -0.01   0.00   0.06
    11   6    -0.04   0.00  -0.16     0.01   0.00   0.15     0.00  -0.01   0.12
    12   6    -0.03  -0.01  -0.06     0.01  -0.01   0.20    -0.01  -0.01   0.09
    13   6    -0.02  -0.02   0.06     0.00   0.00   0.10    -0.01  -0.01   0.01
    14   6     0.00  -0.05   0.21     0.00   0.00   0.07     0.01  -0.01   0.02
    15   6     0.00  -0.06   0.23    -0.02   0.01  -0.02     0.01  -0.02   0.04
    16   1     0.01  -0.09   0.34    -0.03   0.02  -0.05     0.01  -0.03   0.07
    17   1     0.01  -0.06   0.30     0.00  -0.01   0.13     0.01  -0.01   0.03
    18   1    -0.06  -0.03  -0.11    -0.09   0.10  -0.25     0.16  -0.11   0.38
    19   1    -0.04  -0.03   0.05    -0.06   0.09  -0.29     0.09  -0.04   0.28
    20   1    -0.04   0.01  -0.27     0.01  -0.01   0.21     0.01  -0.01   0.19
    21   1    -0.03  -0.01  -0.08     0.01  -0.03   0.32    -0.01  -0.01   0.13
    22   6    -0.03   0.01  -0.05     0.05   0.07   0.14     0.11   0.05   0.24
    23   6    -0.03   0.02   0.03     0.05   0.06   0.17     0.06   0.02   0.18
    24   6    -0.02   0.03   0.11     0.01   0.03   0.08     0.02   0.02   0.04
    25   1    -0.06   0.03  -0.11     0.09   0.10   0.25     0.16   0.11   0.38
    26   1    -0.04   0.03   0.05     0.06   0.09   0.29     0.09   0.04   0.28
    27   6     0.00   0.06   0.23     0.02   0.01   0.02     0.01   0.02   0.04
    28   6     0.00   0.05   0.21     0.00   0.00  -0.07     0.01   0.01   0.02
    29   6    -0.02   0.02   0.06     0.00   0.00  -0.10    -0.01   0.01   0.01
    30   1     0.01   0.09   0.34     0.03   0.02   0.05     0.01   0.03   0.07
    31   1     0.01   0.06   0.30     0.00  -0.01  -0.13     0.01   0.01   0.03
    32   6    -0.04   0.00  -0.16    -0.01   0.00  -0.15     0.00   0.01   0.12
    33   1    -0.04  -0.01  -0.27    -0.01  -0.01  -0.21     0.01   0.01   0.19
    34   6    -0.03   0.01  -0.06    -0.01  -0.01  -0.20    -0.01   0.01   0.09
    35   1    -0.03   0.01  -0.08    -0.01  -0.03  -0.32    -0.01   0.01   0.13
    36  78     0.03   0.00  -0.05     0.00  -0.02   0.00    -0.03   0.00  -0.10
                      4                      5                      6
                      A                      A                      A
 Frequencies --    117.2788               118.5953               184.2370
 Red. masses --      3.5799                 8.0130                 7.0821
 Frc consts  --      0.0290                 0.0664                 0.1416
 IR Inten    --      0.0086                 3.3042                 1.1034
  Atom  AN      X      Y      Z        X      Y      Z        X      Y      Z
     1   6     0.05  -0.06   0.12    -0.01   0.04  -0.09     0.08   0.10   0.12
     2   6     0.00  -0.01   0.00    -0.09   0.00  -0.05     0.00   0.12   0.00
     3   6     0.00   0.00  -0.01     0.08  -0.03  -0.12    -0.01   0.06  -0.16
     4   6     0.00   0.00  -0.02     0.09  -0.05  -0.06     0.06   0.06  -0.05
     5   6     0.04  -0.03   0.09     0.06  -0.01  -0.09     0.10   0.09   0.11
     6   6     0.00   0.00   0.01     0.08   0.03  -0.12     0.01   0.06   0.16
     7   6     0.01   0.00   0.00     0.08  -0.01  -0.12     0.00   0.09  -0.10
     8   6     0.00   0.00   0.00     0.10   0.00  -0.13     0.00   0.09   0.00
     9   6    -0.01   0.00   0.00     0.08   0.01  -0.12     0.00   0.09   0.10
    10   6     0.00  -0.01   0.00     0.10   0.00  -0.04     0.00   0.07   0.00
    11   6     0.01  -0.02   0.14     0.11  -0.01   0.05     0.02   0.06   0.01
    12   6     0.01  -0.02   0.15     0.10  -0.02   0.08     0.03   0.06   0.03
    13   6     0.00   0.00   0.01     0.09  -0.04   0.02     0.03   0.07  -0.01
    14   6    -0.02   0.03  -0.12     0.10  -0.07   0.14     0.07   0.06   0.10
    15   6    -0.02   0.04  -0.14     0.10  -0.08   0.11     0.07   0.04   0.09
    16   1    -0.04   0.06  -0.25     0.10  -0.11   0.21     0.08   0.00   0.22
    17   1    -0.03   0.05  -0.21     0.11  -0.09   0.29     0.09   0.03   0.23
    18   1     0.11  -0.08   0.28    -0.02   0.12  -0.13     0.14   0.09   0.26
    19   1     0.05  -0.06   0.19     0.10   0.02  -0.11     0.17   0.07   0.25
    20   1     0.02  -0.03   0.25     0.12  -0.01   0.10     0.02   0.05   0.03
    21   1     0.02  -0.03   0.26     0.09  -0.02   0.18     0.04   0.06   0.07
    22   6    -0.05  -0.06  -0.12    -0.01  -0.04  -0.09    -0.08   0.10  -0.12
    23   6    -0.04  -0.03  -0.09     0.06   0.01  -0.09    -0.10   0.09  -0.11
    24   6     0.00   0.00   0.02     0.09   0.05  -0.06    -0.06   0.06   0.05
    25   1    -0.11  -0.08  -0.28    -0.02  -0.12  -0.13    -0.14   0.09  -0.26
    26   1    -0.05  -0.06  -0.19     0.10  -0.02  -0.11    -0.17   0.07  -0.25
    27   6     0.02   0.04   0.14     0.10   0.08   0.11    -0.07   0.04  -0.09
    28   6     0.02   0.03   0.13     0.10   0.07   0.14    -0.07   0.06  -0.10
    29   6     0.00   0.00  -0.01     0.09   0.04   0.02    -0.03   0.07   0.01
    30   1     0.04   0.06   0.25     0.10   0.11   0.21    -0.08   0.00  -0.22
    31   1     0.03   0.05   0.21     0.11   0.09   0.29    -0.09   0.03  -0.23
    32   6    -0.01  -0.02  -0.14     0.11   0.01   0.05    -0.02   0.06  -0.01
    33   1    -0.02  -0.03  -0.25     0.12   0.01   0.10    -0.02   0.05  -0.03
    34   6    -0.01  -0.02  -0.15     0.10   0.02   0.08    -0.03   0.06  -0.03
    35   1    -0.02  -0.03  -0.26     0.09   0.02   0.18    -0.04   0.06  -0.07
    36  78     0.00   0.01   0.00    -0.11   0.00   0.02     0.00  -0.10   0.00
                      7                      8                      9
                      A                      A                      A
 Frequencies --    217.6111               224.9474               256.2774
 Red. masses --      5.1604                 6.0532                 5.2015
 Frc consts  --      0.1440                 0.1805                 0.2013
 IR Inten    --      0.3511                 0.3360                 0.0738
  Atom  AN      X      Y      Z        X      Y      Z        X      Y      Z
     1   6    -0.07   0.00  -0.08     0.04   0.01   0.05     0.07  -0.17   0.05
     2   6    -0.09   0.00  -0.12     0.04   0.00   0.07     0.00  -0.14   0.00
     3   6     0.03  -0.08   0.10     0.02  -0.07   0.07     0.04   0.05  -0.16
     4   6     0.03  -0.10   0.14     0.03  -0.01  -0.05    -0.02   0.02  -0.19
     5   6     0.02  -0.07   0.11     0.02   0.02  -0.07     0.02  -0.11  -0.12
     6   6     0.03   0.08   0.10     0.02   0.07   0.07    -0.04   0.05   0.16
     7   6     0.04  -0.03   0.06     0.03  -0.03   0.25     0.04   0.03  -0.06
     8   6     0.08   0.00   0.12     0.07   0.00   0.25     0.00   0.01   0.00
     9   6     0.04   0.03   0.06     0.03   0.03   0.25    -0.04   0.03   0.06
    10   6     0.08   0.00   0.16     0.06   0.00   0.02     0.00  -0.01   0.00
    11   6     0.06   0.01   0.07     0.04   0.01  -0.15     0.01  -0.02  -0.07
    12   6     0.02   0.03  -0.13     0.04  -0.01  -0.01     0.04  -0.01  -0.01
    13   6     0.02   0.00  -0.09     0.04  -0.03   0.17     0.05   0.01   0.04
    14   6    -0.01  -0.01  -0.13     0.03   0.00   0.03     0.02  -0.02   0.14
    15   6     0.02  -0.08   0.06     0.01   0.01  -0.12     0.00   0.01  -0.05
    16   1     0.02  -0.09   0.10    -0.03   0.05  -0.28    -0.02   0.00  -0.04
    17   1    -0.05   0.04  -0.29     0.02   0.01  -0.01     0.04  -0.05   0.35
    18   1    -0.11   0.02  -0.18     0.06   0.02   0.09     0.15  -0.17   0.27
    19   1     0.07  -0.08   0.21     0.01   0.05  -0.16    -0.04  -0.14  -0.11
    20   1     0.06   0.03   0.13     0.03   0.05  -0.40     0.01  -0.03  -0.16
    21   1    -0.01   0.06  -0.30     0.02   0.01  -0.11     0.06  -0.02  -0.01
    22   6    -0.07   0.00  -0.08     0.04  -0.01   0.05    -0.07  -0.17  -0.05
    23   6     0.02   0.07   0.11     0.02  -0.02  -0.07    -0.02  -0.11   0.12
    24   6     0.03   0.10   0.14     0.03   0.01  -0.05     0.02   0.02   0.19
    25   1    -0.11  -0.02  -0.18     0.06  -0.02   0.09    -0.15  -0.17  -0.27
    26   1     0.07   0.08   0.21     0.01  -0.05  -0.16     0.04  -0.14   0.11
    27   6     0.02   0.08   0.06     0.01  -0.01  -0.12     0.00   0.01   0.05
    28   6    -0.01   0.01  -0.13     0.03   0.00   0.03    -0.02  -0.02  -0.14
    29   6     0.02   0.00  -0.09     0.04   0.03   0.17    -0.05   0.01  -0.04
    30   1     0.02   0.09   0.10    -0.03  -0.05  -0.28     0.02   0.00   0.04
    31   1    -0.05  -0.04  -0.29     0.02  -0.01  -0.01    -0.04  -0.05  -0.35
    32   6     0.06  -0.01   0.07     0.04  -0.01  -0.15    -0.01  -0.02   0.07
    33   1     0.06  -0.03   0.13     0.03  -0.05  -0.40    -0.01  -0.03   0.16
    34   6     0.02  -0.03  -0.13     0.04   0.01  -0.01    -0.04  -0.01   0.01
    35   1    -0.01  -0.06  -0.30     0.02  -0.01  -0.11    -0.06  -0.02   0.01
    36  78    -0.02   0.00  -0.02    -0.05   0.00  -0.03     0.00   0.04   0.00
                     10                     11                     12
                      A                      A                      A
 Frequencies --    264.1988               268.5722               313.4848
 Red. masses --      3.8035                 4.2383                 6.5029
 Frc consts  --      0.1564                 0.1801                 0.3765
 IR Inten    --      0.0268                 0.8990                 0.0576
  Atom  AN      X      Y      Z        X      Y      Z        X      Y      Z
     1   6     0.06   0.02   0.03     0.02   0.06   0.10    -0.06   0.05   0.10
     2   6     0.08   0.00   0.10     0.00   0.10   0.00     0.00   0.11   0.00
     3   6    -0.01   0.04  -0.05    -0.03  -0.02   0.06    -0.10   0.08  -0.13
     4   6     0.01   0.06  -0.06    -0.04   0.04  -0.05    -0.13   0.05  -0.07
     5   6     0.00   0.06  -0.11    -0.01   0.09   0.02    -0.10   0.09   0.02
     6   6    -0.01  -0.04  -0.05     0.03  -0.02  -0.06     0.10   0.08   0.13
     7   6    -0.01   0.01   0.01    -0.03  -0.05   0.14    -0.09  -0.08  -0.14
     8   6    -0.02   0.00   0.11     0.00  -0.03   0.00     0.00  -0.06   0.00
     9   6    -0.01  -0.01   0.01     0.03  -0.05  -0.14     0.09  -0.08   0.14
    10   6    -0.02   0.00   0.20     0.00  -0.02   0.00     0.00  -0.10   0.00
    11   6    -0.02   0.00   0.08    -0.04   0.01  -0.13    -0.06  -0.09   0.07
    12   6    -0.02   0.04  -0.18    -0.05  -0.02   0.00    -0.12  -0.10  -0.03
    13   6    -0.01   0.03  -0.07    -0.04  -0.06   0.17    -0.12  -0.08  -0.13
    14   6     0.02   0.02   0.06    -0.02  -0.02   0.08    -0.09  -0.09   0.02
    15   6     0.03   0.02   0.09    -0.05   0.05  -0.12    -0.07  -0.01   0.07
    16   1     0.06  -0.01   0.23    -0.07   0.11  -0.33     0.00  -0.03   0.25
    17   1     0.05  -0.01   0.16     0.01  -0.04   0.11    -0.03  -0.14   0.14
    18   1     0.06   0.02   0.05     0.07   0.02   0.25    -0.01  -0.03   0.23
    19   1    -0.06   0.09  -0.26     0.01   0.09   0.03    -0.08   0.08   0.06
    20   1    -0.02  -0.01   0.11    -0.05   0.05  -0.35    -0.04  -0.04   0.23
    21   1    -0.03   0.06  -0.43    -0.07   0.00  -0.08    -0.13  -0.10   0.01
    22   6     0.06  -0.02   0.03    -0.02   0.06  -0.10     0.06   0.05  -0.10
    23   6     0.00  -0.06  -0.11     0.01   0.09  -0.02     0.10   0.09  -0.02
    24   6     0.01  -0.06  -0.06     0.04   0.04   0.05     0.13   0.05   0.07
    25   1     0.06  -0.02   0.05    -0.07   0.02  -0.25     0.01  -0.03  -0.23
    26   1    -0.06  -0.09  -0.26    -0.01   0.09  -0.03     0.08   0.08  -0.06
    27   6     0.03  -0.02   0.09     0.05   0.05   0.12     0.07  -0.01  -0.07
    28   6     0.02  -0.02   0.06     0.02  -0.02  -0.08     0.09  -0.09  -0.02
    29   6    -0.01  -0.03  -0.07     0.04  -0.06  -0.17     0.12  -0.08   0.13
    30   1     0.06   0.01   0.23     0.07   0.11   0.33     0.00  -0.03  -0.25
    31   1     0.05   0.01   0.16    -0.01  -0.04  -0.11     0.03  -0.14  -0.14
    32   6    -0.02   0.00   0.08     0.04   0.01   0.13     0.06  -0.09  -0.07
    33   1    -0.02   0.01   0.11     0.05   0.05   0.35     0.04  -0.04  -0.23
    34   6    -0.02  -0.04  -0.18     0.05  -0.02   0.00     0.12  -0.10   0.03
    35   1    -0.03  -0.06  -0.43     0.07   0.00   0.08     0.13  -0.10  -0.01
    36  78    -0.01   0.00   0.00     0.00  -0.01   0.00     0.00   0.03   0.00
                     13                     14                     15
                      A                      A                      A
 Frequencies --    332.5076               344.5369               385.1899
 Red. masses --      5.8188                 3.2226                 3.1968
 Frc consts  --      0.3790                 0.2254                 0.2795
 IR Inten    --      1.9188                 6.6504                 0.8509
  Atom  AN      X      Y      Z        X      Y      Z        X      Y      Z
     1   6    -0.08  -0.06   0.13     0.02   0.03   0.00     0.09  -0.01   0.08
     2   6     0.05   0.00   0.16     0.11   0.00   0.17     0.00   0.01   0.00
     3   6     0.05  -0.09   0.00    -0.03  -0.03   0.11     0.02  -0.08   0.09
     4   6    -0.09  -0.15  -0.05     0.03  -0.01   0.12     0.04  -0.02  -0.03
     5   6    -0.10  -0.06  -0.09    -0.03   0.07  -0.11     0.05   0.04  -0.13
     6   6     0.05   0.09   0.00    -0.03   0.03   0.11    -0.02  -0.08  -0.09
     7   6     0.06  -0.05  -0.05    -0.02  -0.02   0.01     0.01  -0.06   0.06
     8   6     0.13   0.00  -0.07    -0.02   0.00  -0.05     0.00  -0.04   0.00
     9   6     0.06   0.05  -0.05    -0.02   0.02   0.01    -0.01  -0.06  -0.06
    10   6     0.14   0.00  -0.01    -0.02   0.00  -0.09     0.00   0.05   0.00
    11   6     0.08   0.04   0.02     0.00  -0.02   0.01    -0.02   0.05   0.12
    12   6     0.00   0.02  -0.04     0.00  -0.03   0.07    -0.05   0.07  -0.08
    13   6     0.00  -0.02  -0.03     0.00  -0.02  -0.04    -0.03  -0.02  -0.04
    14   6    -0.12  -0.10   0.03     0.02   0.00  -0.10     0.01  -0.01   0.02
    15   6    -0.13  -0.15  -0.03     0.05  -0.01   0.07     0.03  -0.01   0.04
    16   1    -0.16  -0.16  -0.04     0.08  -0.02   0.13     0.02  -0.04   0.10
    17   1    -0.18  -0.08   0.13     0.02   0.02  -0.26     0.04  -0.03   0.06
    18   1    -0.05  -0.09   0.20    -0.04   0.06  -0.17     0.18   0.00   0.30
    19   1    -0.10   0.02  -0.29    -0.13   0.13  -0.43     0.00   0.08  -0.31
    20   1     0.08   0.11   0.08     0.01  -0.03   0.08    -0.01   0.06   0.32
    21   1    -0.04   0.05  -0.07     0.01  -0.05   0.21    -0.08   0.10  -0.18
    22   6    -0.08   0.06   0.13     0.02  -0.03   0.00    -0.09  -0.01  -0.08
    23   6    -0.10   0.06  -0.09    -0.03  -0.07  -0.11    -0.05   0.04   0.13
    24   6    -0.09   0.15  -0.05     0.03   0.01   0.12    -0.04  -0.02   0.03
    25   1    -0.05   0.09   0.20    -0.04  -0.06  -0.17    -0.18   0.00  -0.30
    26   1    -0.10  -0.02  -0.29    -0.13  -0.13  -0.43     0.00   0.08   0.31
    27   6    -0.13   0.15  -0.03     0.05   0.01   0.07    -0.03  -0.01  -0.04
    28   6    -0.12   0.10   0.03     0.02   0.00  -0.10    -0.01  -0.01  -0.02
    29   6     0.00   0.02  -0.03     0.00   0.02  -0.04     0.03  -0.02   0.04
    30   1    -0.16   0.16  -0.04     0.08   0.02   0.13    -0.02  -0.04  -0.10
    31   1    -0.18   0.08   0.13     0.02  -0.02  -0.26    -0.04  -0.03  -0.06
    32   6     0.08  -0.04   0.02     0.00   0.02   0.01     0.02   0.05  -0.12
    33   1     0.08  -0.11   0.08     0.01   0.03   0.08     0.01   0.06  -0.32
    34   6     0.00  -0.02  -0.04     0.00   0.03   0.07     0.05   0.07   0.08
    35   1    -0.04  -0.05  -0.07     0.01   0.05   0.21     0.08   0.10   0.18
    36  78     0.03   0.00   0.01    -0.01   0.00  -0.01     0.00   0.00   0.00
                     16                     17                     18
                      A                      A                      A
 Frequencies --    410.1003               415.5087               425.7750
 Red. masses --      4.9683                 6.0349                 4.7783
 Frc consts  --      0.4923                 0.6139                 0.5104
 IR Inten    --      1.7727                 2.9755                 1.7973
  Atom  AN      X      Y      Z        X      Y      Z        X      Y      Z
     1   6     0.06   0.00  -0.02     0.06  -0.10  -0.01     0.13  -0.04  -0.08
     2   6     0.05   0.00   0.01     0.00  -0.12   0.00     0.00  -0.09   0.00
     3   6     0.10  -0.01  -0.08    -0.09   0.10   0.09    -0.01   0.02  -0.05
     4   6     0.08  -0.05  -0.01    -0.03   0.16   0.06     0.10   0.06   0.02
     5   6     0.08  -0.04  -0.03    -0.05   0.00  -0.03     0.12  -0.02  -0.03
     6   6     0.10   0.01  -0.08     0.09   0.10  -0.09     0.01   0.02   0.05
     7   6     0.09   0.04   0.01    -0.06   0.09   0.10    -0.04  -0.09  -0.03
     8   6     0.07   0.00   0.05     0.00   0.10   0.00     0.00  -0.08   0.00
     9   6     0.09  -0.04   0.01     0.06   0.09  -0.10     0.04  -0.09   0.03
    10   6     0.06   0.00  -0.03     0.00  -0.12   0.00     0.00  -0.01   0.00
    11   6    -0.07   0.10  -0.05     0.00  -0.15   0.06    -0.11   0.04  -0.09
    12   6    -0.06   0.11   0.07    -0.02  -0.12  -0.09    -0.14  -0.01   0.11
    13   6    -0.06   0.15   0.02    -0.01   0.07   0.02    -0.12  -0.06   0.01
    14   6    -0.11   0.16  -0.05     0.03   0.13   0.01     0.00   0.04  -0.07
    15   6    -0.08   0.03   0.11     0.02   0.17   0.05     0.05   0.09   0.08
    16   1    -0.17  -0.08   0.27     0.05   0.18   0.05     0.06   0.06   0.19
    17   1    -0.18   0.21  -0.17     0.07   0.11  -0.04     0.09   0.01  -0.22
    18   1     0.04   0.03  -0.05     0.06  -0.13   0.02     0.11   0.04  -0.12
    19   1     0.09  -0.02  -0.07    -0.21  -0.06  -0.10     0.06  -0.06  -0.01
    20   1    -0.07   0.17  -0.14     0.00  -0.15   0.17    -0.12   0.14  -0.26
    21   1    -0.02   0.08   0.16     0.06  -0.15  -0.25    -0.17  -0.01   0.26
    22   6     0.06   0.00  -0.02    -0.06  -0.10   0.01    -0.13  -0.04   0.08
    23   6     0.08   0.04  -0.03     0.05   0.00   0.03    -0.12  -0.02   0.03
    24   6     0.08   0.05  -0.01     0.03   0.16  -0.06    -0.10   0.06  -0.02
    25   1     0.04  -0.03  -0.05    -0.06  -0.13  -0.02    -0.11   0.04   0.12
    26   1     0.09   0.02  -0.07     0.21  -0.06   0.10    -0.06  -0.06   0.01
    27   6    -0.08  -0.03   0.11    -0.02   0.17  -0.05    -0.05   0.09  -0.08
    28   6    -0.11  -0.16  -0.05    -0.03   0.13  -0.01     0.00   0.04   0.07
    29   6    -0.06  -0.15   0.02     0.01   0.07  -0.02     0.12  -0.06  -0.01
    30   1    -0.17   0.08   0.27    -0.05   0.18  -0.05    -0.06   0.06  -0.19
    31   1    -0.18  -0.21  -0.17    -0.07   0.11   0.04    -0.09   0.01   0.22
    32   6    -0.07  -0.10  -0.05     0.00  -0.15  -0.06     0.11   0.04   0.09
    33   1    -0.07  -0.17  -0.14     0.00  -0.15  -0.17     0.12   0.14   0.26
    34   6    -0.06  -0.11   0.07     0.02  -0.12   0.09     0.14  -0.01  -0.11
    35   1    -0.02  -0.08   0.16    -0.06  -0.15   0.25     0.17  -0.01  -0.26
    36  78    -0.01   0.00   0.00     0.00  -0.03   0.00     0.00   0.01   0.00
                     19                     20                     21
                      A                      A                      A
 Frequencies --    441.1133               441.7121               474.8650
 Red. masses --      2.4915                 3.6878                 5.5625
 Frc consts  --      0.2856                 0.4239                 0.7390
 IR Inten    --      0.3379                 0.6054                 1.3319
  Atom  AN      X      Y      Z        X      Y      Z        X      Y      Z
     1   6     0.00  -0.01   0.10    -0.05  -0.02   0.04     0.00  -0.07   0.00
     2   6     0.00   0.03   0.00    -0.05   0.00  -0.02     0.00  -0.08   0.00
     3   6     0.00   0.00   0.02    -0.03   0.07  -0.13    -0.11   0.07   0.05
     4   6    -0.03  -0.02   0.02    -0.07   0.02  -0.08    -0.06   0.12   0.04
     5   6    -0.06   0.04  -0.09    -0.07  -0.01  -0.01    -0.09   0.01   0.01
     6   6     0.00   0.00  -0.02    -0.03  -0.07  -0.13     0.11   0.07  -0.05
     7   6     0.01   0.03   0.01    -0.01   0.01   0.04    -0.11  -0.06  -0.02
     8   6     0.00   0.03   0.00    -0.03   0.00   0.18     0.00   0.00   0.00
     9   6    -0.01   0.03  -0.01    -0.01  -0.01   0.04     0.11  -0.06   0.02
    10   6     0.00   0.00   0.00    -0.02   0.00   0.05     0.00   0.17   0.00
    11   6     0.02  -0.01  -0.09     0.04  -0.04  -0.07     0.13   0.13  -0.01
    12   6     0.05  -0.02   0.08     0.06  -0.05   0.07     0.06   0.06   0.03
    13   6     0.04   0.02   0.00     0.05  -0.03  -0.03     0.03  -0.15  -0.04
    14   6    -0.02   0.02  -0.09     0.00  -0.03  -0.12     0.13  -0.14  -0.02
    15   6     0.00  -0.05   0.08     0.03  -0.07   0.10     0.12   0.02  -0.04
    16   1     0.03  -0.08   0.22     0.12  -0.12   0.39     0.27   0.11  -0.08
    17   1    -0.07   0.07  -0.24    -0.03   0.00  -0.24     0.22  -0.19   0.01
    18   1     0.06  -0.05   0.27     0.00  -0.06   0.17    -0.01  -0.12  -0.01
    19   1    -0.11   0.09  -0.30    -0.05  -0.03   0.06    -0.20  -0.03  -0.02
    20   1     0.01  -0.02  -0.24     0.02  -0.07  -0.24     0.12   0.09  -0.01
    21   1     0.08  -0.05   0.22     0.08  -0.07   0.18    -0.08   0.13   0.11
    22   6     0.00  -0.01  -0.10    -0.05   0.02   0.04     0.00  -0.07   0.00
    23   6     0.06   0.04   0.09    -0.07   0.01  -0.01     0.09   0.01  -0.01
    24   6     0.03  -0.02  -0.02    -0.07  -0.02  -0.08     0.06   0.12  -0.04
    25   1    -0.06  -0.05  -0.27     0.00   0.06   0.17     0.01  -0.12   0.01
    26   1     0.11   0.09   0.30    -0.05   0.03   0.06     0.20  -0.03   0.02
    27   6     0.00  -0.05  -0.08     0.03   0.07   0.10    -0.12   0.02   0.04
    28   6     0.02   0.02   0.09     0.00   0.03  -0.12    -0.13  -0.14   0.02
    29   6    -0.04   0.02   0.00     0.05   0.03  -0.03    -0.03  -0.15   0.04
    30   1    -0.03  -0.08  -0.22     0.12   0.12   0.39    -0.27   0.11   0.08
    31   1     0.07   0.07   0.24    -0.03   0.00  -0.24    -0.22  -0.19  -0.01
    32   6    -0.02  -0.01   0.09     0.04   0.04  -0.07    -0.13   0.13   0.01
    33   1    -0.01  -0.02   0.24     0.02   0.07  -0.24    -0.12   0.09   0.01
    34   6    -0.05  -0.02  -0.08     0.06   0.05   0.07    -0.06   0.06  -0.03
    35   1    -0.08  -0.05  -0.22     0.08   0.07   0.18     0.08   0.13  -0.11
    36  78     0.00   0.00   0.00     0.01   0.00   0.01     0.00   0.00   0.00
                     22                     23                     24
                      A                      A                      A
 Frequencies --    500.3341               508.1865               516.9478
 Red. masses --      3.1919                 3.6652                 4.8071
 Frc consts  --      0.4708                 0.5577                 0.7569
 IR Inten    --      3.4419                 0.0055                 0.3153
  Atom  AN      X      Y      Z        X      Y      Z        X      Y      Z
     1   6    -0.08   0.03  -0.06    -0.03   0.00  -0.01     0.05   0.05  -0.08
     2   6     0.14   0.00   0.23     0.00   0.01   0.00     0.08   0.00   0.07
     3   6     0.01   0.05  -0.10     0.01   0.06  -0.15    -0.05   0.03  -0.07
     4   6    -0.02  -0.03   0.07    -0.03   0.02  -0.10     0.00   0.05  -0.01
     5   6    -0.03  -0.01   0.09     0.00  -0.02   0.02     0.04   0.06   0.06
     6   6     0.01  -0.05  -0.10    -0.01   0.06   0.15    -0.05  -0.03  -0.07
     7   6     0.02   0.05  -0.05     0.01  -0.04   0.18    -0.05  -0.12  -0.03
     8   6    -0.03   0.00   0.02     0.00  -0.03   0.00     0.15   0.00   0.03
     9   6     0.02  -0.05  -0.05    -0.01  -0.04  -0.18    -0.05   0.12  -0.03
    10   6    -0.04   0.00   0.10     0.00   0.03   0.00     0.20   0.00   0.06
    11   6     0.00  -0.02  -0.02     0.02   0.02   0.06     0.08   0.07  -0.03
    12   6     0.06   0.02   0.00     0.02   0.03  -0.05    -0.14  -0.05   0.02
    13   6     0.06   0.04   0.05     0.03  -0.04   0.13    -0.12  -0.14   0.02
    14   6     0.00   0.01   0.02    -0.01  -0.01  -0.10    -0.04  -0.08  -0.03
    15   6    -0.02  -0.01  -0.05     0.02  -0.04   0.08    -0.02   0.05   0.02
    16   1    -0.04   0.02  -0.17     0.07  -0.08   0.27     0.04   0.06   0.07
    17   1    -0.04   0.04   0.03    -0.04   0.05  -0.36     0.06  -0.14  -0.09
    18   1    -0.25   0.07  -0.50    -0.03  -0.01   0.00    -0.03   0.07  -0.28
    19   1    -0.03   0.02   0.03     0.05  -0.06   0.21     0.04   0.03   0.16
    20   1    -0.01  -0.06  -0.17     0.02   0.01   0.06     0.07   0.27  -0.15
    21   1     0.10   0.00  -0.08    -0.03   0.08  -0.32    -0.28   0.04   0.01
    22   6    -0.08  -0.03  -0.06     0.03   0.00   0.01     0.05  -0.05  -0.08
    23   6    -0.03   0.01   0.09     0.00  -0.02  -0.02     0.04  -0.06   0.06
    24   6    -0.02   0.03   0.07     0.03   0.02   0.10     0.00  -0.05  -0.01
    25   1    -0.25  -0.07  -0.50     0.03  -0.01   0.00    -0.03  -0.07  -0.28
    26   1    -0.03  -0.02   0.03    -0.05  -0.06  -0.21     0.04  -0.03   0.16
    27   6    -0.02   0.01  -0.05    -0.02  -0.04  -0.08    -0.02  -0.05   0.02
    28   6     0.00  -0.01   0.02     0.01  -0.01   0.10    -0.04   0.08  -0.03
    29   6     0.06  -0.04   0.05    -0.03  -0.04  -0.13    -0.12   0.14   0.02
    30   1    -0.04  -0.02  -0.17    -0.07  -0.08  -0.27     0.04  -0.06   0.07
    31   1    -0.04  -0.04   0.03     0.04   0.05   0.36     0.06   0.14  -0.09
    32   6     0.00   0.02  -0.02    -0.02   0.02  -0.06     0.08  -0.07  -0.03
    33   1    -0.01   0.06  -0.17    -0.02   0.01  -0.06     0.07  -0.27  -0.15
    34   6     0.06  -0.02   0.00    -0.02   0.03   0.05    -0.14   0.05   0.02
    35   1     0.10   0.00  -0.08     0.03   0.08   0.32    -0.28  -0.04   0.01
    36  78     0.00   0.00   0.00     0.00   0.00   0.00     0.00   0.00   0.01
                     25                     26                     27
                      A                      A                      A
 Frequencies --    532.3935               580.8075               585.4601
 Red. masses --      7.0795                 3.3652                 3.0317
 Frc consts  --      1.1823                 0.6688                 0.6123
 IR Inten    --      3.6747                 0.8507                56.1393
  Atom  AN      X      Y      Z        X      Y      Z        X      Y      Z
     1   6    -0.08   0.01   0.04    -0.01   0.00   0.03     0.00  -0.02   0.05
     2   6    -0.07   0.00  -0.02    -0.07   0.00  -0.04    -0.07   0.00  -0.09
     3   6    -0.03   0.13   0.07    -0.01  -0.02   0.08     0.00   0.04  -0.04
     4   6    -0.10   0.17   0.05     0.02  -0.01   0.07     0.02   0.00   0.10
     5   6    -0.15   0.08   0.04    -0.01   0.01  -0.02    -0.02  -0.01  -0.05
     6   6    -0.03  -0.13   0.07    -0.01   0.02   0.08     0.00  -0.04  -0.04
     7   6     0.05   0.05   0.02     0.00   0.01  -0.14     0.00   0.00  -0.08
     8   6     0.16   0.00  -0.05     0.02   0.00   0.12     0.00   0.00  -0.15
     9   6     0.05  -0.05   0.02     0.00  -0.01  -0.14     0.00   0.00  -0.08
    10   6     0.22   0.00  -0.12     0.03   0.00   0.21     0.01   0.00   0.15
    11   6     0.18   0.07   0.01    -0.01   0.04  -0.08     0.01   0.01   0.00
    12   6     0.10   0.06  -0.02    -0.01   0.02   0.09     0.00   0.00  -0.01
    13   6     0.06   0.10  -0.03    -0.02   0.02  -0.14     0.01  -0.04   0.18
    14   6    -0.02   0.09   0.02     0.03   0.00   0.04     0.00   0.01  -0.04
    15   6    -0.04   0.18   0.05     0.02   0.02  -0.04     0.01   0.02   0.03
    16   1     0.03   0.21   0.06     0.01   0.04  -0.11    -0.01   0.06  -0.12
    17   1    -0.01   0.09   0.05     0.08  -0.06   0.27    -0.02   0.07  -0.36
    18   1    -0.06  -0.06   0.11     0.02   0.01   0.11     0.07  -0.04   0.22
    19   1    -0.23   0.04   0.05    -0.04   0.03  -0.15    -0.08   0.02  -0.21
    20   1     0.19   0.14   0.17    -0.03   0.08  -0.41    -0.01   0.02  -0.25
    21   1     0.09   0.06   0.04     0.00   0.01   0.28    -0.03   0.04  -0.30
    22   6    -0.08  -0.01   0.04    -0.01   0.00   0.03     0.00   0.02   0.05
    23   6    -0.15  -0.08   0.04    -0.01  -0.01  -0.02    -0.02   0.01  -0.05
    24   6    -0.10  -0.17   0.05     0.02   0.01   0.07     0.02   0.00   0.10
    25   1    -0.06   0.06   0.11     0.02  -0.01   0.11     0.07   0.04   0.22
    26   1    -0.23  -0.04   0.05    -0.04  -0.03  -0.15    -0.08  -0.02  -0.21
    27   6    -0.04  -0.18   0.05     0.02  -0.02  -0.04     0.01  -0.02   0.03
    28   6    -0.02  -0.09   0.02     0.03   0.00   0.04     0.00  -0.01  -0.04
    29   6     0.06  -0.10  -0.03    -0.02  -0.02  -0.14     0.01   0.04   0.18
    30   1     0.03  -0.21   0.06     0.01  -0.04  -0.11    -0.01  -0.06  -0.12
    31   1    -0.01  -0.09   0.05     0.08   0.06   0.27    -0.02  -0.07  -0.36
    32   6     0.18  -0.07   0.01    -0.01  -0.04  -0.08     0.01  -0.01   0.00
    33   1     0.19  -0.14   0.17    -0.03  -0.08  -0.41    -0.01  -0.02  -0.25
    34   6     0.10  -0.06  -0.02    -0.01  -0.02   0.09     0.00   0.00  -0.01
    35   1     0.09  -0.06   0.04     0.00  -0.01   0.28    -0.03  -0.04  -0.30
    36  78    -0.01   0.00  -0.02     0.00   0.00   0.00     0.00   0.00   0.00
[...]
 0.00000858,0.00000275,0.00000207,0.00000485,0.00005212,-0.00038774,-0.
 00023580,-0.00037132,0.00011297,0.00017553,0.00185990,0.00155530,0.005
 72422,-0.00001759,-0.00002299,-0.00000849,0.00001425,-0.00000085,0.000
 08928,0.00244625,-0.00194093,0.00526652,-0.01136791,0.01659524,-0.0418
 0207,-0.00092617,0.00944826,0.00449929,-0.00011715,-0.00065519,-0.0017
 8523,0.00823487,-0.02646071,0.02658677,-0.00002460,0.00085582,0.000070
 74,-0.00017571,-0.00143362,0.00107183,0.00058348,0.00004060,0.00029197
 ,0.00021806,0.00113239,0.00026237,-0.00048651,-0.00034636,0.00013613,-
 0.00010895,0.00066951,0.00040639,-0.00433965,0.00070991,-0.00033565,-0
 .03905972,0.02645030,0.00107370,-0.00610090,0.00227775,-0.00008441,-0.
 13125132,0.12446343,-0.00345355,0.00820012,-0.00066973,-0.00013463,0.0
 0212014,-0.00320559,-0.00046354,-0.00230167,0.00048858,0.00043780,0.00
 150422,-0.00064153,-0.00029812,-0.00121062,-0.00090841,-0.00009516,-0.
 00002943,0.00008228,0.00002937,-0.00004171,-0.00003700,0.00000501,0.00
 001501,-0.00000086,-0.00004932,-0.00000481,-0.00001624,0.00000528,0.00
 003980,-0.00125239,-0.00002540,0.00011012,-0.00022016,-0.00013824,-0.0
 0045130,0.00155418,-0.00022686,0.00157610,-0.00056748,-0.00034188,-0.0
 0178794,-0.00012997,0.00030194,0.00011658,0.00002183,-0.00005029,-0.00
 000108,-0.00000303,0.00002765,0.00038611,-0.00055895,0.00014528,-0.003
 34767,0.00006994,0.00046223,-0.03869540,-0.03188391,0.00658474,-0.0001
 5860,-0.00002226,0.00001375,-0.00013362,0.00030733,-0.00005484,0.58894
 219,-0.00109066,-0.00810068,-0.00100778,0.00256116,0.01184727,-0.00320
 997,-0.00813252,0.00278875,0.00093412,-0.00644332,-0.00967883,-0.00097
 871,0.00650757,0.00353915,-0.00144939,0.02196245,0.00286104,-0.0003081
 7,0.01043233,-0.01322274,0.00064724,0.06945283,0.03819430,-0.00522031,
 -0.02406128,-0.05324436,0.00440940,0.07202742,-0.19360015,0.00433967,0
 .00066956,-0.08716581,-0.00173482,-0.02774262,0.01411539,0.00296655,0.
 02369409,-0.00536832,-0.00398822,-0.01329395,0.00839225,0.00323635,0.0
 1242921,0.00695224,0.00022168,0.00003263,-0.00017997,-0.00026958,-0.00
 000183,-0.00006749,-0.00006811,0.00024418,-0.00004061,0.00033583,-0.00
 002519,0.00004669,0.00003587,-0.00095172,-0.00141961,0.00038162,0.0002
 1917,-0.00049682,0.00009787,0.00214478,-0.01388761,0.00245044,-0.01347
 038,0.00646220,0.00299340,0.01572039,-0.01974071,0.00100285,-0.0004590
 8,-0.00017737,-0.00055213,-0.00003262,-0.00000451,-0.00011292,-0.02802
 263,0.01448612,0.00003527,0.03089174,0.02062148,-0.00772592,-0.1084188
 3,-0.00982082,0.01267448,0.00012045,-0.00010838,0.00043004,-0.00002540
 ,-0.00018997,0.00012108,0.05629310,0.67820370,0.00009816,0.00047314,0.
 00006696,-0.00025179,-0.00076562,0.00008868,0.00008396,-0.00003316,-0.
 00015741,0.00036405,0.00036654,-0.00023270,-0.00038477,-0.00020504,0.0
 0012495,-0.00170758,-0.00031280,-0.00002096,0.00020815,0.00029242,0.00
 523594,-0.00389331,-0.00319920,0.00427990,0.00175087,0.00417019,-0.001
 73844,0.00153136,-0.00063870,-0.06404575,-0.00013459,0.00173452,0.0035
 7225,0.00133314,-0.00099290,0.00309909,-0.00109156,0.00006538,0.000177
 80,0.00046130,-0.00020899,-0.00065582,-0.00046939,-0.00020620,-0.00001
 690,0.00001892,-0.00002607,0.00008062,0.00000031,0.00001022,0.00001698
 ,-0.00002095,0.00000244,-0.00001730,0.00000218,-0.00000293,-0.00002412
 ,-0.00005475,0.00012318,-0.00081423,-0.00000749,0.00007967,-0.00007006
 ,-0.00011137,0.00095269,-0.00016945,0.00090799,-0.00048302,-0.00022351
 ,-0.00106959,0.00164337,-0.00002742,0.00002423,0.00001271,0.00005529,0
 .00000639,0.00000757,0.00000446,0.00223483,-0.00118622,0.00009118,-0.0
 0207995,-0.00100842,0.00371673,0.01331160,0.00327809,0.00336249,-0.000
 05117,-0.00005002,-0.00034747,-0.00000298,-0.00000908,-0.00006226,-0.0
 3802407,-0.04891141,0.15142418,0.00006156,-0.00032866,-0.00003113,0.00
 008259,0.00060203,-0.00037431,-0.00000947,0.00001014,-0.00015486,-0.00
 008017,-0.00010444,-0.00001707,0.00011855,0.00010911,-0.00002874,-0.00
 057139,-0.00040924,-0.00006998,-0.00019976,-0.00005692,-0.00000546,-0.
 00030966,0.00138671,0.00013415,0.00080574,-0.00041896,0.00012831,-0.02
 544015,0.01426464,0.00105955,0.00003980,0.00095172,-0.00005475,-0.0001
 3083,-0.00035292,-0.00004957,-0.00011435,-0.00001493,0.00000438,-0.000
 05740,-0.00007504,-0.00000119,0.00005843,0.00004928,0.00001833,-0.0000
 1072,0.00002609,0.00000796,0.00003265,0.00005418,0.00000551,-0.0000391
 3,0.00000655,0.00001987,-0.00001905,0.00003316,0.00000853,0.00039232,0
 .00013759,-0.00000801,0.00010743,0.00004614,0.00000567,0.00025860,-0.0
 0068630,0.00007773,-0.00079517,0.00029854,0.00014885,0.00098657,0.0002
 6262,-0.00018635,-0.00008453,-0.00001447,0.00003723,-0.00001634,-0.000
 02871,-0.00000058,-0.00030092,0.00002368,0.00002004,0.00019718,0.00033
 639,-0.00008204,-0.00139507,-0.00116885,0.00065215,-0.00000641,-0.0000
 3527,0.00001265,0.00003829,-0.00010077,0.00001076,-0.21955029,-0.00364
 051,0.01009047,0.27168746,-0.00001163,0.00000068,-0.00000110,-0.000010
 35,-0.00001646,0.00003832,0.00005687,-0.00012754,0.00000355,0.00000569
 ,0.00002928,0.00000585,0.00001989,-0.00000587,-0.00000854,-0.00003211,
 -0.00000333,-0.00003814,0.00049093,-0.00002362,-0.00000068,0.00074853,
 -0.00242326,0.00021020,0.00007195,0.00001038,-0.00000322,0.02814174,-0
 .00674115,-0.00071003,0.00125239,-0.00141961,-0.00012318,-0.00009422,0
 .00003232,0.00000747,0.00008727,0.00009715,0.00001551,-0.00002235,-0.0
 0001526,-0.00000495,-0.00000492,-0.00000710,-0.00000284,-0.00000001,-0
 .00000032,0.00000103,0.00000924,-0.00000443,-0.00000029,0.00000534,-0.
 00000092,-0.00000235,0.00000280,-0.00000090,-0.00000061,-0.00013759,-0
 .00086051,0.00000990,-0.00000136,-0.00001257,0.00001237,-0.00002014,0.
 00003870,-0.00000938,0.00005614,-0.00001472,-0.00000594,-0.00005500,0.
 00003747,-0.00000480,0.00000722,0.00000227,-0.00000187,0.00000212,0.00
 000315,-0.00000018,0.00003318,-0.00014197,-0.00000047,-0.00057102,-0.0
 0005084,0.00004375,-0.00087518,-0.00220510,0.00100781,-0.00001823,0.00
 001615,0.00000585,-0.00002905,0.00005835,0.00000052,-0.00307870,-0.033
 24019,-0.00065534,0.00443772,0.05517366,-0.00003592,-0.00006397,-0.000
 01853,-0.00000745,0.00006820,0.00007792,-0.00006692,0.00002950,0.00008
 461,-0.00005846,-0.00005380,0.00002245,0.00005724,0.00003153,-0.000030
 26,0.00004993,-0.00014187,-0.00059486,0.00004569,-0.00011210,-0.000430
 18,0.00034776,0.00045803,0.00316911,-0.00017409,-0.00050813,0.00004674
 ,-0.00058348,0.00082774,0.00648518,-0.00002539,-0.00038163,-0.00081423
 ,-0.00019646,0.00014421,-0.00008292,0.00019765,-0.00003532,-0.00001497
 ,-0.00009512,0.00006173,0.00002291,0.00008274,0.00004525,0.00000705,0.
 00000119,-0.00000354,-0.00000045,0.00000060,-0.00000464,0.00000858,0.0
 0000422,0.00000059,0.00000383,0.00000103,-0.00000020,0.00000547,-0.000
 00801,-0.00000991,0.00030127,0.00000170,-0.00002565,0.00010492,-0.0000
 1601,-0.00004751,-0.00000010,-0.00001698,0.00005028,0.00008659,0.00004
 003,-0.00005390,-0.00001551,0.00000369,-0.00000043,-0.00000095,0.00000
 009,-0.00000029,-0.00000103,-0.00012241,-0.00001579,-0.00036037,0.0000
 3216,-0.00003257,-0.00032152,0.00012122,0.00138185,0.00721224,0.000015
 83,0.00001300,0.00004987,0.00002061,0.00002527,0.00011462,0.01015640,-
 0.00164421,-0.04190411,-0.01524122,-0.00278359,0.02371576,0.00104524,0
 .00784550,0.00106202,-0.00257147,-0.01140314,0.00241421,0.00624992,-0.
 00159594,-0.00082183,0.00616298,0.00752750,0.00052110,-0.00628472,-0.0
 0327769,0.00140229,-0.01992241,-0.00152543,-0.00016448,-0.00846005,0.0
 1292994,-0.00002108,-0.03546133,-0.03664589,0.00343023,-0.01870121,0.0
 7224844,-0.00472766,0.04652234,-0.05140922,0.00019147,0.00212022,0.027
 74269,0.00133319,0.01938281,-0.01133684,-0.00212366,-0.01886016,0.0034
 1167,0.00296809,0.01035710,-0.00643962,-0.00251648,-0.00991551,-0.0054
 4783,-0.00014016,0.00002515,0.00003986,0.00019596,-0.00004551,0.000033
 79,0.00004278,-0.00019784,0.00003961,-0.00028323,0.00007007,-0.0001194
 9,-0.00007594,-0.00013083,0.00009422,-0.00019646,0.00002894,0.00025852
 ,-0.00021085,-0.00221463,0.01364584,-0.00231871,0.01342228,-0.00658917
 ,-0.00300370,-0.01589954,0.02000869,-0.00104851,0.00047479,0.00017099,
 0.00056404,0.00007080,0.00007778,0.00008553,0.02970222,-0.01649782,0.0
 0047074,-0.06584391,-0.04102856,0.01528523,-0.26765234,-0.00292495,0.0
 1123977,-0.00026033,0.00033815,-0.00047545,-0.00033316,-0.00044232,-0.
 00011929,-0.16246621,-0.07732889,0.01576229,-0.02611411,-0.02956403,0.
 00548135,0.60503596,0.00075234,0.00488088,0.00053630,-0.00144556,-0.00
 735817,0.00223568,0.00344238,-0.00141056,-0.00031465,0.00361314,0.0046
 4778,0.00047438,-0.00376879,-0.00209140,0.00083385,-0.00750124,-0.0027
 9318,0.00173545,-0.00517213,0.00643377,-0.00044351,-0.01837298,-0.0260
 1130,0.00283448,0.03712958,0.02283627,-0.00273254,0.02228594,-0.090831
 13,0.00539101,0.00320562,0.01411533,0.00099290,0.01133678,-0.00746044,
 -0.00141028,-0.01091169,0.00284724,0.00195593,0.00657925,-0.00396858,-
 0.00155659,-0.00604316,-0.00362234,-0.00019378,-0.00005058,0.00017748,
 0.00014501,-0.00000247,0.00004150,0.00002969,-0.00015565,0.00000471,-0
 .00017499,0.00000487,-0.00001707,-0.00002319,0.00035292,0.00003232,-0.
 00014420,0.00011435,0.00008159,-0.00020865,-0.00142322,0.00855424,-0.0
 0148221,0.00831160,-0.00384615,-0.00193487,-0.00955542,0.00960741,-0.0
 0021388,0.00028442,0.00011108,0.00026028,0.00001145,-0.00005687,0.0001
 0261,0.01395419,-0.00992310,0.00114433,-0.04539416,-0.01645223,0.00869
 135,0.04697110,-0.05891921,-0.00667015,-0.00050860,0.00014067,-0.00013
 944,-0.00093732,-0.00085209,0.00000504,-0.17547747,-0.32024343,0.04074
 459,-0.01514902,-0.00778684,0.00287840,0.05882695,0.66052499,-0.000096
 66,-0.00104262,-0.00009592,0.00053501,0.00143951,-0.00031160,-0.000697
 94,-0.00000998,0.00013540,-0.00081380,-0.00082529,-0.00001251,0.000860
 41,0.00044384,-0.00019168,0.00307113,0.00222692,0.00420994,0.00088219,
 -0.00131987,0.00012791,0.00366741,0.00438600,-0.00187612,-0.00519187,-
 0.00367445,0.00627489,-0.00377545,0.01150568,0.00512130,-0.00046354,-0
 .00296653,0.00309910,-0.00212361,0.00141027,0.00024753,0.00212923,-0.0
 0048448,-0.00026778,-0.00122294,0.00077693,0.00031922,0.00115416,0.000
 66293,-0.00002743,0.00000148,-0.00000930,-0.00003502,-0.00000263,-0.00
 001475,-0.00001121,0.00004973,-0.00001677,0.00005396,-0.00000974,0.000
 01133,-0.00000019,-0.00004957,-0.00000747,-0.00008292,-0.00004526,0.00
 003267,-0.00031186,0.00025050,-0.00185983,0.00041777,-0.00188877,0.000
 72799,-0.00018336,0.00202181,-0.00328547,0.00044220,-0.00006414,-0.000
 03233,-0.00013737,-0.00000794,-0.00000082,0.00000093,-0.00374244,0.003
 44800,0.00333092,0.01325383,0.00699270,0.00236648,0.01057559,-0.003141
 72,-0.06555679,-0.00001476,-0.00012791,-0.00023227,0.00002943,0.000040
 83,-0.00112282,0.02458145,0.03466870,-0.06989441,0.00354773,0.00312298
 ,0.00513942,-0.03869622,-0.06441204,0.15123513,0.00000696,-0.00002550,
 -0.00001559,-0.00000414,0.00006816,0.00011861,0.00001894,-0.00011324,0
 .00003492,-0.00000264,0.00006670,0.00003123,0.00000369,-0.00001624,-0.
 00000299,-0.00024248,0.00054258,-0.00019640,-0.00011929,-0.00006188,-0
 .00013620,-0.00011743,-0.00012575,0.00014370,-0.00282176,-0.00037747,0
 .00042250,-0.00056460,-0.00128649,0.00054210,0.00011012,-0.00021917,-0
 .00000749,0.00002893,-0.00011435,-0.00004526,-0.00001242,0.00012367,0.
 00004324,0.00011051,-0.00005083,-0.00001674,-0.00005508,-0.00010937,-0
 .00002058,-0.00001890,0.00004809,0.00001117,0.00001245,0.00002087,0.00
 000275,-0.00002088,0.00000513,0.00000823,-0.00001318,0.00002050,0.0000
 0915,0.00010742,0.00000136,0.00000170,0.00003351,0.00001523,-0.0000031
 0,0.00002992,-0.00006773,-0.00000621,-0.00008391,0.00005079,0.00002526
 ,0.00007607,-0.00013140,0.00002810,-0.00002518,-0.00000643,0.00000225,
 -0.00001765,-0.00002269,0.00000938,-0.00010311,0.00028555,-0.00006686,
 -0.00119982,0.00011569,0.00002313,-0.03096441,0.02460885,-0.00043342,0
 .00000233,-0.00007226,0.00002006,-0.00052743,-0.00062494,0.00021039,0.
 00718150,-0.00797410,0.00088205,0.00058158,-0.00091237,-0.00006480,-0.
 08284838,0.08210282,-0.00729809,0.11140625,-0.00007011,-0.00007299,0.0
 0001109,0.00001345,0.00007338,-0.00010092,-0.00002363,0.00016257,0.000
 02220,-0.00005328,-0.00010790,-0.00003938,0.00007565,0.00005627,-0.000
 01743,0.00004258,0.00003158,-0.00011720,0.00016964,0.00003544,-0.00000
 391,0.00019367,0.00034006,-0.00013271,-0.00025459,-0.00015847,0.000517
 78,-0.00177350,-0.00146659,0.00117420,0.00022016,-0.00049682,-0.000079
 67,-0.00025852,0.00008160,-0.00003267,0.00010761,-0.00016398,-0.000064
 19,-0.00019579,0.00009783,0.00004973,0.00011912,0.00017542,0.00002774,
 0.00002637,-0.00006307,-0.00001546,-0.00001502,-0.00002657,-0.00000207
 ,0.00003359,-0.00000164,-0.00000492,0.00001643,-0.00002444,-0.00000653
 ,-0.00004614,-0.00001257,0.00002565,-0.00001523,-0.00004332,0.00000560
 ,-0.00004373,-0.00007408,0.00004382,0.00001066,-0.00002496,0.00001986,
 -0.00004566,-0.00009580,-0.00000431,0.00003326,0.00000446,-0.00001164,
 0.00001789,0.00004738,-0.00001591,-0.00005059,-0.00021974,0.00006385,-
 0.00037079,0.00000966,-0.00012991,0.01144952,-0.00068545,0.00009309,-0
 .00000893,0.00009230,-0.00000094,-0.00049985,0.00011444,0.00009879,0.0
 0547662,-0.04241667,0.00516807,-0.00066731,-0.00037474,-0.00013910,0.0
 8214662,-0.16957781,0.01115529,-0.09570312,0.21483214,-0.00003023,-0.0
 0007498,-0.00001434,-0.00000317,0.00008169,0.00009696,-0.00005661,-0.0
 0002360,0.00006669,-0.00005690,-0.00000730,0.00001703,0.00006926,0.000
 02298,-0.00002028,0.00015681,-0.00005957,-0.00022103,-0.00000502,-0.00
 024156,-0.00076723,0.00067354,0.00070763,0.00017437,0.00025394,-0.0006
 3520,0.00285811,0.00023377,0.00151356,0.00680840,-0.00013825,-0.000097
 89,-0.00007007,-0.00021087,0.00020866,-0.00031185,0.00024472,0.0000642
 9,-0.00000133,-0.00004591,0.00001759,0.00006864,0.00004097,0.00001212,
 -0.00000452,-0.00000223,0.00000609,0.00000294,0.00000337,-0.00000056,0
 .00000485,-0.00000042,0.00000045,0.00000350,-0.00000362,0.00000640,0.0
 0001023,0.00000567,-0.00001237,0.00010492,-0.00000310,-0.00000560,0.00
 002921,-0.00001051,-0.00004030,-0.00000433,-0.00003420,0.00004173,0.00
 003390,0.00006651,-0.00012879,-0.00004012,-0.00000265,-0.00000075,0.00
 000692,-0.00000266,-0.00000866,0.00001097,-0.00018810,0.00010144,-0.00
 007833,0.00036048,-0.00006988,-0.00105598,-0.00047688,-0.00057326,0.00
 670943,0.00002130,0.00000835,0.00010671,0.00019238,0.00011444,0.000308
 49,-0.00109144,0.00473046,0.00475779,-0.00011487,-0.00008668,-0.001975
 80,-0.00584862,0.01206423,-0.04174780,0.00590002,-0.01767770,0.0242351
 4,0.00282549,0.05102761,0.02385745,-0.12010494,0.00000262,0.05183227,-
 0.05753277,-0.08066333,-0.05766486,0.03532567,-0.01141926,-0.01306245,
 -0.02785798,-0.01306853,0.00578288,-0.05753773,0.08067066,-0.05766947,
 -0.03183839,-0.00721650,-0.00690651,0.00635138,0.00000060,-0.00219801,
 -0.03184137,0.00721653,-0.00690694,-0.00834492,0.00000036,0.00003839,0
 .00072885,0.00427663,0.00028061,0.00351363,-0.00258157,-0.00040520,-0.
 00596689,0.00531689,0.00224118,0.00676384,-0.00483449,-0.00191806,-0.0
 0710042,-0.00291427,0.00241853,0.00027790,0.00009860,-0.00021602,0.000
 03000,0.00024067,-0.00019699,-0.00139480,-0.00006014,-0.00130231,-0.00
 053582,0.00010452,-0.00092613,-0.00020477,-0.00000858,0.00004946,0.000
 04837,0.00005588,0.00009995,0.00282620,-0.05103318,0.02385910,-0.02786
 284,0.01307128,0.00578389,0.03533031,0.01142033,-0.01306464,-0.0013949
 6,0.00006005,-0.00130242,-0.00053580,-0.00010449,-0.00092609,-0.007101
 76,0.00291524,0.00241877,0.00676515,0.00483541,-0.00191849,-0.00596768
 ,-0.00531808,0.00224172,0.00027790,-0.00009860,-0.00021598,0.00003003,
 -0.00024073,-0.00019702,0.00072887,-0.00427739,0.00028064,-0.00020477,
 0.00000858,0.00004946,0.00351429,0.00258193,-0.00040531,0.00004837,-0.
 00005588,0.00009996,0.28789647,0.01569392,0.02457402,-0.00411630,-0.00
 000147,-0.03521658,0.00000196,-0.08607497,-0.11208762,-0.06667845,0.02
 864553,-0.03173927,-0.02335306,-0.02411333,-0.01406667,0.00278325,0.08
 608324,-0.11209860,0.06668598,-0.03057786,0.00634604,-0.00493593,-0.00
 000032,-0.00648865,0.00000016,0.03057959,0.00634608,0.00493640,0.00000
 032,-0.00402231,-0.00000003,0.00044036,0.00391610,0.00022852,0.0038123
 9,-0.00182229,-0.00017932,-0.00338480,0.00755206,0.00210596,0.00791051
 ,-0.00495722,-0.00215012,-0.00812060,-0.00519589,-0.00046676,0.0002517
 2,-0.00027136,0.00018864,-0.00006214,-0.00008092,0.00003021,0.00016779
 ,-0.00111460,-0.00173629,-0.00000416,-0.00030222,0.00033154,-0.0002117
 7,-0.00002426,-0.00004069,0.00005934,-0.00004408,-0.00003969,-0.015693
 75,0.02457763,0.00411485,0.02411595,-0.01406814,-0.00278364,-0.0286481
 6,-0.03174106,0.02335555,-0.00016775,-0.00111457,0.00173646,0.00000424
 ,-0.00030231,-0.00033157,0.00812124,-0.00519635,0.00046656,-0.00791119
 ,-0.00495778,0.00215039,0.00338519,0.00755265,-0.00210632,-0.00025168,
 -0.00027136,-0.00018865,0.00006216,-0.00008083,-0.00003021,-0.00044039
 ,0.00391636,-0.00022854,0.00021174,-0.00002423,0.00004069,-0.00381260,
 -0.00182247,0.00017935,-0.00005940,-0.00004405,0.00003968,-0.00000885,
 0.30433847,0.00268882,-0.02956340,-0.00676835,0.11180498,-0.00000051,-
 0.09070488,-0.07618673,-0.08753529,-0.07014846,-0.00360013,-0.01324147
 ,0.00137987,0.00975752,0.00139055,-0.00763979,-0.07619431,0.08754507,-
 0.07015203,-0.01215734,-0.00589670,0.00338543,-0.00057218,0.00000017,-
 0.00189441,-0.01215796,0.00589672,0.00338542,0.00099058,0.,-0.00029366
 ,-0.00120071,-0.00046852,0.00026356,0.00034169,0.00100176,-0.00041648,
 0.00027609,0.00051852,0.00172787,-0.00093575,0.00200065,0.00069596,0.0
 0180242,-0.00116478,0.00056803,-0.00006393,0.00016013,0.00020897,-0.00
 023435,-0.00030771,-0.00039186,0.00112440,0.00006519,0.00101637,-0.001
 00983,0.00174633,0.00117804,0.00043167,0.00004068,-0.00009119,-0.00015
 677,-0.00012101,-0.00009898,0.00268901,0.02956356,-0.00676872,0.009757
 46,-0.00139059,-0.00764028,-0.00360004,0.01324216,0.00137966,0.0011244
 8,-0.00006520,0.00101645,-0.00100980,-0.00174638,0.00117814,0.00180259
 ,0.00116479,0.00056802,-0.00093584,-0.00200069,0.00069597,0.00027615,-
 0.00051859,0.00172800,-0.00006396,-0.00016008,0.00020897,-0.00023436,0
 .00030770,-0.00039186,-0.00120075,0.00046859,0.00026356,0.00043169,-0.
 00004069,-0.00009119,0.00034162,-0.00100183,-0.00041649,-0.00015678,0.
 00012100,-0.00009897,0.04604361,-0.00001082,0.24317058||-0.00614903,-0
 .00780906,0.00407189,-0.02162371,0.00000017,-0.00194797,0.00308404,-0.
 01833568,-0.00923346,-0.00951156,0.00765139,0.00740995,-0.00010408,0.0
 2810270,0.00529314,0.00307808,0.01834202,-0.00923981,-0.00768158,-0.00
 937729,-0.00194665,-0.00253853,0.00000035,-0.00120173,-0.00768196,0.00
 937755,-0.00194640,0.01128379,0.00000075,-0.00002757,0.00797881,-0.010
 71562,-0.00330164,-0.00693569,0.01048326,0.00165108,0.00812210,0.01201
 379,0.00056752,0.01157250,-0.00011636,-0.00352034,-0.00918842,0.001524
 19,-0.00117910,0.00002977,-0.00101905,0.00039957,-0.00033223,-0.000696
 03,0.00096708,0.00191698,-0.00094432,-0.00104754,0.00065521,-0.0028292
 8,-0.00135026,-0.00117455,0.00001374,0.00108375,-0.00018269,-0.0007419
 7,0.00057683,-0.00614736,0.00780763,0.00407193,-0.00010636,-0.02810101
 ,0.00529383,-0.00950991,-0.00765115,0.00741036,0.00191657,0.00094427,-
 0.00104748,0.00065526,0.00282907,-0.00135029,-0.00918815,-0.00152405,-
 0.00117877,0.01157229,0.00011682,-0.00352091,0.00812325,-0.01201465,0.
 00056748,0.00002983,0.00101927,0.00039950,-0.00033215,0.00069589,0.000
 96722,0.00797870,0.01071315,-0.00330157,-0.00117451,-0.00001369,0.0010
 8376,-0.00693579,-0.01048195,0.00165119,-0.00018280,0.00074208,0.00057
 681,0.02868385,-0.00000693,0.00229859|||@


 ACHIEVEMENT--  THE MAN WHO ROWS THE BOAT GENERALLY 
                DOESN'T HAVE TIME TO ROCK IT.

                   -- FROM THE BACK OF A SUGAR PACKET
 Job cpu time:       0 days  0 hours  0 minutes  4.0 seconds.
 File lengths (MBytes):  RWF=    213 Int=      0 D2E=      0 Chk=      2 Scr=      1
 Normal termination of Gaussian 09 at Tue Mar 10 20:28:25 2026.
