 Entering Link 1 = C:\G09W\l1.exe PID=     16040.
  
 Copyright (c) 1988,1990,1992,1993,1995,1998,2003,2009,2013,
            Gaussian, Inc.  All Rights Reserved.
  
 This is part of the Gaussian(R) 09 program.  It is based on
 the Gaussian(R) 03 system (copyright 2003, Gaussian, Inc.),
 the Gaussian(R) 98 system (copyright 1998, Gaussian, Inc.),
 the Gaussian(R) 94 system (copyright 1995, Gaussian, Inc.),
 the Gaussian 92(TM) system (copyright 1992, Gaussian, Inc.),
 the Gaussian 90(TM) system (copyright 1990, Gaussian, Inc.),
 the Gaussian 88(TM) system (copyright 1988, Gaussian, Inc.),
 the Gaussian 86(TM) system (copyright 1986, Carnegie Mellon
 University), and the Gaussian 82(TM) system (copyright 1983,
 Carnegie Mellon University). Gaussian is a federally registered
 trademark of Gaussian, Inc.
  
 This software contains proprietary and confidential information,
 including trade secrets, belonging to Gaussian, Inc.
  
 This software is provided under written license and may be
 used, copied, transmitted, or stored only in accord with that
 written license.
  
 The following legend is applicable only to US Government
 contracts under FAR:
  
                    RESTRICTED RIGHTS LEGEND
  
 Use, reproduction and disclosure by the US Government is
 subject to restrictions as set forth in subparagraphs (a)
 and (c) of the Commercial Computer Software - Restricted
 Rights clause in FAR 52.227-19.
  
 Gaussian, Inc.
 340 Quinnipiac St., Bldg. 40, Wallingford CT 06492
  
  
 ---------------------------------------------------------------
 Warning -- This program may not be used in any manner that
 competes with the business of Gaussian, Inc. or will provide
 assistance to any competitor of Gaussian, Inc.  The licensee
 of this program is prohibited from giving any competitor of
 Gaussian, Inc. access to this program.  By using this program,
 the user acknowledges that Gaussian, Inc. is engaged in the
 business of creating and licensing software in the field of
 computational chemistry and represents and warrants to the
 licensee that it is not a competitor of Gaussian, Inc. and that
 it will not use this program in any manner prohibited above.
 ---------------------------------------------------------------
  

 Cite this work as:
 Gaussian 09, Revision D.01,
 M. J. Frisch, G. W. Trucks, H. B. Schlegel, G. E. Scuseria, 
 M. A. Robb, J. R. Cheeseman, G. Scalmani, V. Barone, B. Mennucci, 
 G. A. Petersson, H. Nakatsuji, M. Caricato, X. Li, H. P. Hratchian, 
 A. F. Izmaylov, J. Bloino, G. Zheng, J. L. Sonnenberg, M. Hada, 
 M. Ehara, K. Toyota, R. Fukuda, J. Hasegawa, M. Ishida, T. Nakajima, 
 Y. Honda, O. Kitao, H. Nakai, T. Vreven, J. A. Montgomery, Jr., 
 J. E. Peralta, F. Ogliaro, M. Bearpark, J. J. Heyd, E. Brothers, 
 K. N. Kudin, V. N. Staroverov, T. Keith, R. Kobayashi, J. Normand, 
 K. Raghavachari, A. Rendell, J. C. Burant, S. S. Iyengar, J. Tomasi, 
 M. Cossi, N. Rega, J. M. Millam, M. Klene, J. E. Knox, J. B. Cross, 
 V. Bakken, C. Adamo, J. Jaramillo, R. Gomperts, R. E. Stratmann, 
 O. Yazyev, A. J. Austin, R. Cammi, C. Pomelli, J. W. Ochterski, 
 R. L. Martin, K. Morokuma, V. G. Zakrzewski, G. A. Voth, 
 P. Salvador, J. J. Dannenberg, S. Dapprich, A. D. Daniels, 
 O. Farkas, J. B. Foresman, J. V. Ortiz, J. Cioslowski, 
 and D. J. Fox, Gaussian, Inc., Wallingford CT, 2013.
 
 ******************************************
 Gaussian 09:  IA32W-G09RevD.01 24-Apr-2013
                05-Jan-2025 
 ******************************************
 %nprocshared=2
 Will use up to    2 processors via shared memory.
 %mem=1GB
 %chk=G:\My Drive\Boro Kaaz\Pt doped MoS2\NO2\Pt doped MoS2+NO2_AMAN_freq.chk
 ------------------------------------------------
 # freq pm6 guess=huckel scf=qc geom=connectivity
 ------------------------------------------------
 1/10=4,30=1,38=1,57=2/1,3;
 2/12=2,17=6,18=5,40=1/2;
 3/5=2,16=1,25=1,41=3900000,71=2,140=1/1,2,3;
 4/11=4,35=1/1;
 5/5=2,8=3,35=1,38=5,98=1/8;
 8/6=4,10=90,11=11/1;
 11/6=1,8=1,9=11,15=111,16=1/1,2,10;
 10/6=1/2;
 6/7=2,8=2,9=2,10=2,18=1,28=1/1;
 7/8=1,10=1,25=1/1,2,3,16;
 1/10=4,30=1/3;
 99//99;
 -------------------
 Title Card Required
 -------------------
 Symbolic Z-matrix:
 Charge =  0 Multiplicity = 2
 Mo                   -1   -1.83107   0.12645  -0.11034 
 S                    -1   -3.16161   1.17601   1.61292 
 S                    -1   -3.8168    0.62034  -1.39663 
 Mo                   -1    1.2652    0.38932  -0.83294 
 Mo                   -1    4.36147   0.65218  -1.55554 
 Mo                   -1    7.45773   0.91504  -2.27814 
 S                    -1   -0.06534   1.43887   0.89033 
 S                    -1    3.03092   1.70173   0.16773 
 S                    -1    6.12719   1.9646   -0.55487 
 S                    -1   -0.72053   0.8832   -2.11923 
 S                    -1    2.37574   1.14606  -2.84183 
 S                    -1    5.47201   1.40892  -3.56442 
 Mo                   -1   -3.70921   2.70448  -0.17747 
 Mo                   -1   -5.58735   5.2825   -0.24459 
 Mo                   -1   -7.46549   7.86052  -0.31171 
 S                    -1   -5.03975   3.75403   1.5458 
 S                    -1   -6.91789   6.33206   1.47868 
 S                    -1   -8.79603   8.91008   1.41156 
 S                    -1   -5.69494   3.19836  -1.46375 
 S                    -1   -7.57308   5.77638  -1.53087 
 S                    -1   -9.45122   8.35441  -1.59799 
 Mo                   -1   -0.61294   2.96734  -0.90006 
 Mo                   -1   -2.49108   5.54536  -0.96718 
 Mo                   -1   -4.36922   8.12338  -1.0343 
 Mo                   -1    2.48333   3.2302   -1.62266 
 Mo                   -1   -1.27295   8.38625  -1.7569 
 Mo                   -1    5.57959   3.49306  -2.34526 
 Mo                   -1    3.70145   6.07109  -2.41238 
 Mo                   -1    1.82332   8.64911  -2.4795 
 S                    -1   -1.94348   4.0169    0.82321 
 S                    -1   -3.82162   6.59492   0.75609 
 S                    -1   -5.69976   9.17294   0.68896 
 S                    -1    1.15279   4.27976   0.10061 
 S                    -1   -0.72535   6.85778   0.03349 
 S                    -1   -2.60349   9.4358   -0.03363 
 S                    -1    4.24905   4.54262  -0.62199 
 S                    -1    2.37091   7.12064  -0.68911 
 S                    -1    0.49277   9.69866  -0.75623 
 S                    -1   -2.59867   3.46122  -2.18635 
 S                    -1   -4.47681   6.03925  -2.25347 
 S                    -1   -6.35495   8.61727  -2.32059 
 S                    -1    0.4976    3.72409  -2.90895 
 S                    -1   -1.38054   6.30211  -2.97607 
 S                    -1   -3.25868   8.88013  -3.04319 
 S                    -1    3.59387   3.98695  -3.63154 
 S                    -1    1.71573   6.56497  -3.69866 
 S                    -1   -0.16241   9.14299  -3.76578 
 Pt                   -1    0.60519   5.80822  -1.68978 
 N                    0    -0.32534   3.64115   2.49389 
 O                    0     0.62287   4.0307    1.97879 
 O                    0    -1.22654   3.03312   2.14917 
 

 GradGradGradGradGradGradGradGradGradGradGradGradGradGradGradGradGradGrad
 Berny optimization.
 Initialization pass.
 Trust Radius=3.00D-01 FncErr=1.00D-07 GrdErr=1.00D-07
 Number of steps in this run=      2 maximum allowed number of steps=      2.
 GradGradGradGradGradGradGradGradGradGradGradGradGradGradGradGradGradGrad

 Stoichiometry    Mo15NO2PtS32(2)
 Framework group  C1[X(Mo15NO2PtS32)]
 Deg. of freedom   147
 Full point group                 C1      NOp   1
 Largest Abelian subgroup         C1      NOp   1
 Largest concise Abelian subgroup C1      NOp   1
                         Standard orientation:                         
 ---------------------------------------------------------------------
 Center     Atomic      Atomic             Coordinates (Angstroms)
 Number     Number       Type             X           Y           Z
 ---------------------------------------------------------------------
      1         42           0       -0.754281    4.799577   -0.153735
      2         16           0        1.085382    4.826305    1.413586
      3         16           0        1.089903    4.764743   -1.715574
      4         42           0       -3.520721    3.210811   -0.126475
      5         42           0       -6.287162    1.622045   -0.099216
      6         42           0       -9.053603    0.033279   -0.071956
      7         16           0       -1.681059    3.237539    1.440846
      8         16           0       -4.447500    1.648773    1.468105
      9         16           0       -7.213940    0.060007    1.495365
     10         16           0       -1.676538    3.175977   -1.688314
     11         16           0       -4.442978    1.587211   -1.661055
     12         16           0       -7.209419   -0.001555   -1.633795
     13         42           0        2.005048    3.198652   -0.118252
     14         42           0        4.764377    1.597727   -0.082769
     15         42           0        7.523705   -0.003198   -0.047285
     16         16           0        3.844710    3.225380    1.449070
     17         16           0        6.604039    1.624455    1.484553
     18         16           0        9.363368    0.023530    1.520036
     19         16           0        3.849232    3.163818   -1.680090
     20         16           0        6.608561    1.562893   -1.644607
     21         16           0        9.367889   -0.038032   -1.609124
     22         42           0       -0.761393    1.609886   -0.090992
     23         42           0        1.997936    0.008961   -0.055509
     24         42           0        4.757265   -1.591964   -0.020026
     25         42           0       -3.527833    0.021120   -0.063733
     26         42           0        1.990824   -3.180729    0.007234
     27         42           0       -6.294274   -1.567646   -0.036473
     28         42           0       -3.534945   -3.168570   -0.000990
     29         42           0       -0.775617   -4.769495    0.034493
     30         16           0        1.078270    1.636614    1.476329
     31         16           0        3.837598    0.035689    1.511812
     32         16           0        6.596927   -1.565235    1.547295
     33         16           0       -1.688171    0.047848    1.503588
     34         16           0        1.071158   -1.553077    1.539072
     35         16           0        3.830486   -3.154001    1.574555
     36         16           0       -4.454612   -1.540918    1.530848
     37         16           0       -1.695283   -3.141842    1.566331
     38         16           0        1.064046   -4.742767    1.601814
     39         16           0        1.082791    1.575052   -1.652831
     40         16           0        3.842120   -0.025873   -1.617348
     41         16           0        6.601449   -1.626798   -1.581865
     42         16           0       -1.683650   -0.013714   -1.625571
     43         16           0        1.075679   -1.614639   -1.590088
     44         16           0        3.835008   -3.215563   -1.554605
     45         16           0       -4.450090   -1.602480   -1.598312
     46         16           0       -1.690762   -3.203404   -1.562829
     47         16           0        1.068567   -4.804329   -1.527346
     48         78           0       -0.768505   -1.579805   -0.028250
     49          7           0       -0.340074    1.806964    3.349841
     50          8           0       -1.093090    0.967865    3.137558
     51          8           0        0.178253    2.593512    2.706905
 ---------------------------------------------------------------------
 Rotational constants (GHZ):      0.0254854      0.0092663      0.0073814
 Standard basis: VSTO-6G (5D, 7F)
 There are   492 symmetry adapted cartesian basis functions of A   symmetry.
 There are   444 symmetry adapted basis functions of A   symmetry.
   444 basis functions,  2952 primitive gaussians,   492 cartesian basis functions
   155 alpha electrons      154 beta electrons
       nuclear repulsion energy      4619.0274509523 Hartrees.
 Integral buffers will be    262144 words long.
 Regular integral format.
 Two-electron integral symmetry is turned off.
 Do NDO integrals.
 One-electron integrals computed using PRISM.
 NBasis=   444 RedAO= F EigKep=  0.00D+00  NBF=   444
 NBsUse=   444 1.00D-04 EigRej=  0.00D+00 NBFU=   444
 Projected New-EHT guess.
 Enter ItEHT:  IZDO=4 IZDPar=0 Conv= 1.00D-06 N=  284
 It=   1                  EEH= -32.9052636020     EQH= 0.000000000000E+00 EH= -32.9052636020    
 Initial guess <Sx>= 0.0000 <Sy>= 0.0000 <Sz>= 0.5000 <S**2>= 0.7500 S= 0.5000
 Keep J ints in memory in canonical form, NReq=6469518.
 Gradient too large for Newton-Raphson or scaled steepest descent --
 use steepest descent instead.
     Note:  rotation exceeds Pi/2.
     Note:  rotation exceeds Pi/2.
     Note:  rotation exceeds Pi/2.
     Note:  rotation exceeds Pi/2.
     Note:  rotation exceeds Pi/2.
     Note:  rotation exceeds Pi/2.
     Accept linear search using points  9 and 10.
 Gradient too large for Newton-Raphson or scaled steepest descent --
 use steepest descent instead.
     Accept linear search using points  1 and  2.
 Gradient too large for Newton-Raphson or scaled steepest descent --
 use steepest descent instead.
     Accept linear search using points  1 and  2.
 Gradient too large for Newton-Raphson or scaled steepest descent --
 use steepest descent instead.
     Minimum is close to point  3 DX= -1.47D-02 DF= -1.01D-01 DXR=  3.81D-02 DFR=  1.00D-03 which will be used.
 Gradient too large for Newton-Raphson or scaled steepest descent --
 use steepest descent instead.
     Minimum is close to point  4 DX=  5.85D-02 DF= -3.85D-01 DXR=  8.89D-02 DFR=  7.13D-03 which will be used.
 Gradient too large for Newton-Raphson -- use scaled steepest descent instead.
     Accept linear search using points  1 and  2.
 Gradient too large for Newton-Raphson -- use scaled steepest descent instead.
     Accept linear search using points  1 and  2.
 Gradient too large for Newton-Raphson -- use scaled steepest descent instead.
 Gradient too large for Newton-Raphson -- use scaled steepest descent instead.
     Accept linear search using points  1 and  2.
 Gradient too large for Newton-Raphson -- use scaled steepest descent instead.
     Minimum is close to point  5 DX=  2.20D-02 DF= -1.63D-02 DXR=  5.22D-02 DFR=  2.58D-03 which will be used.
 Gradient too large for Newton-Raphson -- use scaled steepest descent instead.
 Gradient too large for Newton-Raphson -- use scaled steepest descent instead.
     Accept linear search using points  1 and  2.
 Gradient too large for Newton-Raphson -- use scaled steepest descent instead.
 Gradient too large for Newton-Raphson -- use scaled steepest descent instead.
     Accept linear search using points  1 and  2.
 Gradient too large for Newton-Raphson -- use scaled steepest descent instead.
     Accept linear search using points  4 and  5.
 Gradient too large for Newton-Raphson -- use scaled steepest descent instead.
     Minimum is close to point  3 DX= -1.40D-02 DF= -7.96D-03 DXR=  7.53D-02 DFR=  5.71D-03 which will be used.
 Gradient too large for Newton-Raphson -- use scaled steepest descent instead.
 Gradient too large for Newton-Raphson -- use scaled steepest descent instead.
     Accept linear search using points  1 and  2.
 Gradient too large for Newton-Raphson -- use scaled steepest descent instead.
 Gradient too large for Newton-Raphson -- use scaled steepest descent instead.
     Accept linear search using points  1 and  2.
 Gradient too large for Newton-Raphson -- use scaled steepest descent instead.
 Gradient too large for Newton-Raphson -- use scaled steepest descent instead.
     Accept linear search using points  1 and  2.
 Gradient too large for Newton-Raphson -- use scaled steepest descent instead.
 Gradient too large for Newton-Raphson -- use scaled steepest descent instead.
     Accept linear search using points  1 and  2.
 Gradient too large for Newton-Raphson -- use scaled steepest descent instead.
     Accept linear search using points  2 and  3.
 Gradient too large for Newton-Raphson -- use scaled steepest descent instead.
     Accept linear search using points  1 and  2.
 Gradient too large for Newton-Raphson -- use scaled steepest descent instead.
 Gradient too large for Newton-Raphson -- use scaled steepest descent instead.
     Minimum is close to point  3 DX= -5.77D-03 DF= -2.40D-05 DXR=  1.46D-02 DFR=  2.15D-04 which will be used.
 Gradient too large for Newton-Raphson -- use scaled steepest descent instead.
     Accept linear search using points  2 and  3.
 Gradient too large for Newton-Raphson -- use scaled steepest descent instead.
     Accept linear search using points  1 and  2.
 Gradient too large for Newton-Raphson -- use scaled steepest descent instead.
 Gradient too large for Newton-Raphson -- use scaled steepest descent instead.
     Minimum is close to point  3 DX=  2.64D-02 DF= -2.41D-04 DXR=  6.20D-02 DFR=  3.86D-03 which will be used.
 Gradient too large for Newton-Raphson -- use scaled steepest descent instead.
     Accept linear search using points  3 and  4.
     Minimum is close to point  4 DX= -1.27D-01 DF= -2.14D-04 DXR=  3.76D-02 DFR=  2.38D-03 which will be used.
 Gradient too large for Newton-Raphson -- use scaled steepest descent instead.
 Gradient too large for Newton-Raphson -- use scaled steepest descent instead.
 Gradient too large for Newton-Raphson -- use scaled steepest descent instead.
     Minimum is close to point  3 DX=  3.39D-03 DF= -3.77D-06 DXR=  8.40D-03 DFR=  7.05D-05 which will be used.
 Gradient too large for Newton-Raphson -- use scaled steepest descent instead.
 Gradient too large for Newton-Raphson -- use scaled steepest descent instead.
     Minimum is close to point  3 DX=  4.68D-03 DF= -5.11D-06 DXR=  1.16D-02 DFR=  1.34D-04 which will be used.
 Gradient too large for Newton-Raphson -- use scaled steepest descent instead.
 Gradient too large for Newton-Raphson -- use scaled steepest descent instead.
     Minimum is close to point  3 DX=  2.82D-03 DF= -1.39D-06 DXR=  7.00D-03 DFR=  4.90D-05 which will be used.
 Gradient too large for Newton-Raphson -- use scaled steepest descent instead.
 Gradient too large for Newton-Raphson -- use scaled steepest descent instead.
     Minimum is close to point  3 DX=  4.08D-03 DF= -2.22D-06 DXR=  1.01D-02 DFR=  1.02D-04 which will be used.
 Gradient too large for Newton-Raphson -- use scaled steepest descent instead.
 Gradient too large for Newton-Raphson -- use scaled steepest descent instead.
     Minimum is close to point  3 DX=  3.42D-03 DF= -1.28D-06 DXR=  8.47D-03 DFR=  7.18D-05 which will be used.
 Gradient too large for Newton-Raphson -- use scaled steepest descent instead.
 Gradient too large for Newton-Raphson -- use scaled steepest descent instead.
     Minimum is close to point  3 DX=  9.65D-03 DF= -7.40D-06 DXR=  2.36D-02 DFR=  5.55D-04 which will be used.
 Gradient too large for Newton-Raphson -- use scaled steepest descent instead.
 Gradient too large for Newton-Raphson -- use scaled steepest descent instead.
     Minimum is close to point  3 DX=  2.56D-02 DF= -3.61D-05 DXR=  6.01D-02 DFR=  3.63D-03 which will be used.
 Gradient too large for Newton-Raphson -- use scaled steepest descent instead.
 Gradient too large for Newton-Raphson -- use scaled steepest descent instead.
     Minimum is close to point  3 DX= -1.12D-02 DF= -3.56D-06 DXR=  2.29D-02 DFR=  5.23D-04 which will be used.
 Gradient too large for Newton-Raphson -- use scaled steepest descent instead.
     Accept linear search using points  1 and  2.
 Gradient too large for Newton-Raphson -- use scaled steepest descent instead.
     Accept linear search using points  1 and  2.
 Gradient too large for Newton-Raphson -- use scaled steepest descent instead.
     Accept linear search using points  3 and  4.
 Gradient too large for Newton-Raphson -- use scaled steepest descent instead.
     Minimum is close to point  3 DX=  2.65D-02 DF= -2.00D-05 DXR=  6.22D-02 DFR=  3.88D-03 which will be used.
 Gradient too large for Newton-Raphson -- use scaled steepest descent instead.
     Accept linear search using points  4 and  5.
 Gradient too large for Newton-Raphson -- use scaled steepest descent instead.
 Gradient too large for Newton-Raphson -- use scaled steepest descent instead.
 Gradient too large for Newton-Raphson -- use scaled steepest descent instead.
 Gradient too large for Newton-Raphson -- use scaled steepest descent instead.
     Accept linear search using points  1 and  2.
     Minimum is close to point  2 DX= -9.02D-02 DF= -1.75D-05 DXR=  6.88D-02 DFR=  7.64D-03 which will be used.
 Gradient too large for Newton-Raphson -- use scaled steepest descent instead.
     Accept linear search using points  1 and  2.
 Gradient too large for Newton-Raphson -- use scaled steepest descent instead.
 Gradient too large for Newton-Raphson -- use scaled steepest descent instead.
     Accept linear search using points  1 and  2.
 Gradient too large for Newton-Raphson -- use scaled steepest descent instead.
     Accept linear search using points  2 and  3.
     Minimum is close to point  3 DX= -3.85D-02 DF= -1.01D-06 DXR=  2.19D-02 DFR=  3.93D-04 which will be used.
 Gradient too large for Newton-Raphson -- use scaled steepest descent instead.
     Accept linear search using points  1 and  2.
 Gradient too large for Newton-Raphson -- use scaled steepest descent instead.
     Minimum is close to point  3 DX=  6.22D-02 DF= -2.91D-06 DXR=  3.34D-02 DFR=  1.12D-03 which will be used.
 Gradient too large for Newton-Raphson -- use scaled steepest descent instead.
     Accept linear search using points  1 and  2.
 Gradient too large for Newton-Raphson -- use scaled steepest descent instead.
     Accept linear search using points  2 and  3.
     Minimum is close to point  3 DX= -8.39D-02 DF= -5.36D-06 DXR=  4.62D-02 DFR=  2.14D-03 which will be used.
 Gradient too large for Newton-Raphson -- use scaled steepest descent instead.
     Accept linear search using points  1 and  2.
 Gradient too large for Newton-Raphson -- use scaled steepest descent instead.
 Gradient too large for Newton-Raphson -- use scaled steepest descent instead.
 Gradient too large for Newton-Raphson -- use scaled steepest descent instead.
     Minimum is close to point  3 DX=  1.10D-01 DF= -7.66D-06 DXR=  5.47D-02 DFR=  3.01D-03 which will be used.
 Gradient too large for Newton-Raphson -- use scaled steepest descent instead.
     Minimum is close to point  3 DX= -3.46D-02 DF= -1.27D-05 DXR=  7.44D-02 DFR=  5.56D-03 which will be used.
 Gradient too large for Newton-Raphson -- use scaled steepest descent instead.
 Gradient too large for Newton-Raphson -- use scaled steepest descent instead.
     Accept linear search using points  1 and  2.
 Gradient too large for Newton-Raphson -- use scaled steepest descent instead.
     Accept linear search using points  3 and  4.
     Minimum is close to point  4 DX= -1.05D-01 DF= -6.19D-06 DXR=  3.77D-02 DFR=  2.05D-03 which will be used.
 Gradient too large for Newton-Raphson -- use scaled steepest descent instead.
     Minimum is close to point  3 DX=  1.94D-02 DF= -7.03D-06 DXR=  4.62D-02 DFR=  2.13D-03 which will be used.
 Gradient too large for Newton-Raphson -- use scaled steepest descent instead.
 Gradient too large for Newton-Raphson -- use scaled steepest descent instead.
 Gradient too large for Newton-Raphson -- use scaled steepest descent instead.
     Minimum is close to point  4 DX=  1.46D-01 DF= -2.37D-06 DXR=  2.14D-02 DFR=  4.67D-04 which will be used.
 Gradient too large for Newton-Raphson -- use scaled steepest descent instead.
 Gradient too large for Newton-Raphson -- use scaled steepest descent instead.
     Minimum is close to point  4 DX= -3.93D-01 DF= -1.47D-05 DXR=  6.34D-02 DFR=  4.11D-03 which will be used.
 Gradient too large for Newton-Raphson -- use scaled steepest descent instead.
 Gradient too large for Newton-Raphson -- use scaled steepest descent instead.
 Gradient too large for Newton-Raphson -- use scaled steepest descent instead.
     Minimum is close to point  3 DX=  3.80D-02 DF= -1.37D-05 DXR=  8.67D-02 DFR=  7.58D-03 which will be used.
 Gradient too large for Newton-Raphson -- use scaled steepest descent instead.
     Minimum is close to point  3 DX=  2.32D-01 DF= -9.22D-06 DXR=  7.90D-02 DFR=  6.30D-03 which will be used.
 Gradient too large for Newton-Raphson -- use scaled steepest descent instead.
     Accept linear search using points  1 and  2.
 Gradient too large for Newton-Raphson -- use scaled steepest descent instead.
     Accept linear search using points  1 and  2.
 Gradient too large for Newton-Raphson -- use scaled steepest descent instead.
     Accept linear search using points  1 and  2.
 Gradient too large for Newton-Raphson -- use scaled steepest descent instead.
 Gradient too large for Newton-Raphson -- use scaled steepest descent instead.
     Minimum is close to point  3 DX= -3.13D-02 DF= -3.57D-06 DXR=  6.69D-02 DFR=  4.49D-03 which will be used.
 Gradient too large for Newton-Raphson -- use scaled steepest descent instead.
 Gradient too large for Newton-Raphson -- use scaled steepest descent instead.
     Accept linear search using points  1 and  2.
 Gradient too large for Newton-Raphson -- use scaled steepest descent instead.
     Accept linear search using points  3 and  4.
     Minimum is close to point  4 DX= -1.55D-02 DF= -5.85D-08 DXR=  5.18D-03 DFR=  5.11D-05 which will be used.
 Gradient too large for Newton-Raphson -- use scaled steepest descent instead.
     Minimum is close to point  3 DX=  2.40D-02 DF= -3.66D-06 DXR=  5.65D-02 DFR=  3.20D-03 which will be used.
 Gradient too large for Newton-Raphson -- use scaled steepest descent instead.
     Minimum is close to point  5 DX=  3.56D-01 DF= -4.69D-06 DXR=  3.81D-02 DFR=  1.48D-03 which will be used.
 Gradient too large for Newton-Raphson -- use scaled steepest descent instead.
     Minimum is close to point  4 DX= -1.04D-02 DF= -1.93D-06 DXR=  2.68D-02 DFR=  7.17D-04 which will be used.
 Gradient too large for Newton-Raphson -- use scaled steepest descent instead.
     Minimum is close to point  3 DX= -2.92D-01 DF= -7.89D-06 DXR=  8.33D-02 DFR=  6.99D-03 which will be used.
 Gradient too large for Newton-Raphson -- use scaled steepest descent instead.
     Minimum is close to point  3 DX=  1.01D-02 DF= -7.84D-07 DXR=  2.47D-02 DFR=  6.09D-04 which will be used.
 Gradient too large for Newton-Raphson -- use scaled steepest descent instead.
     Accept linear search using points  4 and  5.
 Gradient too large for Newton-Raphson -- use scaled steepest descent instead.
 Gradient too large for Newton-Raphson -- use scaled steepest descent instead.
     Minimum is close to point  4 DX=  5.99D-01 DF= -1.30D-05 DXR=  7.78D-02 DFR=  6.13D-03 which will be used.
 Gradient too large for Newton-Raphson -- use scaled steepest descent instead.
 Gradient too large for Newton-Raphson -- use scaled steepest descent instead.
 Gradient too large for Newton-Raphson -- use scaled steepest descent instead.
     Minimum is close to point  3 DX= -1.05D-02 DF= -3.23D-07 DXR=  2.15D-02 DFR=  4.61D-04 which will be used.
 Gradient too large for Newton-Raphson -- use scaled steepest descent instead.
     Minimum is close to point  2 DX=  4.52D-02 DF= -6.73D-07 DXR=  3.95D-02 DFR=  1.56D-03 which will be used.
 Gradient too large for Newton-Raphson -- use scaled steepest descent instead.
     Accept linear search using points  1 and  2.
 Gradient too large for Newton-Raphson -- use scaled steepest descent instead.
 Gradient too large for Newton-Raphson -- use scaled steepest descent instead.
     Minimum is close to point  3 DX= -4.47D-02 DF= -5.85D-06 DXR=  9.81D-02 DFR=  9.72D-03 which will be used.
 Gradient too large for Newton-Raphson -- use scaled steepest descent instead.
     Minimum is close to point  2 DX=  8.85D-02 DF= -2.60D-06 DXR=  8.13D-02 DFR=  6.65D-03 which will be used.
 Gradient too large for Newton-Raphson -- use scaled steepest descent instead.
     Accept linear search using points  1 and  2.
 Gradient too large for Newton-Raphson -- use scaled steepest descent instead.
     Minimum is close to point  3 DX=  1.73D-02 DF= -6.20D-08 DXR=  1.14D-02 DFR=  1.30D-04 which will be used.
 Gradient too large for Newton-Raphson -- use scaled steepest descent instead.
     Accept linear search using points  1 and  2.
 Gradient too large for Newton-Raphson -- use scaled steepest descent instead.
     Accept linear search using points  2 and  3.
     Minimum is close to point  3 DX= -1.19D-01 DF= -2.09D-06 DXR=  7.55D-02 DFR=  4.21D-03 which will be used.
 Gradient too large for Newton-Raphson -- use scaled steepest descent instead.
     Accept linear search using points  1 and  2.
 Gradient too large for Newton-Raphson -- use scaled steepest descent instead.
     Minimum is close to point  3 DX=  1.84D-01 DF= -5.25D-06 DXR=  9.75D-02 DFR=  9.61D-03 which will be used.
 Gradient too large for Newton-Raphson -- use scaled steepest descent instead.
     Accept linear search using points  1 and  2.
 Gradient too large for Newton-Raphson -- use scaled steepest descent instead.
     Accept linear search using points  2 and  3.
 Gradient too large for Newton-Raphson -- use scaled steepest descent instead.
     Accept linear search using points  1 and  2.
 Gradient too large for Newton-Raphson -- use scaled steepest descent instead.
     Accept linear search using points  2 and  3.
     Minimum is close to point  3 DX= -5.79D-02 DF= -4.84D-07 DXR=  3.33D-02 DFR=  9.22D-04 which will be used.
 Gradient too large for Newton-Raphson -- use scaled steepest descent instead.
     Accept linear search using points  1 and  2.
 Gradient too large for Newton-Raphson -- use scaled steepest descent instead.
     Minimum is close to point  3 DX=  1.41D-01 DF= -2.98D-06 DXR=  7.24D-02 DFR=  5.28D-03 which will be used.
 Gradient too large for Newton-Raphson -- use scaled steepest descent instead.
     Minimum is close to point  3 DX= -1.74D-02 DF= -6.66D-07 DXR=  3.61D-02 DFR=  1.31D-03 which will be used.
 Gradient too large for Newton-Raphson -- use scaled steepest descent instead.
 Gradient too large for Newton-Raphson -- use scaled steepest descent instead.
     Accept linear search using points  1 and  2.
 Gradient too large for Newton-Raphson -- use scaled steepest descent instead.
 Gradient too large for Newton-Raphson -- use scaled steepest descent instead.
     Minimum is close to point  3 DX= -3.99D-02 DF= -4.47D-06 DXR=  8.67D-02 DFR=  7.58D-03 which will be used.
 Gradient too large for Newton-Raphson -- use scaled steepest descent instead.
 Gradient too large for Newton-Raphson -- use scaled steepest descent instead.
     Accept linear search using points  1 and  2.
 Gradient too large for Newton-Raphson -- use scaled steepest descent instead.
     Accept linear search using points  3 and  4.
     Minimum is close to point  4 DX= -1.81D-01 DF= -4.13D-06 DXR=  6.43D-02 DFR=  5.55D-03 which will be used.
 Gradient too large for Newton-Raphson -- use scaled steepest descent instead.
     Minimum is close to point  3 DX=  2.13D-02 DF= -2.36D-06 DXR=  5.06D-02 DFR=  2.56D-03 which will be used.
 Gradient too large for Newton-Raphson -- use scaled steepest descent instead.
 Gradient too large for Newton-Raphson -- use scaled steepest descent instead.
     Minimum is close to point  4 DX= -1.04D-02 DF= -1.70D-06 DXR=  2.67D-02 DFR=  7.14D-04 which will be used.
 Gradient too large for Newton-Raphson -- use scaled steepest descent instead.
     Minimum is close to point  3 DX= -3.33D-01 DF= -8.28D-06 DXR=  9.34D-02 DFR=  8.85D-03 which will be used.
 Gradient too large for Newton-Raphson -- use scaled steepest descent instead.
     Minimum is close to point  3 DX=  1.01D-02 DF= -6.60D-07 DXR=  2.47D-02 DFR=  6.09D-04 which will be used.
 Gradient too large for Newton-Raphson -- use scaled steepest descent instead.
     Accept linear search using points  4 and  5.
 Gradient too large for Newton-Raphson -- use scaled steepest descent instead.
 Gradient too large for Newton-Raphson -- use scaled steepest descent instead.
     Minimum is close to point  4 DX= -4.31D-01 DF= -5.97D-06 DXR=  6.46D-02 DFR=  4.26D-03 which will be used.
 Gradient too large for Newton-Raphson -- use scaled steepest descent instead.
 Gradient too large for Newton-Raphson -- use scaled steepest descent instead.
 Gradient too large for Newton-Raphson -- use scaled steepest descent instead.
     Accept linear search using points  1 and  2.
 Gradient too large for Newton-Raphson -- use scaled steepest descent instead.
 Gradient too large for Newton-Raphson -- use scaled steepest descent instead.
     Accept linear search using points  1 and  2.
 Gradient too large for Newton-Raphson -- use scaled steepest descent instead.
     Minimum is close to point  3 DX=  1.76D-01 DF= -3.15D-06 DXR=  9.90D-02 DFR=  9.90D-03 which will be used.
 Gradient too large for Newton-Raphson -- use scaled steepest descent instead.
     Accept linear search using points  1 and  2.
 Gradient too large for Newton-Raphson -- use scaled steepest descent instead.
     Accept linear search using points  2 and  3.
 Gradient too large for Newton-Raphson -- use scaled steepest descent instead.
     Accept linear search using points  1 and  2.
 LinEq1:  Iter=  0 NonCon=     1 RMS=1.56D-04 Max=1.34D-02 NDo=     1
 AX will form     1 AO Fock derivatives at one time.
 LinEq1:  Iter=  1 NonCon=     1 RMS=1.26D-04 Max=3.91D-03 NDo=     1
 LinEq1:  Iter=  2 NonCon=     1 RMS=5.57D-05 Max=3.19D-03 NDo=     1
 LinEq1:  Iter=  3 NonCon=     1 RMS=3.42D-05 Max=1.53D-03 NDo=     1
 LinEq1:  Iter=  4 NonCon=     1 RMS=3.07D-05 Max=1.56D-03 NDo=     1
 LinEq1:  Iter=  5 NonCon=     1 RMS=2.53D-05 Max=1.06D-03 NDo=     1
 LinEq1:  Iter=  6 NonCon=     1 RMS=2.27D-05 Max=9.78D-04 NDo=     1
 LinEq1:  Iter=  7 NonCon=     1 RMS=2.00D-05 Max=9.09D-04 NDo=     1
 LinEq1:  Iter=  8 NonCon=     1 RMS=2.03D-05 Max=7.64D-04 NDo=     1
 LinEq1:  Iter=  9 NonCon=     1 RMS=1.51D-05 Max=6.97D-04 NDo=     1
 LinEq1:  Iter= 10 NonCon=     1 RMS=1.14D-05 Max=4.45D-04 NDo=     1
 LinEq1:  Iter= 11 NonCon=     1 RMS=9.78D-06 Max=2.84D-04 NDo=     1
 LinEq1:  Iter= 12 NonCon=     1 RMS=7.53D-06 Max=1.91D-04 NDo=     1
 LinEq1:  Iter= 13 NonCon=     1 RMS=6.73D-06 Max=2.20D-04 NDo=     1
 LinEq1:  Iter= 14 NonCon=     1 RMS=5.14D-06 Max=1.59D-04 NDo=     1
 LinEq1:  Iter= 15 NonCon=     1 RMS=5.17D-06 Max=1.42D-04 NDo=     1
 LinEq1:  Iter= 16 NonCon=     1 RMS=3.82D-06 Max=1.01D-04 NDo=     1
 LinEq1:  Iter= 17 NonCon=     1 RMS=2.68D-06 Max=7.47D-05 NDo=     1
 LinEq1:  Iter= 18 NonCon=     1 RMS=2.32D-06 Max=6.27D-05 NDo=     1
 LinEq1:  Iter= 19 NonCon=     1 RMS=2.07D-06 Max=5.59D-05 NDo=     1
 LinEq1:  Iter= 20 NonCon=     1 RMS=1.87D-06 Max=4.50D-05 NDo=     1
 LinEq1:  Iter= 21 NonCon=     1 RMS=1.26D-06 Max=3.83D-05 NDo=     1
 LinEq1:  Iter= 22 NonCon=     1 RMS=9.50D-07 Max=2.74D-05 NDo=     1
 LinEq1:  Iter= 23 NonCon=     1 RMS=5.47D-07 Max=1.60D-05 NDo=     1
 LinEq1:  Iter= 24 NonCon=     1 RMS=3.93D-07 Max=1.14D-05 NDo=     1
 LinEq1:  Iter= 25 NonCon=     1 RMS=2.73D-07 Max=7.02D-06 NDo=     1
 LinEq1:  Iter= 26 NonCon=     1 RMS=1.88D-07 Max=5.13D-06 NDo=     1
 LinEq1:  Iter= 27 NonCon=     1 RMS=1.35D-07 Max=2.35D-06 NDo=     1
 LinEq1:  Iter= 28 NonCon=     1 RMS=8.85D-08 Max=1.69D-06 NDo=     1
 LinEq1:  Iter= 29 NonCon=     1 RMS=6.18D-08 Max=1.41D-06 NDo=     1
 LinEq1:  Iter= 30 NonCon=     1 RMS=3.74D-08 Max=8.68D-07 NDo=     1
 LinEq1:  Iter= 31 NonCon=     1 RMS=2.21D-08 Max=5.48D-07 NDo=     1
 LinEq1:  Iter= 32 NonCon=     0 RMS=1.30D-08 Max=2.35D-07 NDo=     1
 Linear equations converged to 2.991D-08 2.991D-07 after    32 iterations.
 Gradient too large for Newton-Raphson -- use scaled steepest descent instead.
     Minimum is close to point  3 DX=  1.85D-01 DF= -7.00D-06 DXR=  9.80D-02 DFR=  9.70D-03 which will be used.
 Gradient too large for Newton-Raphson -- use scaled steepest descent instead.
     Minimum is close to point  3 DX=  1.55D-02 DF= -5.71D-07 DXR=  3.73D-02 DFR=  1.39D-03 which will be used.
 LinEq1:  Iter=  0 NonCon=     1 RMS=1.19D-04 Max=1.02D-02 NDo=     1
 LinEq1:  Iter=  1 NonCon=     1 RMS=1.68D-04 Max=7.95D-03 NDo=     1
 LinEq1:  Iter=  2 NonCon=     1 RMS=5.58D-05 Max=1.97D-03 NDo=     1
 LinEq1:  Iter=  3 NonCon=     1 RMS=5.24D-05 Max=2.54D-03 NDo=     1
 LinEq1:  Iter=  4 NonCon=     1 RMS=5.33D-05 Max=2.06D-03 NDo=     1
 LinEq1:  Iter=  5 NonCon=     1 RMS=3.51D-05 Max=1.15D-03 NDo=     1
 LinEq1:  Iter=  6 NonCon=     1 RMS=3.00D-05 Max=1.11D-03 NDo=     1
 LinEq1:  Iter=  7 NonCon=     1 RMS=3.19D-05 Max=1.44D-03 NDo=     1
 LinEq1:  Iter=  8 NonCon=     1 RMS=2.19D-05 Max=8.70D-04 NDo=     1
 LinEq1:  Iter=  9 NonCon=     1 RMS=2.15D-05 Max=7.15D-04 NDo=     1
 LinEq1:  Iter= 10 NonCon=     1 RMS=1.94D-05 Max=7.40D-04 NDo=     1
 LinEq1:  Iter= 11 NonCon=     1 RMS=1.62D-05 Max=4.53D-04 NDo=     1
 LinEq1:  Iter= 12 NonCon=     1 RMS=1.26D-05 Max=6.19D-04 NDo=     1
 LinEq1:  Iter= 13 NonCon=     1 RMS=1.13D-05 Max=3.57D-04 NDo=     1
 LinEq1:  Iter= 14 NonCon=     1 RMS=9.80D-06 Max=4.77D-04 NDo=     1
 LinEq1:  Iter= 15 NonCon=     1 RMS=9.05D-06 Max=2.99D-04 NDo=     1
 LinEq1:  Iter= 16 NonCon=     1 RMS=6.76D-06 Max=1.36D-04 NDo=     1
 LinEq1:  Iter= 17 NonCon=     1 RMS=6.08D-06 Max=2.22D-04 NDo=     1
 LinEq1:  Iter= 18 NonCon=     1 RMS=4.70D-06 Max=1.59D-04 NDo=     1
 LinEq1:  Iter= 19 NonCon=     1 RMS=3.72D-06 Max=1.74D-04 NDo=     1
 LinEq1:  Iter= 20 NonCon=     1 RMS=2.40D-06 Max=1.26D-04 NDo=     1
 LinEq1:  Iter= 21 NonCon=     1 RMS=1.49D-06 Max=6.29D-05 NDo=     1
 LinEq1:  Iter= 22 NonCon=     1 RMS=1.09D-06 Max=5.74D-05 NDo=     1
 LinEq1:  Iter= 23 NonCon=     1 RMS=6.98D-07 Max=3.35D-05 NDo=     1
 LinEq1:  Iter= 24 NonCon=     1 RMS=4.72D-07 Max=1.46D-05 NDo=     1
 LinEq1:  Iter= 25 NonCon=     1 RMS=3.02D-07 Max=9.12D-06 NDo=     1
 LinEq1:  Iter= 26 NonCon=     1 RMS=1.69D-07 Max=3.92D-06 NDo=     1
 LinEq1:  Iter= 27 NonCon=     1 RMS=1.20D-07 Max=3.75D-06 NDo=     1
 LinEq1:  Iter= 28 NonCon=     1 RMS=7.38D-08 Max=1.97D-06 NDo=     1
 LinEq1:  Iter= 29 NonCon=     1 RMS=4.43D-08 Max=9.86D-07 NDo=     1
 LinEq1:  Iter= 30 NonCon=     1 RMS=2.67D-08 Max=5.43D-07 NDo=     1
 LinEq1:  Iter= 31 NonCon=     1 RMS=1.94D-08 Max=3.44D-07 NDo=     1
 LinEq1:  Iter= 32 NonCon=     0 RMS=1.14D-08 Max=2.34D-07 NDo=     1
 Linear equations converged to 2.991D-08 2.991D-07 after    32 iterations.
 Incorrect curvature in search direction -- initial direction reversed.
 LinEq1:  Iter=  0 NonCon=     1 RMS=1.25D-04 Max=1.10D-02 NDo=     1
 LinEq1:  Iter=  1 NonCon=     1 RMS=1.72D-04 Max=8.50D-03 NDo=     1
 LinEq1:  Iter=  2 NonCon=     1 RMS=6.50D-05 Max=2.12D-03 NDo=     1
 LinEq1:  Iter=  3 NonCon=     1 RMS=6.15D-05 Max=2.70D-03 NDo=     1
 LinEq1:  Iter=  4 NonCon=     1 RMS=5.92D-05 Max=2.46D-03 NDo=     1
 LinEq1:  Iter=  5 NonCon=     1 RMS=4.20D-05 Max=1.37D-03 NDo=     1
 LinEq1:  Iter=  6 NonCon=     1 RMS=3.67D-05 Max=1.39D-03 NDo=     1
 LinEq1:  Iter=  7 NonCon=     1 RMS=3.61D-05 Max=1.42D-03 NDo=     1
 LinEq1:  Iter=  8 NonCon=     1 RMS=2.87D-05 Max=1.00D-03 NDo=     1
 LinEq1:  Iter=  9 NonCon=     1 RMS=2.67D-05 Max=8.75D-04 NDo=     1
 LinEq1:  Iter= 10 NonCon=     1 RMS=2.36D-05 Max=7.75D-04 NDo=     1
 LinEq1:  Iter= 11 NonCon=     1 RMS=2.28D-05 Max=6.58D-04 NDo=     1
 LinEq1:  Iter= 12 NonCon=     1 RMS=1.58D-05 Max=7.56D-04 NDo=     1
 LinEq1:  Iter= 13 NonCon=     1 RMS=1.27D-05 Max=4.13D-04 NDo=     1
 LinEq1:  Iter= 14 NonCon=     1 RMS=1.15D-05 Max=6.35D-04 NDo=     1
 LinEq1:  Iter= 15 NonCon=     1 RMS=1.04D-05 Max=2.75D-04 NDo=     1
 LinEq1:  Iter= 16 NonCon=     1 RMS=7.90D-06 Max=2.34D-04 NDo=     1
 LinEq1:  Iter= 17 NonCon=     1 RMS=7.11D-06 Max=2.95D-04 NDo=     1
 LinEq1:  Iter= 18 NonCon=     1 RMS=5.93D-06 Max=1.70D-04 NDo=     1
 LinEq1:  Iter= 19 NonCon=     1 RMS=4.59D-06 Max=1.46D-04 NDo=     1
 LinEq1:  Iter= 20 NonCon=     1 RMS=3.11D-06 Max=1.36D-04 NDo=     1
 LinEq1:  Iter= 21 NonCon=     1 RMS=2.23D-06 Max=9.69D-05 NDo=     1
 LinEq1:  Iter= 22 NonCon=     1 RMS=1.44D-06 Max=6.01D-05 NDo=     1
 LinEq1:  Iter= 23 NonCon=     1 RMS=9.70D-07 Max=3.75D-05 NDo=     1
 LinEq1:  Iter= 24 NonCon=     1 RMS=7.21D-07 Max=1.78D-05 NDo=     1
 LinEq1:  Iter= 25 NonCon=     1 RMS=4.16D-07 Max=7.73D-06 NDo=     1
 LinEq1:  Iter= 26 NonCon=     1 RMS=2.68D-07 Max=3.90D-06 NDo=     1
 LinEq1:  Iter= 27 NonCon=     1 RMS=1.83D-07 Max=3.98D-06 NDo=     1
 LinEq1:  Iter= 28 NonCon=     1 RMS=1.01D-07 Max=1.85D-06 NDo=     1
 LinEq1:  Iter= 29 NonCon=     1 RMS=6.12D-08 Max=2.02D-06 NDo=     1
 LinEq1:  Iter= 30 NonCon=     1 RMS=4.03D-08 Max=9.91D-07 NDo=     1
 LinEq1:  Iter= 31 NonCon=     1 RMS=2.81D-08 Max=6.65D-07 NDo=     1
 LinEq1:  Iter= 32 NonCon=     1 RMS=1.40D-08 Max=4.29D-07 NDo=     1
 LinEq1:  Iter= 33 NonCon=     0 RMS=8.05D-09 Max=1.73D-07 NDo=     1
 Linear equations converged to 2.991D-08 2.991D-07 after    33 iterations.
 LinEq1:  Iter=  0 NonCon=     1 RMS=1.17D-04 Max=9.12D-03 NDo=     1
 LinEq1:  Iter=  1 NonCon=     1 RMS=1.41D-04 Max=7.37D-03 NDo=     1
 LinEq1:  Iter=  2 NonCon=     1 RMS=9.07D-05 Max=2.97D-03 NDo=     1
 LinEq1:  Iter=  3 NonCon=     1 RMS=8.83D-05 Max=3.20D-03 NDo=     1
 LinEq1:  Iter=  4 NonCon=     1 RMS=7.47D-05 Max=3.18D-03 NDo=     1
 LinEq1:  Iter=  5 NonCon=     1 RMS=6.30D-05 Max=2.61D-03 NDo=     1
 LinEq1:  Iter=  6 NonCon=     1 RMS=5.55D-05 Max=2.44D-03 NDo=     1
 LinEq1:  Iter=  7 NonCon=     1 RMS=5.07D-05 Max=1.50D-03 NDo=     1
 LinEq1:  Iter=  8 NonCon=     1 RMS=4.25D-05 Max=1.27D-03 NDo=     1
 LinEq1:  Iter=  9 NonCon=     1 RMS=3.91D-05 Max=1.15D-03 NDo=     1
 LinEq1:  Iter= 10 NonCon=     1 RMS=3.47D-05 Max=7.90D-04 NDo=     1
 LinEq1:  Iter= 11 NonCon=     1 RMS=3.19D-05 Max=6.85D-04 NDo=     1
 LinEq1:  Iter= 12 NonCon=     1 RMS=2.33D-05 Max=7.61D-04 NDo=     1
 LinEq1:  Iter= 13 NonCon=     1 RMS=1.89D-05 Max=6.23D-04 NDo=     1
 LinEq1:  Iter= 14 NonCon=     1 RMS=1.48D-05 Max=7.44D-04 NDo=     1
 LinEq1:  Iter= 15 NonCon=     1 RMS=1.18D-05 Max=4.65D-04 NDo=     1
 LinEq1:  Iter= 16 NonCon=     1 RMS=9.01D-06 Max=4.61D-04 NDo=     1
 LinEq1:  Iter= 17 NonCon=     1 RMS=6.78D-06 Max=2.16D-04 NDo=     1
 LinEq1:  Iter= 18 NonCon=     1 RMS=5.32D-06 Max=1.74D-04 NDo=     1
 LinEq1:  Iter= 19 NonCon=     1 RMS=4.05D-06 Max=1.19D-04 NDo=     1
 LinEq1:  Iter= 20 NonCon=     1 RMS=4.17D-06 Max=1.87D-04 NDo=     1
 LinEq1:  Iter= 21 NonCon=     1 RMS=3.70D-06 Max=9.86D-05 NDo=     1
 LinEq1:  Iter= 22 NonCon=     1 RMS=2.39D-06 Max=7.16D-05 NDo=     1
 LinEq1:  Iter= 23 NonCon=     1 RMS=1.70D-06 Max=3.29D-05 NDo=     1
 LinEq1:  Iter= 24 NonCon=     1 RMS=1.08D-06 Max=3.20D-05 NDo=     1
 LinEq1:  Iter= 25 NonCon=     1 RMS=7.44D-07 Max=2.19D-05 NDo=     1
 LinEq1:  Iter= 26 NonCon=     1 RMS=5.05D-07 Max=1.78D-05 NDo=     1
 LinEq1:  Iter= 27 NonCon=     1 RMS=2.95D-07 Max=9.33D-06 NDo=     1
 LinEq1:  Iter= 28 NonCon=     1 RMS=1.73D-07 Max=4.37D-06 NDo=     1
 LinEq1:  Iter= 29 NonCon=     1 RMS=9.83D-08 Max=2.50D-06 NDo=     1
 LinEq1:  Iter= 30 NonCon=     1 RMS=6.85D-08 Max=2.18D-06 NDo=     1
 LinEq1:  Iter= 31 NonCon=     1 RMS=4.03D-08 Max=1.36D-06 NDo=     1
 LinEq1:  Iter= 32 NonCon=     1 RMS=2.16D-08 Max=5.59D-07 NDo=     1
 LinEq1:  Iter= 33 NonCon=     1 RMS=1.56D-08 Max=4.38D-07 NDo=     1
 LinEq1:  Iter= 34 NonCon=     0 RMS=8.29D-09 Max=1.74D-07 NDo=     1
 Linear equations converged to 2.991D-08 2.991D-07 after    34 iterations.
     Minimum is close to point  3 DX= -2.85D-02 DF= -7.33D-06 DXR=  6.06D-02 DFR=  3.68D-03 which will be used.
 LinEq1:  Iter=  0 NonCon=     1 RMS=7.72D-05 Max=2.30D-03 NDo=     1
 LinEq1:  Iter=  1 NonCon=     1 RMS=9.63D-05 Max=4.59D-03 NDo=     1
 LinEq1:  Iter=  2 NonCon=     1 RMS=6.22D-05 Max=1.68D-03 NDo=     1
 LinEq1:  Iter=  3 NonCon=     1 RMS=6.51D-05 Max=2.55D-03 NDo=     1
 LinEq1:  Iter=  4 NonCon=     1 RMS=4.51D-05 Max=1.05D-03 NDo=     1
 LinEq1:  Iter=  5 NonCon=     1 RMS=4.70D-05 Max=1.89D-03 NDo=     1
 LinEq1:  Iter=  6 NonCon=     1 RMS=4.19D-05 Max=1.58D-03 NDo=     1
 LinEq1:  Iter=  7 NonCon=     1 RMS=3.82D-05 Max=1.17D-03 NDo=     1
 LinEq1:  Iter=  8 NonCon=     1 RMS=3.61D-05 Max=1.09D-03 NDo=     1
 LinEq1:  Iter=  9 NonCon=     1 RMS=3.27D-05 Max=8.92D-04 NDo=     1
 LinEq1:  Iter= 10 NonCon=     1 RMS=2.76D-05 Max=6.35D-04 NDo=     1
 LinEq1:  Iter= 11 NonCon=     1 RMS=2.58D-05 Max=7.94D-04 NDo=     1
 LinEq1:  Iter= 12 NonCon=     1 RMS=2.07D-05 Max=6.01D-04 NDo=     1
 LinEq1:  Iter= 13 NonCon=     1 RMS=1.72D-05 Max=5.10D-04 NDo=     1
 LinEq1:  Iter= 14 NonCon=     1 RMS=1.53D-05 Max=4.88D-04 NDo=     1
 LinEq1:  Iter= 15 NonCon=     1 RMS=1.45D-05 Max=3.82D-04 NDo=     1
 LinEq1:  Iter= 16 NonCon=     1 RMS=1.12D-05 Max=2.19D-04 NDo=     1
 LinEq1:  Iter= 17 NonCon=     1 RMS=9.52D-06 Max=3.42D-04 NDo=     1
 LinEq1:  Iter= 18 NonCon=     1 RMS=6.78D-06 Max=1.82D-04 NDo=     1
 LinEq1:  Iter= 19 NonCon=     1 RMS=5.14D-06 Max=1.08D-04 NDo=     1
 LinEq1:  Iter= 20 NonCon=     1 RMS=3.85D-06 Max=9.76D-05 NDo=     1
 LinEq1:  Iter= 21 NonCon=     1 RMS=2.82D-06 Max=8.61D-05 NDo=     1
 LinEq1:  Iter= 22 NonCon=     1 RMS=1.53D-06 Max=7.22D-05 NDo=     1
 LinEq1:  Iter= 23 NonCon=     1 RMS=1.12D-06 Max=4.37D-05 NDo=     1
 LinEq1:  Iter= 24 NonCon=     1 RMS=6.86D-07 Max=3.90D-05 NDo=     1
 LinEq1:  Iter= 25 NonCon=     1 RMS=4.64D-07 Max=2.00D-05 NDo=     1
 LinEq1:  Iter= 26 NonCon=     1 RMS=3.18D-07 Max=1.31D-05 NDo=     1
 LinEq1:  Iter= 27 NonCon=     1 RMS=1.74D-07 Max=5.93D-06 NDo=     1
 LinEq1:  Iter= 28 NonCon=     1 RMS=1.11D-07 Max=3.32D-06 NDo=     1
 LinEq1:  Iter= 29 NonCon=     1 RMS=6.96D-08 Max=1.87D-06 NDo=     1
 LinEq1:  Iter= 30 NonCon=     1 RMS=3.67D-08 Max=1.08D-06 NDo=     1
 LinEq1:  Iter= 31 NonCon=     1 RMS=2.02D-08 Max=4.24D-07 NDo=     1
 LinEq1:  Iter= 32 NonCon=     1 RMS=1.23D-08 Max=3.08D-07 NDo=     1
 LinEq1:  Iter= 33 NonCon=     0 RMS=7.22D-09 Max=2.69D-07 NDo=     1
 Linear equations converged to 2.991D-08 2.991D-07 after    33 iterations.
 LinEq1:  Iter=  0 NonCon=     1 RMS=7.65D-05 Max=2.26D-03 NDo=     1
 LinEq1:  Iter=  1 NonCon=     1 RMS=9.50D-05 Max=4.47D-03 NDo=     1
 LinEq1:  Iter=  2 NonCon=     1 RMS=6.14D-05 Max=1.60D-03 NDo=     1
 LinEq1:  Iter=  3 NonCon=     1 RMS=6.43D-05 Max=2.44D-03 NDo=     1
 LinEq1:  Iter=  4 NonCon=     1 RMS=4.47D-05 Max=1.07D-03 NDo=     1
 LinEq1:  Iter=  5 NonCon=     1 RMS=4.63D-05 Max=1.76D-03 NDo=     1
 LinEq1:  Iter=  6 NonCon=     1 RMS=4.12D-05 Max=1.56D-03 NDo=     1
 LinEq1:  Iter=  7 NonCon=     1 RMS=3.74D-05 Max=1.08D-03 NDo=     1
 LinEq1:  Iter=  8 NonCon=     1 RMS=3.57D-05 Max=1.06D-03 NDo=     1
 LinEq1:  Iter=  9 NonCon=     1 RMS=3.22D-05 Max=8.81D-04 NDo=     1
 LinEq1:  Iter= 10 NonCon=     1 RMS=2.73D-05 Max=6.19D-04 NDo=     1
 LinEq1:  Iter= 11 NonCon=     1 RMS=2.54D-05 Max=8.13D-04 NDo=     1
 LinEq1:  Iter= 12 NonCon=     1 RMS=2.05D-05 Max=5.86D-04 NDo=     1
 LinEq1:  Iter= 13 NonCon=     1 RMS=1.70D-05 Max=4.95D-04 NDo=     1
 LinEq1:  Iter= 14 NonCon=     1 RMS=1.51D-05 Max=4.89D-04 NDo=     1
 LinEq1:  Iter= 15 NonCon=     1 RMS=1.43D-05 Max=3.77D-04 NDo=     1
 LinEq1:  Iter= 16 NonCon=     1 RMS=1.10D-05 Max=1.98D-04 NDo=     1
 LinEq1:  Iter= 17 NonCon=     1 RMS=9.29D-06 Max=3.41D-04 NDo=     1
 LinEq1:  Iter= 18 NonCon=     1 RMS=6.56D-06 Max=1.90D-04 NDo=     1
 LinEq1:  Iter= 19 NonCon=     1 RMS=5.09D-06 Max=1.09D-04 NDo=     1
 LinEq1:  Iter= 20 NonCon=     1 RMS=3.74D-06 Max=9.03D-05 NDo=     1
 LinEq1:  Iter= 21 NonCon=     1 RMS=2.81D-06 Max=6.96D-05 NDo=     1
 LinEq1:  Iter= 22 NonCon=     1 RMS=1.46D-06 Max=5.37D-05 NDo=     1
 LinEq1:  Iter= 23 NonCon=     1 RMS=1.06D-06 Max=3.82D-05 NDo=     1
 LinEq1:  Iter= 24 NonCon=     1 RMS=6.63D-07 Max=3.61D-05 NDo=     1
 LinEq1:  Iter= 25 NonCon=     1 RMS=4.42D-07 Max=1.76D-05 NDo=     1
 LinEq1:  Iter= 26 NonCon=     1 RMS=3.06D-07 Max=1.32D-05 NDo=     1
 LinEq1:  Iter= 27 NonCon=     1 RMS=1.71D-07 Max=5.64D-06 NDo=     1
 LinEq1:  Iter= 28 NonCon=     1 RMS=1.13D-07 Max=4.15D-06 NDo=     1
 LinEq1:  Iter= 29 NonCon=     1 RMS=6.75D-08 Max=2.24D-06 NDo=     1
 LinEq1:  Iter= 30 NonCon=     1 RMS=3.84D-08 Max=1.38D-06 NDo=     1
 LinEq1:  Iter= 31 NonCon=     1 RMS=2.11D-08 Max=6.41D-07 NDo=     1
 LinEq1:  Iter= 32 NonCon=     1 RMS=1.28D-08 Max=4.04D-07 NDo=     1
 LinEq1:  Iter= 33 NonCon=     0 RMS=7.71D-09 Max=2.89D-07 NDo=     1
 Linear equations converged to 2.991D-08 2.991D-07 after    33 iterations.
 LinEq1:  Iter=  0 NonCon=     1 RMS=5.92D-05 Max=1.59D-03 NDo=     1
 LinEq1:  Iter=  1 NonCon=     1 RMS=7.25D-05 Max=3.46D-03 NDo=     1
 LinEq1:  Iter=  2 NonCon=     1 RMS=5.03D-05 Max=1.23D-03 NDo=     1
 LinEq1:  Iter=  3 NonCon=     1 RMS=5.02D-05 Max=1.77D-03 NDo=     1
 LinEq1:  Iter=  4 NonCon=     1 RMS=3.91D-05 Max=8.77D-04 NDo=     1
 LinEq1:  Iter=  5 NonCon=     1 RMS=3.90D-05 Max=1.36D-03 NDo=     1
 LinEq1:  Iter=  6 NonCon=     1 RMS=3.53D-05 Max=1.13D-03 NDo=     1
 LinEq1:  Iter=  7 NonCon=     1 RMS=3.18D-05 Max=9.24D-04 NDo=     1
 LinEq1:  Iter=  8 NonCon=     1 RMS=3.03D-05 Max=8.25D-04 NDo=     1
 LinEq1:  Iter=  9 NonCon=     1 RMS=2.62D-05 Max=6.09D-04 NDo=     1
 LinEq1:  Iter= 10 NonCon=     1 RMS=2.28D-05 Max=5.92D-04 NDo=     1
 LinEq1:  Iter= 11 NonCon=     1 RMS=2.09D-05 Max=5.96D-04 NDo=     1
 LinEq1:  Iter= 12 NonCon=     1 RMS=1.75D-05 Max=3.61D-04 NDo=     1
 LinEq1:  Iter= 13 NonCon=     1 RMS=1.40D-05 Max=3.34D-04 NDo=     1
 LinEq1:  Iter= 14 NonCon=     1 RMS=1.35D-05 Max=4.00D-04 NDo=     1
 LinEq1:  Iter= 15 NonCon=     1 RMS=1.16D-05 Max=3.19D-04 NDo=     1
 LinEq1:  Iter= 16 NonCon=     1 RMS=1.01D-05 Max=2.57D-04 NDo=     1
 LinEq1:  Iter= 17 NonCon=     1 RMS=7.69D-06 Max=2.29D-04 NDo=     1
 LinEq1:  Iter= 18 NonCon=     1 RMS=6.45D-06 Max=2.15D-04 NDo=     1
 LinEq1:  Iter= 19 NonCon=     1 RMS=3.93D-06 Max=7.38D-05 NDo=     1
 LinEq1:  Iter= 20 NonCon=     1 RMS=3.20D-06 Max=8.82D-05 NDo=     1
 LinEq1:  Iter= 21 NonCon=     1 RMS=2.14D-06 Max=6.89D-05 NDo=     1
 LinEq1:  Iter= 22 NonCon=     1 RMS=1.33D-06 Max=5.82D-05 NDo=     1
 LinEq1:  Iter= 23 NonCon=     1 RMS=1.01D-06 Max=4.97D-05 NDo=     1
 LinEq1:  Iter= 24 NonCon=     1 RMS=5.39D-07 Max=2.40D-05 NDo=     1
 LinEq1:  Iter= 25 NonCon=     1 RMS=4.22D-07 Max=1.40D-05 NDo=     1
 LinEq1:  Iter= 26 NonCon=     1 RMS=2.68D-07 Max=8.99D-06 NDo=     1
 LinEq1:  Iter= 27 NonCon=     1 RMS=1.49D-07 Max=4.50D-06 NDo=     1
 LinEq1:  Iter= 28 NonCon=     1 RMS=9.59D-08 Max=2.63D-06 NDo=     1
 LinEq1:  Iter= 29 NonCon=     1 RMS=6.33D-08 Max=1.77D-06 NDo=     1
 LinEq1:  Iter= 30 NonCon=     1 RMS=3.22D-08 Max=9.62D-07 NDo=     1
 LinEq1:  Iter= 31 NonCon=     1 RMS=2.03D-08 Max=8.36D-07 NDo=     1
 LinEq1:  Iter= 32 NonCon=     1 RMS=9.15D-09 Max=3.61D-07 NDo=     1
 LinEq1:  Iter= 33 NonCon=     0 RMS=5.74D-09 Max=1.68D-07 NDo=     1
 Linear equations converged to 2.991D-08 2.991D-07 after    33 iterations.
 LinEq1:  Iter=  0 NonCon=     1 RMS=4.84D-05 Max=1.21D-03 NDo=     1
 LinEq1:  Iter=  1 NonCon=     1 RMS=6.15D-05 Max=2.95D-03 NDo=     1
 LinEq1:  Iter=  2 NonCon=     1 RMS=4.61D-05 Max=1.24D-03 NDo=     1
 LinEq1:  Iter=  3 NonCon=     1 RMS=4.58D-05 Max=1.90D-03 NDo=     1
 LinEq1:  Iter=  4 NonCon=     1 RMS=3.76D-05 Max=9.09D-04 NDo=     1
 LinEq1:  Iter=  5 NonCon=     1 RMS=3.94D-05 Max=8.79D-04 NDo=     1
 LinEq1:  Iter=  6 NonCon=     1 RMS=3.17D-05 Max=8.43D-04 NDo=     1
 LinEq1:  Iter=  7 NonCon=     1 RMS=2.81D-05 Max=8.91D-04 NDo=     1
 LinEq1:  Iter=  8 NonCon=     1 RMS=2.57D-05 Max=7.04D-04 NDo=     1
 LinEq1:  Iter=  9 NonCon=     1 RMS=2.14D-05 Max=6.44D-04 NDo=     1
 LinEq1:  Iter= 10 NonCon=     1 RMS=1.65D-05 Max=4.77D-04 NDo=     1
 LinEq1:  Iter= 11 NonCon=     1 RMS=1.63D-05 Max=6.37D-04 NDo=     1
 LinEq1:  Iter= 12 NonCon=     1 RMS=1.23D-05 Max=5.13D-04 NDo=     1
 LinEq1:  Iter= 13 NonCon=     1 RMS=1.09D-05 Max=2.84D-04 NDo=     1
 LinEq1:  Iter= 14 NonCon=     1 RMS=1.06D-05 Max=2.94D-04 NDo=     1
 LinEq1:  Iter= 15 NonCon=     1 RMS=8.47D-06 Max=2.20D-04 NDo=     1
 LinEq1:  Iter= 16 NonCon=     1 RMS=7.40D-06 Max=2.10D-04 NDo=     1
 LinEq1:  Iter= 17 NonCon=     1 RMS=5.84D-06 Max=1.46D-04 NDo=     1
 LinEq1:  Iter= 18 NonCon=     1 RMS=4.72D-06 Max=1.27D-04 NDo=     1
 LinEq1:  Iter= 19 NonCon=     1 RMS=3.04D-06 Max=5.20D-05 NDo=     1
 LinEq1:  Iter= 20 NonCon=     1 RMS=2.30D-06 Max=4.20D-05 NDo=     1
 LinEq1:  Iter= 21 NonCon=     1 RMS=1.64D-06 Max=4.11D-05 NDo=     1
 LinEq1:  Iter= 22 NonCon=     1 RMS=1.02D-06 Max=2.77D-05 NDo=     1
 LinEq1:  Iter= 23 NonCon=     1 RMS=7.14D-07 Max=2.30D-05 NDo=     1
 LinEq1:  Iter= 24 NonCon=     1 RMS=4.88D-07 Max=1.62D-05 NDo=     1
 LinEq1:  Iter= 25 NonCon=     1 RMS=3.48D-07 Max=1.01D-05 NDo=     1
 LinEq1:  Iter= 26 NonCon=     1 RMS=2.14D-07 Max=6.35D-06 NDo=     1
 LinEq1:  Iter= 27 NonCon=     1 RMS=1.34D-07 Max=3.11D-06 NDo=     1
 LinEq1:  Iter= 28 NonCon=     1 RMS=7.46D-08 Max=1.76D-06 NDo=     1
 LinEq1:  Iter= 29 NonCon=     1 RMS=5.16D-08 Max=1.66D-06 NDo=     1
 LinEq1:  Iter= 30 NonCon=     1 RMS=3.28D-08 Max=8.28D-07 NDo=     1
 LinEq1:  Iter= 31 NonCon=     1 RMS=1.97D-08 Max=4.36D-07 NDo=     1
 LinEq1:  Iter= 32 NonCon=     0 RMS=9.88D-09 Max=2.14D-07 NDo=     1
 Linear equations converged to 2.991D-08 2.991D-07 after    32 iterations.
     Accept linear search using points  1 and  2.
 LinEq1:  Iter=  0 NonCon=     1 RMS=3.14D-05 Max=9.51D-04 NDo=     1
 LinEq1:  Iter=  1 NonCon=     1 RMS=3.96D-05 Max=1.35D-03 NDo=     1
 LinEq1:  Iter=  2 NonCon=     1 RMS=3.31D-05 Max=7.59D-04 NDo=     1
 LinEq1:  Iter=  3 NonCon=     1 RMS=2.91D-05 Max=8.30D-04 NDo=     1
 LinEq1:  Iter=  4 NonCon=     1 RMS=2.67D-05 Max=7.73D-04 NDo=     1
 LinEq1:  Iter=  5 NonCon=     1 RMS=2.75D-05 Max=7.24D-04 NDo=     1
 LinEq1:  Iter=  6 NonCon=     1 RMS=2.22D-05 Max=4.93D-04 NDo=     1
 LinEq1:  Iter=  7 NonCon=     1 RMS=1.94D-05 Max=3.93D-04 NDo=     1
 LinEq1:  Iter=  8 NonCon=     1 RMS=1.70D-05 Max=3.48D-04 NDo=     1
 LinEq1:  Iter=  9 NonCon=     1 RMS=1.46D-05 Max=3.54D-04 NDo=     1
 LinEq1:  Iter= 10 NonCon=     1 RMS=1.10D-05 Max=2.32D-04 NDo=     1
 LinEq1:  Iter= 11 NonCon=     1 RMS=1.04D-05 Max=1.94D-04 NDo=     1
 LinEq1:  Iter= 12 NonCon=     1 RMS=8.56D-06 Max=2.00D-04 NDo=     1
 LinEq1:  Iter= 13 NonCon=     1 RMS=7.56D-06 Max=1.71D-04 NDo=     1
 LinEq1:  Iter= 14 NonCon=     1 RMS=7.21D-06 Max=1.77D-04 NDo=     1
 LinEq1:  Iter= 15 NonCon=     1 RMS=5.81D-06 Max=1.54D-04 NDo=     1
 LinEq1:  Iter= 16 NonCon=     1 RMS=4.71D-06 Max=1.21D-04 NDo=     1
 LinEq1:  Iter= 17 NonCon=     1 RMS=4.18D-06 Max=1.02D-04 NDo=     1
 LinEq1:  Iter= 18 NonCon=     1 RMS=2.86D-06 Max=6.27D-05 NDo=     1
 LinEq1:  Iter= 19 NonCon=     1 RMS=2.04D-06 Max=4.72D-05 NDo=     1
 LinEq1:  Iter= 20 NonCon=     1 RMS=1.49D-06 Max=3.19D-05 NDo=     1
 LinEq1:  Iter= 21 NonCon=     1 RMS=1.25D-06 Max=4.05D-05 NDo=     1
 LinEq1:  Iter= 22 NonCon=     1 RMS=6.38D-07 Max=1.61D-05 NDo=     1
 LinEq1:  Iter= 23 NonCon=     1 RMS=4.61D-07 Max=1.30D-05 NDo=     1
 LinEq1:  Iter= 24 NonCon=     1 RMS=2.91D-07 Max=7.61D-06 NDo=     1
 LinEq1:  Iter= 25 NonCon=     1 RMS=2.11D-07 Max=7.42D-06 NDo=     1
 LinEq1:  Iter= 26 NonCon=     1 RMS=1.36D-07 Max=3.73D-06 NDo=     1
 LinEq1:  Iter= 27 NonCon=     1 RMS=8.79D-08 Max=2.19D-06 NDo=     1
 LinEq1:  Iter= 28 NonCon=     1 RMS=4.70D-08 Max=1.59D-06 NDo=     1
 LinEq1:  Iter= 29 NonCon=     1 RMS=2.65D-08 Max=6.78D-07 NDo=     1
 LinEq1:  Iter= 30 NonCon=     1 RMS=1.76D-08 Max=5.30D-07 NDo=     1
 LinEq1:  Iter= 31 NonCon=     1 RMS=1.10D-08 Max=3.24D-07 NDo=     1
 LinEq1:  Iter= 32 NonCon=     0 RMS=5.73D-09 Max=1.37D-07 NDo=     1
 Linear equations converged to 2.991D-08 2.991D-07 after    32 iterations.
 Incorrect curvature in search direction -- initial direction reversed.
 LinEq1:  Iter=  0 NonCon=     1 RMS=4.43D-05 Max=1.37D-03 NDo=     1
 LinEq1:  Iter=  1 NonCon=     1 RMS=5.55D-05 Max=1.92D-03 NDo=     1
 LinEq1:  Iter=  2 NonCon=     1 RMS=4.67D-05 Max=1.11D-03 NDo=     1
 LinEq1:  Iter=  3 NonCon=     1 RMS=4.08D-05 Max=1.31D-03 NDo=     1
 LinEq1:  Iter=  4 NonCon=     1 RMS=3.74D-05 Max=1.03D-03 NDo=     1
 LinEq1:  Iter=  5 NonCon=     1 RMS=3.86D-05 Max=9.85D-04 NDo=     1
 LinEq1:  Iter=  6 NonCon=     1 RMS=3.08D-05 Max=6.59D-04 NDo=     1
 LinEq1:  Iter=  7 NonCon=     1 RMS=2.67D-05 Max=6.03D-04 NDo=     1
 LinEq1:  Iter=  8 NonCon=     1 RMS=2.36D-05 Max=5.17D-04 NDo=     1
 LinEq1:  Iter=  9 NonCon=     1 RMS=2.05D-05 Max=5.40D-04 NDo=     1
 LinEq1:  Iter= 10 NonCon=     1 RMS=1.51D-05 Max=3.28D-04 NDo=     1
 LinEq1:  Iter= 11 NonCon=     1 RMS=1.44D-05 Max=3.20D-04 NDo=     1
 LinEq1:  Iter= 12 NonCon=     1 RMS=1.21D-05 Max=3.13D-04 NDo=     1
 LinEq1:  Iter= 13 NonCon=     1 RMS=1.06D-05 Max=2.37D-04 NDo=     1
 LinEq1:  Iter= 14 NonCon=     1 RMS=1.02D-05 Max=2.56D-04 NDo=     1
 LinEq1:  Iter= 15 NonCon=     1 RMS=8.20D-06 Max=2.25D-04 NDo=     1
 LinEq1:  Iter= 16 NonCon=     1 RMS=6.58D-06 Max=1.70D-04 NDo=     1
 LinEq1:  Iter= 17 NonCon=     1 RMS=5.68D-06 Max=1.48D-04 NDo=     1
 LinEq1:  Iter= 18 NonCon=     1 RMS=4.10D-06 Max=1.00D-04 NDo=     1
 LinEq1:  Iter= 19 NonCon=     1 RMS=2.88D-06 Max=7.24D-05 NDo=     1
 LinEq1:  Iter= 20 NonCon=     1 RMS=2.14D-06 Max=5.66D-05 NDo=     1
 LinEq1:  Iter= 21 NonCon=     1 RMS=1.82D-06 Max=4.79D-05 NDo=     1
 LinEq1:  Iter= 22 NonCon=     1 RMS=9.95D-07 Max=3.51D-05 NDo=     1
 LinEq1:  Iter= 23 NonCon=     1 RMS=7.45D-07 Max=1.90D-05 NDo=     1
 LinEq1:  Iter= 24 NonCon=     1 RMS=4.27D-07 Max=9.23D-06 NDo=     1
 LinEq1:  Iter= 25 NonCon=     1 RMS=3.16D-07 Max=9.86D-06 NDo=     1
 LinEq1:  Iter= 26 NonCon=     1 RMS=2.03D-07 Max=4.91D-06 NDo=     1
 LinEq1:  Iter= 27 NonCon=     1 RMS=1.32D-07 Max=3.11D-06 NDo=     1
 LinEq1:  Iter= 28 NonCon=     1 RMS=7.47D-08 Max=2.14D-06 NDo=     1
 LinEq1:  Iter= 29 NonCon=     1 RMS=4.54D-08 Max=1.07D-06 NDo=     1
 LinEq1:  Iter= 30 NonCon=     1 RMS=3.11D-08 Max=9.44D-07 NDo=     1
 LinEq1:  Iter= 31 NonCon=     1 RMS=1.79D-08 Max=5.73D-07 NDo=     1
 LinEq1:  Iter= 32 NonCon=     1 RMS=1.07D-08 Max=3.35D-07 NDo=     1
 LinEq1:  Iter= 33 NonCon=     0 RMS=6.98D-09 Max=2.68D-07 NDo=     1
 Linear equations converged to 2.991D-08 2.991D-07 after    33 iterations.
 Incorrect curvature in search direction -- initial direction reversed.
 LinEq1:  Iter=  0 NonCon=     1 RMS=5.84D-05 Max=1.73D-03 NDo=     1
 LinEq1:  Iter=  1 NonCon=     1 RMS=7.27D-05 Max=2.54D-03 NDo=     1
 LinEq1:  Iter=  2 NonCon=     1 RMS=6.10D-05 Max=1.78D-03 NDo=     1
 LinEq1:  Iter=  3 NonCon=     1 RMS=5.36D-05 Max=1.86D-03 NDo=     1
 LinEq1:  Iter=  4 NonCon=     1 RMS=4.87D-05 Max=1.16D-03 NDo=     1
 LinEq1:  Iter=  5 NonCon=     1 RMS=5.07D-05 Max=1.36D-03 NDo=     1
 LinEq1:  Iter=  6 NonCon=     1 RMS=4.01D-05 Max=9.44D-04 NDo=     1
 LinEq1:  Iter=  7 NonCon=     1 RMS=3.45D-05 Max=9.07D-04 NDo=     1
 LinEq1:  Iter=  8 NonCon=     1 RMS=3.08D-05 Max=7.28D-04 NDo=     1
 LinEq1:  Iter=  9 NonCon=     1 RMS=2.68D-05 Max=6.45D-04 NDo=     1
 LinEq1:  Iter= 10 NonCon=     1 RMS=1.95D-05 Max=4.31D-04 NDo=     1
 LinEq1:  Iter= 11 NonCon=     1 RMS=1.87D-05 Max=4.76D-04 NDo=     1
 LinEq1:  Iter= 12 NonCon=     1 RMS=1.61D-05 Max=4.44D-04 NDo=     1
 LinEq1:  Iter= 13 NonCon=     1 RMS=1.40D-05 Max=3.16D-04 NDo=     1
 LinEq1:  Iter= 14 NonCon=     1 RMS=1.33D-05 Max=3.33D-04 NDo=     1
 LinEq1:  Iter= 15 NonCon=     1 RMS=1.07D-05 Max=2.89D-04 NDo=     1
 LinEq1:  Iter= 16 NonCon=     1 RMS=8.54D-06 Max=1.86D-04 NDo=     1
 LinEq1:  Iter= 17 NonCon=     1 RMS=7.23D-06 Max=1.67D-04 NDo=     1
 LinEq1:  Iter= 18 NonCon=     1 RMS=4.99D-06 Max=1.19D-04 NDo=     1
 LinEq1:  Iter= 19 NonCon=     1 RMS=3.83D-06 Max=9.80D-05 NDo=     1
 LinEq1:  Iter= 20 NonCon=     1 RMS=2.60D-06 Max=7.49D-05 NDo=     1
 LinEq1:  Iter= 21 NonCon=     1 RMS=2.40D-06 Max=6.93D-05 NDo=     1
 LinEq1:  Iter= 22 NonCon=     1 RMS=1.28D-06 Max=5.18D-05 NDo=     1
 LinEq1:  Iter= 23 NonCon=     1 RMS=9.13D-07 Max=2.43D-05 NDo=     1
 LinEq1:  Iter= 24 NonCon=     1 RMS=5.25D-07 Max=1.33D-05 NDo=     1
 LinEq1:  Iter= 25 NonCon=     1 RMS=3.47D-07 Max=8.98D-06 NDo=     1
 LinEq1:  Iter= 26 NonCon=     1 RMS=2.42D-07 Max=6.70D-06 NDo=     1
 LinEq1:  Iter= 27 NonCon=     1 RMS=1.64D-07 Max=3.87D-06 NDo=     1
 LinEq1:  Iter= 28 NonCon=     1 RMS=9.25D-08 Max=2.26D-06 NDo=     1
 LinEq1:  Iter= 29 NonCon=     1 RMS=6.08D-08 Max=1.42D-06 NDo=     1
 LinEq1:  Iter= 30 NonCon=     1 RMS=3.80D-08 Max=1.35D-06 NDo=     1
 LinEq1:  Iter= 31 NonCon=     1 RMS=2.39D-08 Max=9.18D-07 NDo=     1
 LinEq1:  Iter= 32 NonCon=     1 RMS=1.29D-08 Max=4.90D-07 NDo=     1
 LinEq1:  Iter= 33 NonCon=     1 RMS=9.02D-09 Max=3.76D-07 NDo=     1
 LinEq1:  Iter= 34 NonCon=     0 RMS=4.45D-09 Max=1.28D-07 NDo=     1
 Linear equations converged to 2.991D-08 2.991D-07 after    34 iterations.
 LinEq1:  Iter=  0 NonCon=     1 RMS=5.91D-05 Max=2.50D-03 NDo=     1
 LinEq1:  Iter=  1 NonCon=     1 RMS=6.17D-05 Max=3.27D-03 NDo=     1
 LinEq1:  Iter=  2 NonCon=     1 RMS=5.50D-05 Max=1.75D-03 NDo=     1
 LinEq1:  Iter=  3 NonCon=     1 RMS=5.25D-05 Max=2.66D-03 NDo=     1
 LinEq1:  Iter=  4 NonCon=     1 RMS=4.63D-05 Max=1.91D-03 NDo=     1
 LinEq1:  Iter=  5 NonCon=     1 RMS=4.07D-05 Max=1.01D-03 NDo=     1
 LinEq1:  Iter=  6 NonCon=     1 RMS=4.09D-05 Max=1.37D-03 NDo=     1
 LinEq1:  Iter=  7 NonCon=     1 RMS=2.90D-05 Max=8.98D-04 NDo=     1
 LinEq1:  Iter=  8 NonCon=     1 RMS=2.73D-05 Max=7.60D-04 NDo=     1
 LinEq1:  Iter=  9 NonCon=     1 RMS=2.17D-05 Max=8.79D-04 NDo=     1
 LinEq1:  Iter= 10 NonCon=     1 RMS=1.75D-05 Max=6.68D-04 NDo=     1
 LinEq1:  Iter= 11 NonCon=     1 RMS=1.48D-05 Max=5.07D-04 NDo=     1
 LinEq1:  Iter= 12 NonCon=     1 RMS=1.29D-05 Max=5.21D-04 NDo=     1
 LinEq1:  Iter= 13 NonCon=     1 RMS=8.37D-06 Max=2.45D-04 NDo=     1
 LinEq1:  Iter= 14 NonCon=     1 RMS=7.13D-06 Max=1.75D-04 NDo=     1
 LinEq1:  Iter= 15 NonCon=     1 RMS=6.79D-06 Max=1.92D-04 NDo=     1
 LinEq1:  Iter= 16 NonCon=     1 RMS=6.02D-06 Max=1.52D-04 NDo=     1
 LinEq1:  Iter= 17 NonCon=     1 RMS=4.67D-06 Max=1.56D-04 NDo=     1
 LinEq1:  Iter= 18 NonCon=     1 RMS=3.42D-06 Max=9.43D-05 NDo=     1
 LinEq1:  Iter= 19 NonCon=     1 RMS=2.46D-06 Max=6.34D-05 NDo=     1
 LinEq1:  Iter= 20 NonCon=     1 RMS=1.43D-06 Max=4.35D-05 NDo=     1
 LinEq1:  Iter= 21 NonCon=     1 RMS=1.07D-06 Max=3.35D-05 NDo=     1
 LinEq1:  Iter= 22 NonCon=     1 RMS=7.40D-07 Max=1.87D-05 NDo=     1
 LinEq1:  Iter= 23 NonCon=     1 RMS=4.89D-07 Max=1.52D-05 NDo=     1
 LinEq1:  Iter= 24 NonCon=     1 RMS=3.94D-07 Max=1.24D-05 NDo=     1
 LinEq1:  Iter= 25 NonCon=     1 RMS=3.14D-07 Max=6.59D-06 NDo=     1
 LinEq1:  Iter= 26 NonCon=     1 RMS=2.57D-07 Max=6.12D-06 NDo=     1
 LinEq1:  Iter= 27 NonCon=     1 RMS=1.47D-07 Max=4.21D-06 NDo=     1
 LinEq1:  Iter= 28 NonCon=     1 RMS=8.51D-08 Max=2.57D-06 NDo=     1
 LinEq1:  Iter= 29 NonCon=     1 RMS=6.08D-08 Max=1.78D-06 NDo=     1
 LinEq1:  Iter= 30 NonCon=     1 RMS=3.51D-08 Max=8.37D-07 NDo=     1
 LinEq1:  Iter= 31 NonCon=     1 RMS=2.09D-08 Max=6.03D-07 NDo=     1
 LinEq1:  Iter= 32 NonCon=     1 RMS=1.34D-08 Max=3.68D-07 NDo=     1
 LinEq1:  Iter= 33 NonCon=     0 RMS=7.69D-09 Max=1.52D-07 NDo=     1
 Linear equations converged to 2.991D-08 2.991D-07 after    33 iterations.
 Incorrect curvature in search direction -- initial direction reversed.
 LinEq1:  Iter=  0 NonCon=     1 RMS=8.84D-05 Max=3.27D-03 NDo=     1
 LinEq1:  Iter=  1 NonCon=     1 RMS=1.02D-04 Max=5.12D-03 NDo=     1
 LinEq1:  Iter=  2 NonCon=     1 RMS=9.02D-05 Max=2.75D-03 NDo=     1
 LinEq1:  Iter=  3 NonCon=     1 RMS=8.06D-05 Max=4.01D-03 NDo=     1
 LinEq1:  Iter=  4 NonCon=     1 RMS=7.10D-05 Max=2.91D-03 NDo=     1
 LinEq1:  Iter=  5 NonCon=     1 RMS=6.69D-05 Max=1.63D-03 NDo=     1
 LinEq1:  Iter=  6 NonCon=     1 RMS=6.21D-05 Max=1.88D-03 NDo=     1
 LinEq1:  Iter=  7 NonCon=     1 RMS=4.12D-05 Max=1.22D-03 NDo=     1
 LinEq1:  Iter=  8 NonCon=     1 RMS=4.03D-05 Max=1.11D-03 NDo=     1
 LinEq1:  Iter=  9 NonCon=     1 RMS=3.34D-05 Max=1.28D-03 NDo=     1
 LinEq1:  Iter= 10 NonCon=     1 RMS=2.56D-05 Max=9.49D-04 NDo=     1
 LinEq1:  Iter= 11 NonCon=     1 RMS=1.97D-05 Max=6.51D-04 NDo=     1
 LinEq1:  Iter= 12 NonCon=     1 RMS=1.69D-05 Max=6.58D-04 NDo=     1
 LinEq1:  Iter= 13 NonCon=     1 RMS=1.17D-05 Max=2.90D-04 NDo=     1
 LinEq1:  Iter= 14 NonCon=     1 RMS=9.04D-06 Max=2.71D-04 NDo=     1
 LinEq1:  Iter= 15 NonCon=     1 RMS=6.88D-06 Max=1.68D-04 NDo=     1
 LinEq1:  Iter= 16 NonCon=     1 RMS=6.27D-06 Max=1.48D-04 NDo=     1
 LinEq1:  Iter= 17 NonCon=     1 RMS=5.77D-06 Max=1.72D-04 NDo=     1
 LinEq1:  Iter= 18 NonCon=     1 RMS=5.30D-06 Max=1.77D-04 NDo=     1
 LinEq1:  Iter= 19 NonCon=     1 RMS=4.66D-06 Max=1.14D-04 NDo=     1
 LinEq1:  Iter= 20 NonCon=     1 RMS=3.28D-06 Max=1.03D-04 NDo=     1
 LinEq1:  Iter= 21 NonCon=     1 RMS=2.87D-06 Max=8.04D-05 NDo=     1
 LinEq1:  Iter= 22 NonCon=     1 RMS=1.93D-06 Max=4.59D-05 NDo=     1
 LinEq1:  Iter= 23 NonCon=     1 RMS=1.35D-06 Max=3.78D-05 NDo=     1
 LinEq1:  Iter= 24 NonCon=     1 RMS=9.47D-07 Max=2.61D-05 NDo=     1
 LinEq1:  Iter= 25 NonCon=     1 RMS=6.33D-07 Max=1.21D-05 NDo=     1
 LinEq1:  Iter= 26 NonCon=     1 RMS=4.01D-07 Max=9.15D-06 NDo=     1
 LinEq1:  Iter= 27 NonCon=     1 RMS=2.39D-07 Max=5.21D-06 NDo=     1
 LinEq1:  Iter= 28 NonCon=     1 RMS=1.50D-07 Max=3.24D-06 NDo=     1
 LinEq1:  Iter= 29 NonCon=     1 RMS=8.94D-08 Max=2.38D-06 NDo=     1
 LinEq1:  Iter= 30 NonCon=     1 RMS=5.90D-08 Max=1.69D-06 NDo=     1
 LinEq1:  Iter= 31 NonCon=     1 RMS=3.42D-08 Max=1.52D-06 NDo=     1
 LinEq1:  Iter= 32 NonCon=     1 RMS=1.97D-08 Max=8.82D-07 NDo=     1
 LinEq1:  Iter= 33 NonCon=     1 RMS=1.23D-08 Max=4.20D-07 NDo=     1
 LinEq1:  Iter= 34 NonCon=     0 RMS=8.66D-09 Max=2.44D-07 NDo=     1
 Linear equations converged to 2.991D-08 2.991D-07 after    34 iterations.
 Incorrect curvature in search direction -- initial direction reversed.
 Gradient too large for Newton-Raphson -- use scaled steepest descent instead.
     Accept linear search using points  1 and  2.
 Gradient too large for Newton-Raphson -- use scaled steepest descent instead.
     Accept linear search using points  1 and  2.
 LinEq1:  Iter=  0 NonCon=     1 RMS=9.85D-05 Max=4.56D-03 NDo=     1
 LinEq1:  Iter=  1 NonCon=     1 RMS=1.03D-04 Max=4.66D-03 NDo=     1
 LinEq1:  Iter=  2 NonCon=     1 RMS=5.75D-05 Max=2.21D-03 NDo=     1
 LinEq1:  Iter=  3 NonCon=     1 RMS=4.32D-05 Max=1.12D-03 NDo=     1
 LinEq1:  Iter=  4 NonCon=     1 RMS=3.80D-05 Max=1.50D-03 NDo=     1
 LinEq1:  Iter=  5 NonCon=     1 RMS=2.90D-05 Max=7.81D-04 NDo=     1
 LinEq1:  Iter=  6 NonCon=     1 RMS=2.43D-05 Max=9.64D-04 NDo=     1
 LinEq1:  Iter=  7 NonCon=     1 RMS=2.15D-05 Max=6.38D-04 NDo=     1
 LinEq1:  Iter=  8 NonCon=     1 RMS=1.74D-05 Max=6.26D-04 NDo=     1
 LinEq1:  Iter=  9 NonCon=     1 RMS=1.14D-05 Max=3.19D-04 NDo=     1
 LinEq1:  Iter= 10 NonCon=     1 RMS=1.12D-05 Max=3.26D-04 NDo=     1
 LinEq1:  Iter= 11 NonCon=     1 RMS=7.38D-06 Max=1.82D-04 NDo=     1
 LinEq1:  Iter= 12 NonCon=     1 RMS=6.13D-06 Max=1.50D-04 NDo=     1
 LinEq1:  Iter= 13 NonCon=     1 RMS=4.37D-06 Max=1.22D-04 NDo=     1
 LinEq1:  Iter= 14 NonCon=     1 RMS=4.33D-06 Max=1.27D-04 NDo=     1
 LinEq1:  Iter= 15 NonCon=     1 RMS=3.84D-06 Max=1.18D-04 NDo=     1
 LinEq1:  Iter= 16 NonCon=     1 RMS=3.52D-06 Max=1.28D-04 NDo=     1
 LinEq1:  Iter= 17 NonCon=     1 RMS=3.23D-06 Max=7.27D-05 NDo=     1
 LinEq1:  Iter= 18 NonCon=     1 RMS=2.08D-06 Max=7.15D-05 NDo=     1
 LinEq1:  Iter= 19 NonCon=     1 RMS=1.77D-06 Max=5.65D-05 NDo=     1
 LinEq1:  Iter= 20 NonCon=     1 RMS=1.21D-06 Max=2.85D-05 NDo=     1
 LinEq1:  Iter= 21 NonCon=     1 RMS=8.79D-07 Max=2.36D-05 NDo=     1
 LinEq1:  Iter= 22 NonCon=     1 RMS=5.74D-07 Max=1.39D-05 NDo=     1
 LinEq1:  Iter= 23 NonCon=     1 RMS=3.59D-07 Max=7.55D-06 NDo=     1
 LinEq1:  Iter= 24 NonCon=     1 RMS=2.42D-07 Max=5.62D-06 NDo=     1
 LinEq1:  Iter= 25 NonCon=     1 RMS=1.47D-07 Max=3.46D-06 NDo=     1
 LinEq1:  Iter= 26 NonCon=     1 RMS=1.01D-07 Max=2.15D-06 NDo=     1
 LinEq1:  Iter= 27 NonCon=     1 RMS=6.45D-08 Max=1.69D-06 NDo=     1
 LinEq1:  Iter= 28 NonCon=     1 RMS=4.30D-08 Max=8.77D-07 NDo=     1
 LinEq1:  Iter= 29 NonCon=     1 RMS=2.39D-08 Max=5.60D-07 NDo=     1
 LinEq1:  Iter= 30 NonCon=     1 RMS=1.40D-08 Max=3.00D-07 NDo=     1
 LinEq1:  Iter= 31 NonCon=     0 RMS=9.42D-09 Max=1.61D-07 NDo=     1
 Linear equations converged to 2.991D-08 2.991D-07 after    31 iterations.
 Incorrect curvature in search direction -- initial direction reversed.
 Gradient too large for Newton-Raphson -- use scaled steepest descent instead.
 Gradient too large for Newton-Raphson -- use scaled steepest descent instead.
     Minimum is close to point  3 DX= -3.60D-02 DF= -3.55D-06 DXR=  9.89D-02 DFR=  9.88D-03 which will be used.
 LinEq1:  Iter=  0 NonCon=     1 RMS=1.00D-04 Max=4.40D-03 NDo=     1
 LinEq1:  Iter=  1 NonCon=     1 RMS=1.54D-04 Max=7.01D-03 NDo=     1
 LinEq1:  Iter=  2 NonCon=     1 RMS=3.77D-05 Max=1.39D-03 NDo=     1
 LinEq1:  Iter=  3 NonCon=     1 RMS=5.47D-05 Max=1.31D-03 NDo=     1
 LinEq1:  Iter=  4 NonCon=     1 RMS=2.50D-05 Max=8.88D-04 NDo=     1
 LinEq1:  Iter=  5 NonCon=     1 RMS=2.21D-05 Max=6.95D-04 NDo=     1
 LinEq1:  Iter=  6 NonCon=     1 RMS=2.40D-05 Max=9.11D-04 NDo=     1
 LinEq1:  Iter=  7 NonCon=     1 RMS=1.42D-05 Max=4.72D-04 NDo=     1
 LinEq1:  Iter=  8 NonCon=     1 RMS=1.18D-05 Max=4.88D-04 NDo=     1
 LinEq1:  Iter=  9 NonCon=     1 RMS=1.04D-05 Max=3.80D-04 NDo=     1
 LinEq1:  Iter= 10 NonCon=     1 RMS=9.41D-06 Max=3.90D-04 NDo=     1
 LinEq1:  Iter= 11 NonCon=     1 RMS=5.85D-06 Max=1.72D-04 NDo=     1
 LinEq1:  Iter= 12 NonCon=     1 RMS=5.73D-06 Max=1.78D-04 NDo=     1
 LinEq1:  Iter= 13 NonCon=     1 RMS=5.44D-06 Max=1.76D-04 NDo=     1
 LinEq1:  Iter= 14 NonCon=     1 RMS=4.82D-06 Max=1.85D-04 NDo=     1
 LinEq1:  Iter= 15 NonCon=     1 RMS=3.33D-06 Max=1.06D-04 NDo=     1
 LinEq1:  Iter= 16 NonCon=     1 RMS=2.68D-06 Max=1.07D-04 NDo=     1
 LinEq1:  Iter= 17 NonCon=     1 RMS=1.74D-06 Max=5.00D-05 NDo=     1
 LinEq1:  Iter= 18 NonCon=     1 RMS=1.17D-06 Max=3.15D-05 NDo=     1
 LinEq1:  Iter= 19 NonCon=     1 RMS=8.85D-07 Max=2.12D-05 NDo=     1
 LinEq1:  Iter= 20 NonCon=     1 RMS=7.09D-07 Max=2.69D-05 NDo=     1
 LinEq1:  Iter= 21 NonCon=     1 RMS=4.98D-07 Max=1.24D-05 NDo=     1
 LinEq1:  Iter= 22 NonCon=     1 RMS=3.87D-07 Max=1.48D-05 NDo=     1
 LinEq1:  Iter= 23 NonCon=     1 RMS=2.09D-07 Max=4.64D-06 NDo=     1
 LinEq1:  Iter= 24 NonCon=     1 RMS=1.53D-07 Max=2.99D-06 NDo=     1
 LinEq1:  Iter= 25 NonCon=     1 RMS=9.23D-08 Max=1.94D-06 NDo=     1
 LinEq1:  Iter= 26 NonCon=     1 RMS=4.94D-08 Max=1.12D-06 NDo=     1
 LinEq1:  Iter= 27 NonCon=     1 RMS=3.81D-08 Max=8.70D-07 NDo=     1
 LinEq1:  Iter= 28 NonCon=     1 RMS=2.43D-08 Max=7.11D-07 NDo=     1
 LinEq1:  Iter= 29 NonCon=     1 RMS=1.50D-08 Max=3.45D-07 NDo=     1
 LinEq1:  Iter= 30 NonCon=     0 RMS=1.00D-08 Max=2.06D-07 NDo=     1
 Linear equations converged to 2.991D-08 2.991D-07 after    30 iterations.
 LinEq1:  Iter=  0 NonCon=     1 RMS=1.01D-04 Max=4.21D-03 NDo=     1
 LinEq1:  Iter=  1 NonCon=     1 RMS=1.40D-04 Max=6.77D-03 NDo=     1
 LinEq1:  Iter=  2 NonCon=     1 RMS=8.12D-05 Max=1.91D-03 NDo=     1
 LinEq1:  Iter=  3 NonCon=     1 RMS=7.01D-05 Max=1.84D-03 NDo=     1
 LinEq1:  Iter=  4 NonCon=     1 RMS=7.59D-05 Max=2.32D-03 NDo=     1
 LinEq1:  Iter=  5 NonCon=     1 RMS=6.47D-05 Max=1.09D-03 NDo=     1
 LinEq1:  Iter=  6 NonCon=     1 RMS=4.77D-05 Max=1.79D-03 NDo=     1
 LinEq1:  Iter=  7 NonCon=     1 RMS=4.39D-05 Max=1.54D-03 NDo=     1
 LinEq1:  Iter=  8 NonCon=     1 RMS=3.70D-05 Max=1.59D-03 NDo=     1
 LinEq1:  Iter=  9 NonCon=     1 RMS=3.20D-05 Max=1.09D-03 NDo=     1
 LinEq1:  Iter= 10 NonCon=     1 RMS=2.51D-05 Max=1.06D-03 NDo=     1
 LinEq1:  Iter= 11 NonCon=     1 RMS=2.16D-05 Max=8.07D-04 NDo=     1
 LinEq1:  Iter= 12 NonCon=     1 RMS=1.94D-05 Max=8.10D-04 NDo=     1
 LinEq1:  Iter= 13 NonCon=     1 RMS=1.56D-05 Max=5.31D-04 NDo=     1
 LinEq1:  Iter= 14 NonCon=     1 RMS=1.42D-05 Max=4.49D-04 NDo=     1
 LinEq1:  Iter= 15 NonCon=     1 RMS=1.36D-05 Max=3.85D-04 NDo=     1
 LinEq1:  Iter= 16 NonCon=     1 RMS=1.08D-05 Max=2.47D-04 NDo=     1
 LinEq1:  Iter= 17 NonCon=     1 RMS=8.24D-06 Max=2.46D-04 NDo=     1
 LinEq1:  Iter= 18 NonCon=     1 RMS=7.39D-06 Max=2.65D-04 NDo=     1
 LinEq1:  Iter= 19 NonCon=     1 RMS=5.20D-06 Max=1.36D-04 NDo=     1
 LinEq1:  Iter= 20 NonCon=     1 RMS=3.62D-06 Max=1.14D-04 NDo=     1
 LinEq1:  Iter= 21 NonCon=     1 RMS=2.73D-06 Max=6.35D-05 NDo=     1
 LinEq1:  Iter= 22 NonCon=     1 RMS=1.82D-06 Max=5.54D-05 NDo=     1
 LinEq1:  Iter= 23 NonCon=     1 RMS=1.42D-06 Max=3.26D-05 NDo=     1
 LinEq1:  Iter= 24 NonCon=     1 RMS=8.39D-07 Max=2.42D-05 NDo=     1
 LinEq1:  Iter= 25 NonCon=     1 RMS=5.38D-07 Max=2.00D-05 NDo=     1
 LinEq1:  Iter= 26 NonCon=     1 RMS=3.65D-07 Max=1.17D-05 NDo=     1
 LinEq1:  Iter= 27 NonCon=     1 RMS=2.03D-07 Max=4.09D-06 NDo=     1
 LinEq1:  Iter= 28 NonCon=     1 RMS=1.16D-07 Max=3.51D-06 NDo=     1
 LinEq1:  Iter= 29 NonCon=     1 RMS=7.83D-08 Max=1.68D-06 NDo=     1
 LinEq1:  Iter= 30 NonCon=     1 RMS=3.69D-08 Max=9.33D-07 NDo=     1
 LinEq1:  Iter= 31 NonCon=     1 RMS=2.80D-08 Max=7.02D-07 NDo=     1
 LinEq1:  Iter= 32 NonCon=     1 RMS=1.65D-08 Max=3.24D-07 NDo=     1
 LinEq1:  Iter= 33 NonCon=     0 RMS=7.82D-09 Max=1.87D-07 NDo=     1
 Linear equations converged to 2.991D-08 2.991D-07 after    33 iterations.
 LinEq1:  Iter=  0 NonCon=     1 RMS=6.00D-05 Max=1.63D-03 NDo=     1
 LinEq1:  Iter=  1 NonCon=     1 RMS=6.13D-05 Max=2.60D-03 NDo=     1
 LinEq1:  Iter=  2 NonCon=     1 RMS=4.73D-05 Max=1.15D-03 NDo=     1
 LinEq1:  Iter=  3 NonCon=     1 RMS=4.69D-05 Max=1.34D-03 NDo=     1
 LinEq1:  Iter=  4 NonCon=     1 RMS=4.47D-05 Max=1.31D-03 NDo=     1
 LinEq1:  Iter=  5 NonCon=     1 RMS=3.65D-05 Max=6.99D-04 NDo=     1
 LinEq1:  Iter=  6 NonCon=     1 RMS=3.42D-05 Max=1.21D-03 NDo=     1
 LinEq1:  Iter=  7 NonCon=     1 RMS=3.17D-05 Max=1.07D-03 NDo=     1
 LinEq1:  Iter=  8 NonCon=     1 RMS=2.27D-05 Max=1.09D-03 NDo=     1
 LinEq1:  Iter=  9 NonCon=     1 RMS=1.86D-05 Max=6.32D-04 NDo=     1
 LinEq1:  Iter= 10 NonCon=     1 RMS=1.57D-05 Max=6.21D-04 NDo=     1
 LinEq1:  Iter= 11 NonCon=     1 RMS=1.35D-05 Max=4.69D-04 NDo=     1
 LinEq1:  Iter= 12 NonCon=     1 RMS=1.19D-05 Max=4.33D-04 NDo=     1
 LinEq1:  Iter= 13 NonCon=     1 RMS=8.68D-06 Max=3.12D-04 NDo=     1
 LinEq1:  Iter= 14 NonCon=     1 RMS=8.43D-06 Max=3.15D-04 NDo=     1
 LinEq1:  Iter= 15 NonCon=     1 RMS=7.62D-06 Max=2.47D-04 NDo=     1
 LinEq1:  Iter= 16 NonCon=     1 RMS=6.05D-06 Max=1.55D-04 NDo=     1
 LinEq1:  Iter= 17 NonCon=     1 RMS=5.43D-06 Max=1.24D-04 NDo=     1
 LinEq1:  Iter= 18 NonCon=     1 RMS=4.81D-06 Max=1.23D-04 NDo=     1
 LinEq1:  Iter= 19 NonCon=     1 RMS=3.51D-06 Max=8.10D-05 NDo=     1
 LinEq1:  Iter= 20 NonCon=     1 RMS=2.36D-06 Max=5.00D-05 NDo=     1
 LinEq1:  Iter= 21 NonCon=     1 RMS=1.85D-06 Max=3.42D-05 NDo=     1
 LinEq1:  Iter= 22 NonCon=     1 RMS=1.11D-06 Max=1.90D-05 NDo=     1
 LinEq1:  Iter= 23 NonCon=     1 RMS=8.46D-07 Max=1.50D-05 NDo=     1
 LinEq1:  Iter= 24 NonCon=     1 RMS=5.40D-07 Max=1.37D-05 NDo=     1
 LinEq1:  Iter= 25 NonCon=     1 RMS=3.28D-07 Max=8.09D-06 NDo=     1
 LinEq1:  Iter= 26 NonCon=     1 RMS=2.17D-07 Max=7.42D-06 NDo=     1
 LinEq1:  Iter= 27 NonCon=     1 RMS=1.31D-07 Max=4.92D-06 NDo=     1
 LinEq1:  Iter= 28 NonCon=     1 RMS=8.33D-08 Max=2.99D-06 NDo=     1
 LinEq1:  Iter= 29 NonCon=     1 RMS=5.10D-08 Max=2.21D-06 NDo=     1
 LinEq1:  Iter= 30 NonCon=     1 RMS=2.64D-08 Max=9.63D-07 NDo=     1
 LinEq1:  Iter= 31 NonCon=     1 RMS=1.68D-08 Max=6.29D-07 NDo=     1
 LinEq1:  Iter= 32 NonCon=     0 RMS=1.08D-08 Max=2.89D-07 NDo=     1
 Linear equations converged to 2.991D-08 2.991D-07 after    32 iterations.
     Minimum is close to point  2 DX=  4.85D-02 DF= -1.63D-06 DXR=  4.62D-02 DFR=  2.14D-03 which will be used.
 LinEq1:  Iter=  0 NonCon=     1 RMS=3.38D-05 Max=8.28D-04 NDo=     1
 LinEq1:  Iter=  1 NonCon=     1 RMS=2.49D-05 Max=6.70D-04 NDo=     1
 LinEq1:  Iter=  2 NonCon=     1 RMS=2.36D-05 Max=5.80D-04 NDo=     1
 LinEq1:  Iter=  3 NonCon=     1 RMS=2.32D-05 Max=4.33D-04 NDo=     1
 LinEq1:  Iter=  4 NonCon=     1 RMS=1.83D-05 Max=6.07D-04 NDo=     1
 LinEq1:  Iter=  5 NonCon=     1 RMS=1.81D-05 Max=5.11D-04 NDo=     1
 LinEq1:  Iter=  6 NonCon=     1 RMS=1.54D-05 Max=4.60D-04 NDo=     1
 LinEq1:  Iter=  7 NonCon=     1 RMS=1.01D-05 Max=2.98D-04 NDo=     1
 LinEq1:  Iter=  8 NonCon=     1 RMS=1.03D-05 Max=4.19D-04 NDo=     1
 LinEq1:  Iter=  9 NonCon=     1 RMS=7.93D-06 Max=2.13D-04 NDo=     1
 LinEq1:  Iter= 10 NonCon=     1 RMS=5.41D-06 Max=1.61D-04 NDo=     1
 LinEq1:  Iter= 11 NonCon=     1 RMS=4.37D-06 Max=1.18D-04 NDo=     1
 LinEq1:  Iter= 12 NonCon=     1 RMS=4.50D-06 Max=1.14D-04 NDo=     1
 LinEq1:  Iter= 13 NonCon=     1 RMS=3.03D-06 Max=1.04D-04 NDo=     1
 LinEq1:  Iter= 14 NonCon=     1 RMS=2.61D-06 Max=7.46D-05 NDo=     1
 LinEq1:  Iter= 15 NonCon=     1 RMS=2.51D-06 Max=8.06D-05 NDo=     1
 LinEq1:  Iter= 16 NonCon=     1 RMS=2.34D-06 Max=8.54D-05 NDo=     1
 LinEq1:  Iter= 17 NonCon=     1 RMS=1.67D-06 Max=6.07D-05 NDo=     1
 LinEq1:  Iter= 18 NonCon=     1 RMS=1.25D-06 Max=5.10D-05 NDo=     1
 LinEq1:  Iter= 19 NonCon=     1 RMS=1.06D-06 Max=3.44D-05 NDo=     1
 LinEq1:  Iter= 20 NonCon=     1 RMS=7.27D-07 Max=2.24D-05 NDo=     1
 LinEq1:  Iter= 21 NonCon=     1 RMS=5.17D-07 Max=1.07D-05 NDo=     1
 LinEq1:  Iter= 22 NonCon=     1 RMS=4.03D-07 Max=1.03D-05 NDo=     1
 LinEq1:  Iter= 23 NonCon=     1 RMS=2.81D-07 Max=7.43D-06 NDo=     1
 LinEq1:  Iter= 24 NonCon=     1 RMS=2.16D-07 Max=6.10D-06 NDo=     1
 LinEq1:  Iter= 25 NonCon=     1 RMS=1.16D-07 Max=3.65D-06 NDo=     1
 LinEq1:  Iter= 26 NonCon=     1 RMS=8.06D-08 Max=2.07D-06 NDo=     1
 LinEq1:  Iter= 27 NonCon=     1 RMS=5.19D-08 Max=1.38D-06 NDo=     1
 LinEq1:  Iter= 28 NonCon=     1 RMS=2.56D-08 Max=7.20D-07 NDo=     1
 LinEq1:  Iter= 29 NonCon=     1 RMS=1.92D-08 Max=4.21D-07 NDo=     1
 LinEq1:  Iter= 30 NonCon=     0 RMS=1.20D-08 Max=2.77D-07 NDo=     1
 Linear equations converged to 2.991D-08 2.991D-07 after    30 iterations.
 LinEq1:  Iter=  0 NonCon=     1 RMS=3.67D-05 Max=1.02D-03 NDo=     1
 LinEq1:  Iter=  1 NonCon=     1 RMS=2.78D-05 Max=8.41D-04 NDo=     1
 LinEq1:  Iter=  2 NonCon=     1 RMS=2.59D-05 Max=6.06D-04 NDo=     1
 LinEq1:  Iter=  3 NonCon=     1 RMS=2.49D-05 Max=5.66D-04 NDo=     1
 LinEq1:  Iter=  4 NonCon=     1 RMS=2.03D-05 Max=6.55D-04 NDo=     1
 LinEq1:  Iter=  5 NonCon=     1 RMS=1.91D-05 Max=5.16D-04 NDo=     1
 LinEq1:  Iter=  6 NonCon=     1 RMS=1.55D-05 Max=3.87D-04 NDo=     1
 LinEq1:  Iter=  7 NonCon=     1 RMS=1.07D-05 Max=3.46D-04 NDo=     1
 LinEq1:  Iter=  8 NonCon=     1 RMS=1.08D-05 Max=4.08D-04 NDo=     1
 LinEq1:  Iter=  9 NonCon=     1 RMS=8.28D-06 Max=2.27D-04 NDo=     1
 LinEq1:  Iter= 10 NonCon=     1 RMS=5.65D-06 Max=1.59D-04 NDo=     1
 LinEq1:  Iter= 11 NonCon=     1 RMS=4.80D-06 Max=1.32D-04 NDo=     1
 LinEq1:  Iter= 12 NonCon=     1 RMS=4.62D-06 Max=1.29D-04 NDo=     1
 LinEq1:  Iter= 13 NonCon=     1 RMS=3.13D-06 Max=8.81D-05 NDo=     1
 LinEq1:  Iter= 14 NonCon=     1 RMS=2.82D-06 Max=7.26D-05 NDo=     1
 LinEq1:  Iter= 15 NonCon=     1 RMS=2.45D-06 Max=7.69D-05 NDo=     1
 LinEq1:  Iter= 16 NonCon=     1 RMS=2.25D-06 Max=7.95D-05 NDo=     1
 LinEq1:  Iter= 17 NonCon=     1 RMS=2.11D-06 Max=7.56D-05 NDo=     1
[...]
 0.,0.,0.,0.,0.,0.,0.,0.,0.,0.,0.,0.,0.,0.,0.,0.,0.,0.,0.,0.,0.,0.,0.,0
 .,0.,0.,0.,0.,0.,0.,0.,0.,0.,0.,0.,0.,0.,0.,0.,0.,0.,0.,0.,0.,0.,0.,0.
 ,0.,0.,0.,0.,0.,0.,0.,0.,0.,0.,0.,0.,0.,0.,0.,0.,0.,0.,0.,0.,0.,0.,0.,
 0.,0.,0.,0.,0.,0.,0.,0.,0.,0.,0.,0.,0.,0.,0.,0.,0.,0.,0.,0.,0.,0.,0.,0
 .,0.,0.,0.,0.,0.,0.,0.,0.,0.,0.,0.,0.,0.,0.,0.,0.,0.,0.,0.,0.,0.,0.,0.
 ,0.,0.,0.,0.,0.,0.,0.,0.,0.,0.,0.,0.,0.,0.,0.,0.,0.,0.,0.,0.,0.,0.,0.,
 0.,0.,0.,0.,0.,0.,0.,0.,0.,0.,0.,0.,0.,0.,0.,0.,0.,0.,0.,0.,0.,0.,0.,0
 .,0.,0.,0.,0.,0.,0.,0.,0.,0.,0.,0.,0.,0.,0.,0.,0.,0.,0.,0.,0.,0.,0.,0.
 ,0.,0.,0.,0.,0.,0.,0.,0.,0.,0.,0.,0.,0.,0.,0.,0.,0.,0.,0.,0.,0.,0.,0.,
 0.,0.,0.,0.,0.,0.,0.,0.,0.,0.,0.,0.,0.,0.,0.,0.,0.,0.,0.,0.,0.,0.,0.,0
 .,0.,0.,0.,0.,0.,0.,0.,0.,0.,0.,0.,0.,0.,0.,0.,0.,0.,0.,0.,0.,0.,0.,0.
 ,0.,0.,0.,0.,0.,0.,0.,0.,0.,0.,0.,0.,0.,0.,0.,0.,0.,0.,0.,0.,0.,0.,0.,
 0.,0.,0.,0.,0.,0.,0.,0.,0.,0.,0.,0.,0.,0.,0.,0.,0.,0.,0.,0.,0.,0.,0.,0
 .,0.,0.,0.,0.,0.,0.,0.,0.,0.,0.,0.,0.,0.,0.,0.,0.,0.,0.,0.,0.,0.,0.,0.
 ,0.,0.,0.,0.,0.,0.,0.,0.,0.,0.,0.,0.,0.,0.,0.,0.,0.,0.,0.,0.,0.,0.,0.,
 0.,0.,0.,0.,0.,0.,0.,0.,0.,0.,0.,0.,0.,0.,0.,0.,0.,0.,0.,0.,0.,0.,0.,0
 .,0.,0.,0.,0.,0.,0.,0.,0.,0.,0.,0.,0.,0.,0.,0.,0.,0.,0.,0.,0.,0.,0.,0.
 ,0.,0.,0.,0.,0.,0.,0.,0.,0.,0.,0.,0.,0.,0.,0.,0.,0.,0.,0.,0.,0.,0.,0.,
 0.,0.,0.,0.,0.,0.,0.,0.,0.,0.,0.,0.,0.,0.,0.,0.,0.,0.,0.,0.,0.,0.,0.,0
 .,0.,0.,0.,0.,0.,0.,0.,0.,0.,0.,0.,0.,0.,0.,0.,0.,0.,0.,0.,0.,0.,0.,0.
 ,0.,0.,0.,0.,0.,0.,0.,0.,0.,0.,0.,0.,0.,0.,0.,0.,0.,0.,0.,0.,0.,0.,0.,
 0.,0.,0.,0.,0.,0.,0.,0.,0.,0.,0.,0.,0.,0.,0.,0.,0.,0.,0.,0.,0.,0.,0.,0
 .,0.,0.,0.,0.,0.,0.,0.,0.,0.,0.,0.,0.,0.,0.,0.,0.,0.,0.,0.,0.,0.,0.,0.
 ,0.,0.,0.,0.,0.,0.,0.,0.,0.,0.,0.,0.,0.,0.,0.,0.,0.,0.,0.,0.,0.,0.,0.,
 0.,0.,0.,0.,0.,0.,0.,0.,0.,0.,0.,0.,0.,0.,0.,0.,0.,0.,0.,0.,0.,0.,0.,0
 .,0.,0.,0.,0.,0.,0.,0.,0.,0.,0.,0.,0.,0.,0.,0.,0.,0.,0.,0.,0.,0.,0.,0.
 ,0.,0.,0.,0.,0.,0.,0.,0.,0.,0.,0.,0.,0.,0.,0.,0.,0.,0.,0.,0.,0.,0.,0.,
 0.,0.,0.,0.,0.,0.,0.,0.,0.,0.,0.,0.,0.,0.,0.,0.,0.,0.,0.,0.,0.,0.,0.,0
 .,0.,0.,0.,0.,0.,0.,0.,0.,0.,0.,0.,0.,0.,0.,0.,0.,0.,0.,0.,0.,0.,0.,0.
 ,0.,0.,0.,0.,0.,0.,0.,0.,0.,0.,0.,0.,0.,0.,0.,0.,0.,0.,0.,0.,0.,0.,0.,
 0.,0.,0.,0.,0.,0.,0.,0.,0.,0.,0.,0.,0.,0.,0.,0.,0.,0.,0.,0.,0.,0.,0.,0
 .,0.,0.,0.,0.,0.,0.,0.,0.,0.,0.,0.,0.,0.,0.,0.,0.,0.,0.,0.,0.,0.,0.,0.
 ,0.,0.,0.,0.,0.,0.,0.,0.,0.,0.,0.,0.,0.,0.,0.,0.,0.,0.,0.,0.,0.,0.,0.,
 0.,0.,0.,0.,0.,0.,0.,0.,0.,0.,0.,0.,0.,0.,0.,0.,0.,0.,0.,0.,0.,0.,0.,0
 .,0.,0.,0.,0.,0.,0.,0.,0.,0.,0.,0.,0.,0.,0.,0.,0.,0.,0.,0.,0.,0.,0.,0.
 ,0.,0.,0.,0.,0.,0.,0.,0.,0.,0.,0.,0.,0.,0.,0.,0.,0.,0.,0.,0.,0.,0.,0.,
 0.,0.,0.,0.,0.,0.,0.,0.,0.,0.,0.,0.,0.,0.,0.,0.,0.,0.,0.,0.,0.,0.,0.,0
 .,0.,0.,0.,0.,0.,0.,0.,0.,0.,0.,0.,0.,0.,0.,0.,0.,0.,0.,0.,0.,0.,0.,0.
 ,0.,0.,0.,0.,0.,0.,0.,0.,0.,0.,0.,0.,0.,0.,0.,0.,0.,0.,0.,0.,0.,0.,0.,
 0.,0.,0.,0.,0.,0.,0.,0.,0.,0.,0.,0.,0.,0.,0.,0.,0.,0.,0.,0.,0.,0.,0.,0
 .,0.,0.,0.,0.,0.,0.,0.,0.,0.,0.,0.,0.,0.,0.,0.,0.,0.,0.,0.,0.,0.,0.,0.
 ,0.,0.,0.,0.,0.,0.,0.,0.,0.,0.,0.,0.,0.,0.,0.,0.,0.,0.,0.,0.,0.,0.,0.,
 0.,0.,0.,0.,0.,0.,0.,0.,0.,0.,0.,0.,0.,0.,0.,0.,0.,0.,0.,0.,0.,0.,0.,0
 .,0.,0.,0.,0.,0.,0.,0.,0.,0.,0.,0.,0.,0.,0.,0.,0.,0.,0.,0.,0.,0.,0.,0.
 ,0.,0.,0.,0.,0.,0.,0.,0.,0.,0.,0.,0.,0.,0.,0.,0.,0.,0.,0.,0.,0.,0.,0.,
 0.,0.,0.,0.,0.,0.,0.,0.,0.,0.,0.,0.,0.,0.,0.,0.,0.,0.,0.,0.,0.,0.,0.,0
 .,0.,0.,0.,0.,0.,0.,0.,0.,0.,0.,0.,0.,0.,0.,0.,0.,0.,0.,0.,0.,0.,0.,0.
 ,0.,0.,0.,0.,0.,0.,0.,0.,0.,0.,0.,0.,0.,0.,0.,0.,0.,0.,0.,0.,0.,0.,0.,
 0.,0.,0.,0.,0.,0.,0.,0.,0.,0.,0.,0.,0.,0.,0.,0.,0.,0.,0.,0.,0.,0.,0.,0
 .,0.,0.,0.,0.,0.,0.,0.,0.,0.,0.,0.,0.,0.,0.,0.,0.,0.,0.,0.,0.,0.,0.,0.
 ,0.,0.,0.,0.,0.,0.,0.,0.,0.,0.,0.,0.,0.,0.,0.,0.,0.,0.,0.,0.,0.,0.,0.,
 0.,0.,0.,0.,0.,0.,0.,0.,0.,0.,0.,0.,0.,0.,0.,0.,0.,0.,0.,0.,0.,0.,0.,0
 .,0.,0.,0.,0.,0.,0.,0.,0.,0.,0.,0.,0.,0.,0.,0.,0.,0.,0.,0.,0.,0.,0.,0.
 ,0.,0.,0.,0.,0.,0.,0.,0.,0.,0.,0.,0.,0.,0.,0.,0.,0.,0.,0.,0.,0.,0.,0.,
 0.,0.,0.,0.,0.,0.,0.,0.,0.,0.,0.,0.,0.,0.,0.,0.,0.,0.,0.,0.,0.,0.,0.,0
 .,0.,0.,0.,0.,0.,0.,0.,0.,0.,0.,0.,0.,0.,0.,0.,0.,0.,0.,0.,0.,0.,0.,0.
 ,0.,0.,0.,0.,0.,0.,0.,0.,0.,0.,0.,0.,0.,0.,0.,0.,0.,0.,0.,0.,0.,0.,0.,
 0.,0.,0.,0.,0.,0.,0.,0.,0.,0.,0.,0.,0.,0.,0.,0.,0.,0.,0.,0.,0.,0.,0.,0
 .,0.,0.,0.,0.,0.,0.,0.,0.,0.,0.,0.,0.,0.,0.,0.,0.,0.,0.,0.,0.,0.,0.,0.
 ,0.,0.,0.,0.,0.,0.,0.,0.,0.,0.,0.,0.,0.,0.,0.,0.,0.,0.,0.,0.,0.,0.,0.,
 0.,0.,0.,0.,0.,0.,0.,0.,0.,0.,0.,0.,0.,0.,0.,0.,0.,0.,0.,0.,0.,0.,0.,0
 .,0.,0.,0.,0.,0.,0.,0.,0.,0.,0.,0.,0.,0.,0.,0.,0.,0.,0.,0.,0.,0.,0.,0.
 ,0.,0.,0.,0.,0.,0.,0.,0.,0.,0.,0.,0.,0.,0.,0.,0.,0.,0.,0.,0.,0.,0.,0.,
 0.,0.,0.,0.,0.,0.,0.,0.,0.,0.,0.,0.,0.,0.,0.,0.,0.,0.,0.,0.,0.,0.,0.,0
 .,0.,0.,0.,0.,0.,0.,0.,0.,0.,0.,0.,0.,0.,0.,0.,0.,0.,0.,0.,0.,0.,0.,0.
 ,0.,0.,0.,0.,0.,0.,0.,0.,0.,0.,0.,0.,0.,0.,0.,0.,0.,0.,0.,0.,0.,0.,0.,
 0.,0.,0.,0.,0.,0.,0.,0.,0.,0.,0.,0.,0.,0.,0.,0.,0.,0.,0.,0.,0.,0.,0.,0
 .,0.,0.,0.,0.,0.,0.,0.,0.,0.,0.,0.,0.,0.,0.,0.,0.,0.,0.,0.,0.,0.,0.,0.
 ,0.,0.,0.,0.,0.,0.,0.,0.,0.,0.,0.,0.,0.,0.,0.,0.,0.,0.,0.,0.,0.,0.,0.,
 0.,0.,0.,0.,0.,0.,0.,0.,0.,0.,0.,0.,0.,0.,0.,0.,0.,0.,0.,0.,0.,0.,0.,0
 .,0.,0.,0.,0.,0.,0.,0.,0.,0.,0.,0.,0.,0.,0.,0.,0.,0.,0.,0.,0.,0.,0.,0.
 ,0.,0.,0.,0.,0.,0.,0.,0.,0.,0.,0.,0.,0.,0.,0.,0.,0.,0.,0.,0.,0.,0.,0.,
 0.,0.,0.,0.,0.,0.,0.,0.,0.,0.,0.,0.,0.,0.,0.,0.,0.,0.,0.,0.,0.,0.,0.,0
 .,0.,0.,0.,0.,0.,0.,0.,0.,0.,0.,0.,0.,0.,0.,0.,0.,0.,0.,0.,0.,0.,0.,0.
 ,0.,0.,0.,0.,0.,0.,0.,0.,0.,0.,0.,0.,0.,0.,0.,0.,0.,0.,0.,0.,0.,0.,0.,
 0.,0.,0.,0.,0.,0.,0.,0.,0.,0.,0.,0.,0.,0.,0.,0.,0.,0.,0.,0.,0.,0.,0.,0
 .,0.,0.,0.,0.,0.,0.,0.,0.,0.,0.,0.,0.,0.,0.,0.,0.,0.,0.,0.,0.,0.,0.,0.
 ,0.,0.,0.,0.,0.,0.,0.,0.,0.,0.,0.,0.,0.,0.,0.,0.,0.,0.,0.,0.,0.,0.,0.,
 0.,0.,0.,0.,0.,0.,0.,0.,0.,0.,0.,0.,0.,0.,0.,0.,0.,0.,0.,0.,0.,0.,0.,0
 .,0.,0.,0.,0.,0.,0.,0.,0.,0.,0.,0.,0.,0.,0.,0.,0.,0.,0.,0.,0.,0.,0.,0.
 ,0.,0.,0.,0.,0.,0.,0.,0.,0.,0.,0.,0.,0.,0.,0.,0.,0.,0.,0.,0.,0.,0.,0.,
 0.,0.,0.,0.,0.,0.,0.,0.,0.,0.,0.,0.,0.,0.,0.,0.,0.,0.,0.,0.,0.,0.,0.,0
 .,0.,0.,0.,0.,0.,0.,0.,0.,0.,0.,0.,0.,0.,0.,0.,0.,0.,0.,0.,0.,0.,0.,0.
 ,0.,0.,0.,0.,0.,0.,0.,0.,0.,0.,0.,0.,0.,0.,0.,0.,0.,0.,0.,0.,0.,0.,0.,
 0.,0.,0.,0.,0.,0.,0.,0.,0.,0.,0.,0.,0.,0.,0.,0.,0.,0.,0.,0.,0.,0.,0.,0
 .,0.,0.,0.,0.,0.,0.,0.,0.,0.,0.,0.,0.,0.,0.,0.,0.,0.,0.,0.,0.,0.,0.,0.
 ,0.,0.,0.,0.,0.,0.,0.,0.,0.,0.,0.,0.,0.,0.,0.,0.,0.,0.,0.,0.,0.,0.,0.,
 0.,0.,0.,0.,0.,0.,0.,0.,0.,0.,0.,0.,0.,0.,0.,0.,0.,0.,0.,0.,0.,0.,0.,0
 .,0.,0.,0.,0.,0.,0.,0.,0.,0.,0.,0.,0.,0.,0.,0.,0.,0.,0.,0.,0.,0.,0.,0.
 ,0.,0.,0.,0.,0.,0.,0.,0.,0.,0.,0.,0.,0.,0.,0.,0.,0.,0.,0.,0.,0.,0.,0.,
 0.,0.,0.,0.,0.,0.,0.,0.,0.,0.,0.,0.,0.,0.,0.,0.,0.,0.,0.,0.,0.,0.,0.,0
 .,0.,0.,0.,0.,0.,0.,0.,0.,0.,0.,0.,0.,0.,0.,0.,0.,0.,0.,0.,0.,0.,0.,0.
 ,0.,0.,0.,0.,0.,0.,0.,0.,0.,0.,0.,0.,0.,0.,0.,0.,0.,0.,0.,0.,0.,0.,0.,
 0.,0.,0.,0.,0.,0.,0.,0.,0.,0.,0.,0.,0.,0.,0.,0.,0.,0.,0.,0.,0.,0.,0.,0
 .,0.,0.,0.,0.,0.,0.,0.,0.,0.,0.,0.,0.,0.,0.,0.,0.,0.,0.,0.,0.,0.,0.,0.
 ,0.,0.,0.,0.,0.,0.,0.,0.,0.,0.,0.,0.,0.,0.,0.,0.,0.,0.,0.,0.,0.,0.,0.,
 0.,0.,0.,0.,0.,0.,0.,0.,0.,0.,0.,0.,0.,0.,0.,0.,0.,0.,0.,0.,0.,0.,0.,0
 .,0.,0.,0.,0.,0.,0.,0.,0.,0.,0.,0.,0.,0.,0.,0.,0.,0.,0.,0.,0.,0.,0.,0.
 ,0.,0.,0.,0.,0.,0.,0.,0.,0.,0.,0.,0.,0.,0.,0.,0.,0.,0.,0.,0.,0.,0.,0.,
 0.,0.,0.,0.,0.,0.,0.,0.,0.,0.,0.,0.,0.,0.,0.,0.,0.,0.,0.,0.,0.,0.,0.,0
 .,0.,0.,0.,0.,0.,0.,0.,0.,0.,0.,0.,0.,0.,0.,0.,0.,0.,0.,0.,0.,0.,0.,0.
 ,0.,0.,0.,0.,0.,0.,0.,0.,0.,0.,0.,0.,0.,0.,0.,0.,0.,0.,0.,0.,0.,0.,0.,
 0.,0.,0.,0.,0.,0.,0.,0.,0.,0.,0.,0.,0.,0.,0.,0.,0.,0.,0.,0.,0.,0.,0.,0
 .,0.,0.,0.,0.,0.,0.,0.,0.,0.,0.,0.,0.,0.,0.,0.,0.,0.,0.,0.,0.,0.,0.,0.
 ,0.,0.,0.,0.,0.,0.,0.,0.,0.,0.,0.,0.,0.,0.,0.,0.,0.,0.,0.,0.,0.,0.,0.,
 0.,0.,0.,0.,0.,0.,0.,0.,0.,0.,0.,0.,0.,0.,0.,0.,0.,0.,0.,0.,0.,0.,0.,0
 .,0.,0.,0.,0.,0.,0.,0.,0.,0.,0.,0.,0.,0.,0.,0.,0.,0.,0.,0.,0.,0.,0.,0.
 ,0.,0.,0.,0.,0.,0.,0.,0.,0.,0.,0.,0.,0.,0.,0.,0.,0.,0.,0.,0.,0.,0.,0.,
 0.,0.,0.,0.,0.,0.,0.,0.,0.,0.,0.,0.,0.,0.,0.,0.,0.,0.,0.,0.,0.,0.,0.,0
 .,0.,0.,0.,0.,0.,0.,0.,0.,0.,0.,0.,0.,0.,0.,0.,0.,0.,0.,0.,0.,0.,0.,0.
 ,0.,0.,0.,0.,0.,0.,0.,0.,0.,0.,0.,0.,0.,0.,0.,0.,0.,0.,0.,0.,0.,0.,0.,
 0.,0.,0.,0.,0.,0.,0.,0.,0.,0.,0.,0.,0.,0.,0.,0.,0.,0.,0.,0.,0.,0.,0.,0
 .,0.,0.,0.,0.,0.,0.,0.,0.,0.,0.,0.,0.,0.,0.,0.,0.,0.,0.,0.,0.,0.,0.,0.
 ,0.,0.,0.,0.,0.,0.,0.,0.,0.,0.,0.,0.,0.,0.,0.,0.,0.,0.,0.,0.,0.,0.,0.,
 0.,0.,0.,0.,0.,0.,0.,0.,0.,0.,0.,0.,0.,0.,0.,0.,0.,0.,0.,0.,0.,0.,0.,0
 .,0.,0.,0.,0.,0.,0.,0.,0.,0.,0.,0.,0.,0.,0.,0.,0.,0.,0.,0.,0.,0.,0.,0.
 ,0.,0.,0.,0.,0.,0.,0.,0.,0.,0.,0.,0.,0.,0.,0.,0.,0.,0.,0.,0.,0.,0.,0.,
 0.,0.,0.,0.,0.,0.,0.,0.,0.,0.,0.,0.,0.,0.,0.,0.,0.,0.,0.,0.,0.,0.,0.,0
 .,0.,0.,0.,0.,0.,0.,0.,0.,0.,0.,0.,0.,0.,0.,0.,0.,0.,0.,0.,0.,0.,0.,0.
 ,0.,0.,0.,0.,0.,0.,0.,0.,0.,0.,0.,0.,0.,0.,0.,0.,0.,0.,0.,0.,0.,0.,0.,
 0.,0.,0.,0.,0.,0.,0.,0.,0.,0.,0.,0.,0.,0.,0.,0.,0.,0.,0.,0.,0.,0.,0.,0
 .,0.,0.,0.,0.,0.,0.,0.,0.,0.,0.,0.,0.,0.,0.,0.,0.,0.,0.,0.,0.,0.,0.,0.
 ,0.,0.,0.,0.,0.,0.,0.,0.,0.,0.,0.,0.,0.,0.,0.,0.,0.,0.,0.,0.,0.,0.,0.,
 0.,0.,0.,0.,0.,0.,0.,0.,0.,0.,0.,0.,0.,0.,0.,0.,0.,0.,0.,0.,0.,0.,0.,0
 .,0.,0.,0.,0.,0.,0.,0.,0.,0.,0.,0.,0.,0.,0.,0.,0.,0.,0.,0.,0.,0.,0.,0.
 ,0.,0.,0.,0.,0.,0.,0.,0.,0.,0.,0.,0.,0.,0.,0.,0.,0.,0.,0.,0.,0.,0.,0.,
 0.,0.,0.,0.,0.,0.,0.,0.,0.,0.,0.,0.,0.,0.,0.,0.,0.,0.,0.,0.,0.,0.,0.,0
 .,0.,0.,0.,0.,0.,0.,0.,0.,0.,0.,0.,0.,0.,0.,0.,0.,0.,0.,0.,0.,0.,0.,0.
 ,0.,0.,0.,0.,0.,0.,0.,0.,0.,0.,0.,0.,0.,0.,0.,0.,0.,0.,0.,0.,0.,0.,0.,
 0.,0.,0.,0.,0.,0.,0.,0.,0.,0.,0.,0.,0.,0.,0.,0.,0.,0.,0.,0.,0.,0.,0.,0
 .,0.,0.,0.,0.,0.,0.,0.,0.,0.,0.,0.,0.,0.,0.,0.,0.,0.,0.,0.,0.,0.,0.,0.
 ,0.,0.,0.,0.,0.,0.,0.,0.,0.,0.,0.,0.,0.,0.,0.,0.,0.,0.,0.,0.,0.,0.,0.,
 0.,0.,0.,0.,0.,0.,0.,0.,0.,0.,0.,0.,0.,0.,0.,0.,0.,0.,0.,0.,0.,0.,0.,0
 .,0.,0.,0.,0.,0.,0.,0.,0.,0.,0.,0.,0.,0.,0.,0.,0.,0.,0.,0.,0.,0.,0.,0.
 ,0.,0.,0.,0.,0.,0.,0.,0.,0.,0.,0.,0.,0.,0.,0.,0.,0.,0.,0.,0.,0.,0.,0.,
 0.,0.,0.,0.,0.,0.,0.,0.,0.,0.,0.,0.,0.,0.,0.,0.,0.,0.,0.,0.,0.,0.,0.,0
 .,0.,0.,0.,0.,0.,0.,0.,0.,0.,0.,0.,0.,0.,0.,0.,0.,0.,0.,0.,0.,0.,0.,0.
 ,0.,0.,0.,0.,0.,0.,0.,0.,0.,0.,0.,0.,0.,0.,0.,0.,0.,0.,0.,0.,0.,0.,0.,
 0.,0.,0.,0.,0.,0.,0.,0.,0.,0.,0.,0.,0.,0.,0.,0.,0.,0.,0.,0.,0.,0.,0.,0
 .,0.,0.,0.,0.,0.,0.,0.,0.,0.,0.,0.,0.,0.,0.,0.,0.,0.,0.,0.,0.,0.,0.,0.
 ,0.,0.,0.,0.,0.,0.,0.,0.,0.,0.,0.,0.,0.,0.,0.,0.,0.,0.,0.,0.,0.,0.,0.,
 0.,0.,0.,0.,0.,0.,0.,0.,0.,0.,0.,0.,0.,0.,0.,0.,0.,0.,0.,0.,0.,0.,0.,0
 .,0.,0.,0.,0.,0.,0.,0.,0.,0.,0.,0.,0.,0.,0.,0.,0.,0.,0.,0.,0.,0.,0.,0.
 ,0.,0.,0.,0.,0.,0.,0.,0.,0.,0.,0.,0.,0.,0.,0.,0.,0.,0.,0.,0.,0.,0.,0.,
 0.,0.,0.,0.,0.,0.,0.,0.,0.,0.,0.,0.,0.,0.,0.,0.,0.,0.,0.,0.,0.,0.,0.,0
 .,0.,0.,0.,0.,0.,0.,0.,0.,0.,0.,0.,0.,0.,0.,0.,0.,0.,0.,0.,0.,0.,0.,0.
 ,0.,0.,0.,0.,0.,0.,0.,0.,0.,0.,0.,0.,0.,0.,0.,0.,0.,0.,0.,0.,0.,0.,0.,
 0.,0.,0.,0.,0.,0.,0.,0.,0.,0.,0.,0.,0.,0.,0.,0.,0.,0.,0.,0.,0.,0.,0.,0
 .,0.,0.,0.,0.,0.,0.,0.,0.,0.,0.,0.,0.,0.,0.,0.,0.,0.,0.,0.,0.,0.,0.,0.
 ,0.,0.,0.,0.,0.,0.,0.,0.,0.,0.,0.,0.,0.,0.,0.,0.,0.,0.,0.,0.,0.,0.,0.,
 0.,0.,0.,0.,0.,0.,0.,0.,0.,0.,0.,0.,0.,0.,0.,0.,0.,0.,0.,0.,0.,0.,0.,0
 .,0.,0.,0.,0.,0.,0.,0.,0.,0.,0.,0.,0.,0.,0.,0.,0.,0.,0.,0.,0.,0.,0.,0.
 ,0.,0.,0.,0.,0.,0.,0.,0.,0.,0.,0.,0.,0.,0.,0.,0.,0.,0.,0.,0.,0.,0.,0.,
 0.,0.,0.,0.,0.,0.,0.,0.,0.,0.,0.,0.,0.,0.,0.,0.,0.,0.,0.,0.,0.,0.,0.,0
 .,0.,0.,0.,0.,0.,0.,0.,0.,0.,0.,0.,0.,0.,0.,0.,0.,0.,0.,0.,0.,0.,0.,0.
 ,0.,0.,0.,0.,0.,0.,0.,0.,0.,0.,0.,0.,0.,0.,0.,0.,0.,0.,0.,0.,0.,0.,0.,
 0.,0.,0.,0.,0.,0.,0.,0.,0.,0.,0.,0.,0.,0.,0.,0.,0.,0.,0.,0.,0.,0.,0.,0
 .,0.,0.,0.,0.,0.,0.,0.,0.,0.,0.,0.,0.,0.,0.,0.,0.,0.,0.,0.,0.,0.,0.,0.
 ,0.,0.,0.,0.,0.,0.,0.,0.,0.,0.,0.,0.,0.,0.,0.,0.,0.,0.,0.,0.,0.,0.,0.,
 0.,0.,0.,0.,0.,0.,0.,0.,0.,0.,0.,0.,0.,0.,0.,0.,0.,0.,0.,0.,0.,0.,0.,0
 .,0.,0.,0.,0.,0.,0.,0.,0.,0.,0.,0.,0.,0.,0.,0.,0.,0.,0.,0.,0.,0.,0.,0.
 ,0.,0.,0.,0.,0.,0.,0.,0.,0.,0.,0.,0.,0.,0.,0.,0.,0.,0.,0.,0.,0.,0.,0.,
 0.,0.,0.,0.,0.,0.,0.,0.,0.,0.,0.,0.,0.,0.,0.,0.,0.,0.,0.,0.,0.,0.,0.,0
 .,0.,0.,0.,0.,0.,0.,0.,0.,0.,0.,0.,0.,0.,0.,0.,0.,0.,0.,0.,0.,0.,0.,0.
 ,0.,0.,0.,0.,0.,0.,0.,0.,0.,0.,0.,0.,0.,0.,0.,0.,0.,0.,0.,0.,0.,0.,0.,
 0.,0.,0.,0.,0.,0.,0.,0.,0.,0.,0.,0.,0.,0.,0.,0.,0.,0.,0.,0.,0.,0.,0.,0
 .,0.,0.,0.,0.,0.,0.,0.,0.,0.,0.,0.,0.,0.,0.,0.,0.,0.,0.,0.,0.,0.,0.,0.
 ,0.,0.,0.,0.,0.,0.,0.,0.,0.,0.,0.,0.,0.,0.,0.,0.,0.,0.,0.,0.,0.,0.,0.,
 0.,0.,0.,0.,0.,0.,0.,0.,0.,0.,0.,0.,0.,0.,0.,0.,0.,0.,0.,0.,0.,0.,0.,0
 .,0.,0.,0.,0.,0.,0.,0.,0.,0.,0.,0.,0.,0.,0.,0.,0.,0.,0.,0.,0.,0.,0.,0.
 ,0.,0.,0.,0.,0.,0.,0.,0.,0.,0.,0.,0.,0.,0.,0.,0.,0.,0.,0.,0.,0.,0.,0.,
 0.,0.,0.,0.,0.,0.,0.,0.,0.,0.,0.,0.,0.,0.,0.,0.,0.,0.,0.,0.,0.,0.,0.,0
 .,0.,0.,0.,0.,0.,0.,0.,0.,0.,0.,0.,0.,0.,0.,0.,0.,0.,0.,0.,0.,0.,0.,0.
 ,0.,0.,0.,0.,0.,0.,0.,0.,0.,0.,0.,0.,0.,0.,0.,0.,0.,0.,0.,0.,0.,0.,0.,
 0.,0.,0.,0.,0.,0.,0.,0.,0.,0.,0.,0.,0.,0.,0.,0.,0.,0.,0.,0.,0.,0.,0.,0
 .,0.,0.,0.,0.,0.,0.,0.,0.,0.,0.,0.,0.,0.,0.,0.,0.,0.,0.,0.,0.,0.,0.,0.
 ,0.,0.,0.,0.,0.,0.,0.,0.,0.,0.,0.,0.,0.,0.,0.,0.,0.,0.,0.,0.,0.,0.,0.,
 0.,0.,0.,0.,0.,0.,0.,0.,0.,0.,0.,0.,0.,0.,0.,0.,0.,0.,0.,0.,0.,0.,0.,0
 .,0.,0.,0.,0.,0.,0.,0.,0.,0.,0.,0.,0.,0.,0.,0.,0.,0.,0.,0.,0.,0.,0.,0.
 ,0.,0.,0.,0.,0.,0.,0.,0.,0.,0.,0.,0.,0.,0.,0.,0.,0.,0.,0.,0.,0.,0.,0.,
 0.,0.,0.,0.,0.,0.,0.,0.,0.,0.,0.,0.,0.,0.,0.,0.,0.,0.,0.,0.,0.,0.,0.,0
 .,0.,0.,0.,0.,0.,0.,0.,0.,0.,0.,0.,0.,0.,0.,0.,0.,0.,0.,0.,0.,0.,0.,0.
 ,0.,0.,0.,0.,0.,0.,0.,0.,0.,0.,0.,0.,0.,0.,0.,0.,0.,0.,0.,0.,0.,0.,0.,
 0.,0.,0.,0.,0.,0.,0.,0.,0.,0.,0.,0.,0.,0.,0.,0.,0.,0.,0.,0.,0.,0.,0.,0
 .,0.,0.,0.,0.,0.,0.,0.,0.,0.,0.,0.,0.,0.,0.,0.,0.,0.,0.,0.,0.,0.,0.,0.
 ,0.,0.,0.,0.,0.,0.,0.,0.,0.,0.,0.,0.,0.,0.,0.,0.,0.,0.,0.,0.,0.,0.,0.,
 0.,0.,0.,0.,0.,0.,0.,0.,0.,0.,0.,0.,0.,0.,0.,0.,0.,0.,0.,0.,0.,0.,0.,0
 .,0.,0.,0.,0.,0.,0.,0.,0.,0.,0.,0.,0.,0.,0.,0.,0.,0.,0.,0.,0.,0.,0.,0.
 ,0.,0.,0.,0.,0.,0.,0.,0.,0.,0.,0.,0.,0.,0.,0.,0.,0.,0.,0.,0.,0.,0.,0.,
 0.,0.,0.,0.,0.,0.,0.,0.,0.,0.,0.,0.,0.,0.,0.,0.,0.,0.,0.,0.,0.,0.,0.,0
 .,0.,0.,0.,0.,0.,0.,0.,0.,0.,0.,0.,0.,0.,0.,0.,0.,0.,0.,0.,0.,0.,0.,0.
 ,0.,0.,0.,0.,0.,0.,0.,0.,0.,0.,0.,0.,0.,0.,0.,0.,0.,0.,0.,0.,0.,0.,0.,
 0.,0.,0.,0.,0.,0.,0.,0.,0.,0.,0.,0.,0.,0.,0.,0.,0.,0.,0.,0.,0.,0.,0.,0
 .,0.,0.,0.,0.,0.,0.,0.,0.,0.,0.,0.,0.,0.,0.,0.,0.,0.,0.,0.,0.,0.,0.,0.
 ,0.,0.,0.,0.,0.,0.,0.,0.,0.,0.,0.,0.,0.,0.,0.,0.,0.,0.,0.,0.,0.,0.,0.,
 0.,0.,0.,0.,0.,0.,0.,0.,0.,0.,0.,0.,0.,0.,0.,0.,0.,0.,0.,0.,0.,0.,0.,0
 .,0.,0.,0.,0.,0.,0.,0.,0.,0.,0.,0.,0.,0.,0.,0.,0.,0.,0.,0.,0.,0.,0.,0.
 ,0.,0.,0.,0.,0.,0.,0.,0.,0.,0.,0.,0.,0.,0.,0.,0.,0.,0.,0.,0.,0.,0.,0.,
 0.,0.,0.,0.,0.,0.,0.,0.,0.,0.,0.,0.,0.,0.,0.,0.,0.,0.,0.,0.,0.,0.,0.,0
 .,0.,0.,0.,0.,0.,0.,0.,0.,0.,0.,0.,0.,0.,0.,0.,0.,0.,0.,0.,0.,0.,0.,0.
 ,0.,0.,0.,0.,0.,0.,0.,0.,0.,0.,0.,0.,0.,0.,0.,0.,0.,0.,0.,0.,0.,0.,0.,
 0.,0.,0.,0.,0.,0.,0.,0.,0.,0.,0.,0.,0.,0.,0.,0.,0.,0.,0.,0.,0.,0.,0.,0
 .,0.,0.,0.,0.,0.,0.,0.,0.,0.,0.,0.,0.,0.,0.,0.,0.,0.,0.,0.,0.,0.,0.,0.
 ,0.,0.,0.,0.,0.,0.,0.,0.,0.,0.,0.,0.,0.,0.,0.,0.,0.,0.,0.,0.,0.,0.,0.,
 0.,0.,0.,0.,0.,0.,0.,0.,0.,0.,0.,0.,0.,0.,0.,0.,0.,0.,0.,0.,0.,0.,0.,0
 .,0.,0.,0.,0.,0.,0.,0.,0.,0.,0.,0.,0.,0.,0.,0.,0.,0.,0.,0.,0.,0.,0.,0.
 ,0.,0.,0.,0.,0.,0.,0.,0.,0.,0.,0.,0.,0.,0.,0.,0.,0.,0.,0.,0.,0.,0.,0.,
 0.,0.,0.,0.,0.,0.,0.,0.,0.,0.,0.,0.,0.,0.,0.,0.,0.,0.,0.,0.,0.,0.,0.,0
 .,0.,0.,0.,0.,0.,0.,0.,0.,0.,0.,0.,0.,0.,0.,0.,0.,1.12091587,0.,0.,0.,
 0.,0.,0.,0.,0.,0.,0.,0.,0.,0.,0.,0.,0.,0.,0.,0.,0.,0.,0.,0.,0.,0.,0.,0
 .,0.,0.,0.,0.,0.,0.,0.,0.,0.,0.,0.,0.,0.,0.,0.,0.,0.,0.,0.,0.,0.,0.,0.
 ,0.,0.,0.,0.,0.,0.,0.,0.,0.,0.,0.,0.,0.,0.,0.,0.,0.,0.,0.,0.,0.,0.,0.,
 0.,0.,0.,0.,0.,0.,0.,0.,0.,0.,0.,0.,0.,0.,0.,0.,0.,0.,0.,0.,0.,0.,0.,0
 .,0.,0.,0.,0.,0.,0.,0.,0.,0.,0.,0.,0.,0.,0.,0.,0.,0.,0.,0.,0.,0.,0.,0.
 ,0.,0.,0.,0.,0.,0.,0.,0.,0.,0.,0.,0.,0.,0.,0.,0.,0.,0.,0.,0.,0.,0.,0.,
 0.,0.61048114,0.12972740,0.,0.,0.,0.,0.,0.,0.,0.,0.,0.,0.,0.,0.,0.,0.,
 0.,0.,0.,0.,0.,0.,0.,0.,0.,0.,0.,0.,0.,0.,0.,0.,0.,0.,0.,0.,0.,0.,0.,0
 .,0.,0.,0.,0.,0.,0.,0.,0.,0.,0.,0.,0.,0.,0.,0.,0.,0.,0.,0.,0.,0.,0.,0.
 ,0.,0.,0.,0.,0.,0.,0.,0.,0.,0.,0.,0.,0.,0.,0.,0.,0.,0.,0.,0.,0.,0.,0.,
 0.,0.,0.,0.,0.,0.,0.,0.,0.,0.,0.,0.,0.,0.,0.,0.,0.,0.,0.,0.,0.,0.,0.,0
 .,0.,0.,0.,0.,0.,0.,0.,0.,0.,0.,0.,0.,0.,0.,0.,0.,0.,0.,0.,0.,0.,0.,0.
 ,0.,0.,0.,0.,0.,0.,0.,0.,0.,0.,0.,0.,-0.06096721,0.02271302,0.22945459
 ,0.,0.,0.,0.,0.,0.,0.,0.,0.,0.,0.,0.,0.,0.,0.,0.,0.,0.,0.,0.,0.,0.,0.,
 0.,0.,0.,0.,0.,0.,0.,0.,0.,0.,0.,0.,0.,0.,0.,0.,0.,0.,0.,0.,0.,0.,0.,0
 .,0.,0.,0.,0.,0.,0.,0.,0.,0.,0.,0.,0.,0.,0.,0.,0.,0.,0.,0.,0.,0.,0.,0.
 ,0.,0.,0.,0.,0.,0.,0.,0.,0.,0.,0.,0.,0.,0.,0.,0.,0.,0.,0.,0.,0.,0.,0.,
 0.,0.,0.,0.,0.,0.,0.,0.,0.,0.,0.,0.,0.,0.,0.,0.,0.,0.,0.,0.,0.,0.,0.,0
 .,0.,0.,0.,0.,0.,0.,0.,0.,0.,0.,0.,0.,0.,0.,0.,0.,0.,0.,0.,0.,0.,0.,0.
 ,0.,0.,0.,0.,-0.52846439,-0.23033721,0.26419743,0.66911519,0.,0.,0.,0.
 ,0.,0.,0.,0.,0.,0.,0.,0.,0.,0.,0.,0.,0.,0.,0.,0.,0.,0.,0.,0.,0.,0.,0.,
 0.,0.,0.,0.,0.,0.,0.,0.,0.,0.,0.,0.,0.,0.,0.,0.,0.,0.,0.,0.,0.,0.,0.,0
 .,0.,0.,0.,0.,0.,0.,0.,0.,0.,0.,0.,0.,0.,0.,0.,0.,0.,0.,0.,0.,0.,0.,0.
 ,0.,0.,0.,0.,0.,0.,0.,0.,0.,0.,0.,0.,0.,0.,0.,0.,0.,0.,0.,0.,0.,0.,0.,
 0.,0.,0.,0.,0.,0.,0.,0.,0.,0.,0.,0.,0.,0.,0.,0.,0.,0.,0.,0.,0.,0.,0.,0
 .,0.,0.,0.,0.,0.,0.,0.,0.,0.,0.,0.,0.,0.,0.,0.,0.,0.,0.,0.,0.,0.,0.,0.
 ,-0.21766419,-0.00727754,0.08910134,0.30448789,0.07509786,0.,0.,0.,0.,
 0.,0.,0.,0.,0.,0.,0.,0.,0.,0.,0.,0.,0.,0.,0.,0.,0.,0.,0.,0.,0.,0.,0.,0
 .,0.,0.,0.,0.,0.,0.,0.,0.,0.,0.,0.,0.,0.,0.,0.,0.,0.,0.,0.,0.,0.,0.,0.
 ,0.,0.,0.,0.,0.,0.,0.,0.,0.,0.,0.,0.,0.,0.,0.,0.,0.,0.,0.,0.,0.,0.,0.,
 0.,0.,0.,0.,0.,0.,0.,0.,0.,0.,0.,0.,0.,0.,0.,0.,0.,0.,0.,0.,0.,0.,0.,0
 .,0.,0.,0.,0.,0.,0.,0.,0.,0.,0.,0.,0.,0.,0.,0.,0.,0.,0.,0.,0.,0.,0.,0.
 ,0.,0.,0.,0.,0.,0.,0.,0.,0.,0.,0.,0.,0.,0.,0.,0.,0.,0.,0.,0.,0.,0.,0.,
 0.25207334,0.07215139,-0.11452992,-0.22575593,-0.06027332,0.08794192,0
 .,0.,0.,0.,0.,0.,0.,0.,0.,0.,0.,0.,0.,0.,0.,0.,0.,0.,0.,0.,0.,0.,0.,0.
 ,0.,0.,0.,0.,0.,0.,0.,0.,0.,0.,0.,0.,0.,0.,0.,0.,0.,0.,0.,0.,0.,0.,0.,
 0.,0.,0.,0.,0.,0.,0.,0.,0.,0.,0.,0.,0.,0.,0.,0.,0.,0.,0.,0.,0.,0.,0.,0
 .,0.,0.,0.,0.,0.,0.,0.,0.,0.,0.,0.,0.,0.,0.,0.,0.,0.,0.,0.,0.,0.,0.,0.
 ,0.,0.,0.,0.,0.,0.,0.,0.,0.,0.,0.,0.,0.,0.,0.,0.,0.,0.,0.,0.,0.,0.,0.,
 0.,0.,0.,0.,0.,0.,0.,0.,0.,0.,0.,0.,0.,0.,0.,0.,0.,0.,0.,0.,0.,0.,0.,0
 .,0.,0.,0.,-0.50558796,-0.36279147,-0.17820371,-0.16192699,-0.09914056
 ,0.00399035,0.64973313,0.,0.,0.,0.,0.,0.,0.,0.,0.,0.,0.,0.,0.,0.,0.,0.
 ,0.,0.,0.,0.,0.,0.,0.,0.,0.,0.,0.,0.,0.,0.,0.,0.,0.,0.,0.,0.,0.,0.,0.,
 0.,0.,0.,0.,0.,0.,0.,0.,0.,0.,0.,0.,0.,0.,0.,0.,0.,0.,0.,0.,0.,0.,0.,0
 .,0.,0.,0.,0.,0.,0.,0.,0.,0.,0.,0.,0.,0.,0.,0.,0.,0.,0.,0.,0.,0.,0.,0.
 ,0.,0.,0.,0.,0.,0.,0.,0.,0.,0.,0.,0.,0.,0.,0.,0.,0.,0.,0.,0.,0.,0.,0.,
 0.,0.,0.,0.,0.,0.,0.,0.,0.,0.,0.,0.,0.,0.,0.,0.,0.,0.,0.,0.,0.,0.,0.,0
 .,0.,0.,0.,0.,0.,0.,0.,0.,0.,0.,0.,-0.42729313,-0.09804640,-0.16155387
 ,-0.08170366,-0.08535562,0.02254557,0.45635708,0.20549115,0.,0.,0.,0.,
 0.,0.,0.,0.,0.,0.,0.,0.,0.,0.,0.,0.,0.,0.,0.,0.,0.,0.,0.,0.,0.,0.,0.,0
 .,0.,0.,0.,0.,0.,0.,0.,0.,0.,0.,0.,0.,0.,0.,0.,0.,0.,0.,0.,0.,0.,0.,0.
 ,0.,0.,0.,0.,0.,0.,0.,0.,0.,0.,0.,0.,0.,0.,0.,0.,0.,0.,0.,0.,0.,0.,0.,
 0.,0.,0.,0.,0.,0.,0.,0.,0.,0.,0.,0.,0.,0.,0.,0.,0.,0.,0.,0.,0.,0.,0.,0
 .,0.,0.,0.,0.,0.,0.,0.,0.,0.,0.,0.,0.,0.,0.,0.,0.,0.,0.,0.,0.,0.,0.,0.
 ,0.,0.,0.,0.,0.,0.,0.,0.,0.,0.,0.,0.,0.,0.,0.,0.,0.,0.,0.,0.,0.,0.,0.,
 -0.17279122,-0.11796969,0.00144065,0.03025454,0.02043921,0.00036416,0.
 16524690,0.07811327,0.06918445||0.,0.,0.,0.,0.,0.,0.,0.,0.,0.,0.,0.,0.
 ,0.,0.,0.,0.,0.,0.,0.,0.,0.,0.,0.,0.,0.,0.,0.,0.,0.,0.,0.,0.,0.,0.,0.,
 0.,0.,0.,0.,0.,0.,0.,0.,0.,0.,0.,0.,0.,0.,0.,0.,0.,0.,0.,0.,0.,0.,0.,0
 .,0.,0.,0.,0.,0.,0.,0.,0.,0.,0.,0.,0.,0.,0.,0.,0.,0.,0.,0.,0.,0.,0.,0.
 ,0.,0.,0.,0.,0.,0.,0.,0.,0.,0.,0.,0.,0.,0.,0.,0.,0.,0.,0.,0.,0.,0.,0.,
 0.,0.,0.,0.,0.,0.,0.,0.,0.,0.,0.,0.,0.,0.,0.,0.,0.,0.,0.,0.,0.,0.,0.,0
 .,0.,0.,0.,0.,0.,0.,0.,0.,0.,0.,0.,0.,0.,0.,-0.07214385,-0.01176401,-0
 .13132043,-0.09832066,-0.06537002,0.04258023,0.13508451,0.07981375,-0.
 01046309|||@


 FIREWORKS ENDED
 AND SPECTATORS GONE AWAY....
 AH, HOW VAST AND DARK
                     SHIKI
 Job cpu time:       0 days  0 hours 11 minutes 30.0 seconds.
 File lengths (MBytes):  RWF=   2376 Int=      0 D2E=      0 Chk=     17 Scr=      1
 Normal termination of Gaussian 09 at Sun Jan 05 17:25:14 2025.
