 Entering Link 1 = C:\G09W\l1.exe PID=     24352.
  
 Copyright (c) 1988,1990,1992,1993,1995,1998,2003,2009,2013,
            Gaussian, Inc.  All Rights Reserved.
  
 This is part of the Gaussian(R) 09 program.  It is based on
 the Gaussian(R) 03 system (copyright 2003, Gaussian, Inc.),
 the Gaussian(R) 98 system (copyright 1998, Gaussian, Inc.),
 the Gaussian(R) 94 system (copyright 1995, Gaussian, Inc.),
 the Gaussian 92(TM) system (copyright 1992, Gaussian, Inc.),
 the Gaussian 90(TM) system (copyright 1990, Gaussian, Inc.),
 the Gaussian 88(TM) system (copyright 1988, Gaussian, Inc.),
 the Gaussian 86(TM) system (copyright 1986, Carnegie Mellon
 University), and the Gaussian 82(TM) system (copyright 1983,
 Carnegie Mellon University). Gaussian is a federally registered
 trademark of Gaussian, Inc.
  
 This software contains proprietary and confidential information,
 including trade secrets, belonging to Gaussian, Inc.
  
 This software is provided under written license and may be
 used, copied, transmitted, or stored only in accord with that
 written license.
  
 The following legend is applicable only to US Government
 contracts under FAR:
  
                    RESTRICTED RIGHTS LEGEND
  
 Use, reproduction and disclosure by the US Government is
 subject to restrictions as set forth in subparagraphs (a)
 and (c) of the Commercial Computer Software - Restricted
 Rights clause in FAR 52.227-19.
  
 Gaussian, Inc.
 340 Quinnipiac St., Bldg. 40, Wallingford CT 06492
  
  
 ---------------------------------------------------------------
 Warning -- This program may not be used in any manner that
 competes with the business of Gaussian, Inc. or will provide
 assistance to any competitor of Gaussian, Inc.  The licensee
 of this program is prohibited from giving any competitor of
 Gaussian, Inc. access to this program.  By using this program,
 the user acknowledges that Gaussian, Inc. is engaged in the
 business of creating and licensing software in the field of
 computational chemistry and represents and warrants to the
 licensee that it is not a competitor of Gaussian, Inc. and that
 it will not use this program in any manner prohibited above.
 ---------------------------------------------------------------
  

 Cite this work as:
 Gaussian 09, Revision D.01,
 M. J. Frisch, G. W. Trucks, H. B. Schlegel, G. E. Scuseria, 
 M. A. Robb, J. R. Cheeseman, G. Scalmani, V. Barone, B. Mennucci, 
 G. A. Petersson, H. Nakatsuji, M. Caricato, X. Li, H. P. Hratchian, 
 A. F. Izmaylov, J. Bloino, G. Zheng, J. L. Sonnenberg, M. Hada, 
 M. Ehara, K. Toyota, R. Fukuda, J. Hasegawa, M. Ishida, T. Nakajima, 
 Y. Honda, O. Kitao, H. Nakai, T. Vreven, J. A. Montgomery, Jr., 
 J. E. Peralta, F. Ogliaro, M. Bearpark, J. J. Heyd, E. Brothers, 
 K. N. Kudin, V. N. Staroverov, T. Keith, R. Kobayashi, J. Normand, 
 K. Raghavachari, A. Rendell, J. C. Burant, S. S. Iyengar, J. Tomasi, 
 M. Cossi, N. Rega, J. M. Millam, M. Klene, J. E. Knox, J. B. Cross, 
 V. Bakken, C. Adamo, J. Jaramillo, R. Gomperts, R. E. Stratmann, 
 O. Yazyev, A. J. Austin, R. Cammi, C. Pomelli, J. W. Ochterski, 
 R. L. Martin, K. Morokuma, V. G. Zakrzewski, G. A. Voth, 
 P. Salvador, J. J. Dannenberg, S. Dapprich, A. D. Daniels, 
 O. Farkas, J. B. Foresman, J. V. Ortiz, J. Cioslowski, 
 and D. J. Fox, Gaussian, Inc., Wallingford CT, 2013.
 
 ******************************************
 Gaussian 09:  IA32W-G09RevD.01 24-Apr-2013
                05-Jan-2025 
 ******************************************
 %nprocshared=2
 Will use up to    2 processors via shared memory.
 %mem=1GB
 %chk=G:\My Drive\Boro Kaaz\Pt doped MoS2\NO\Pt doped MoS2+NO_freq.chk
 ------------------------------------------------
 # freq pm6 guess=huckel scf=qc geom=connectivity
 ------------------------------------------------
 1/10=4,30=1,38=1,57=2/1,3;
 2/12=2,17=6,18=5,40=1/2;
 3/5=2,16=1,25=1,41=3900000,71=2,140=1/1,2,3;
 4/11=4,35=1/1;
 5/5=2,8=3,35=1,38=5,98=1/8;
 8/6=4,10=90,11=11/1;
 11/6=1,8=1,9=11,15=111,16=1/1,2,10;
 10/6=1/2;
 6/7=2,8=2,9=2,10=2,18=1,28=1/1;
 7/8=1,10=1,25=1/1,2,3,16;
 1/10=4,30=1/3;
 99//99;
 -------------------
 Title Card Required
 -------------------
 Symbolic Z-matrix:
 Charge =  0 Multiplicity = 2
 Mo                   -1   -1.73147   0.37168   0.92293 
 S                    -1   -3.06201   1.42123   2.64619 
 S                    -1   -3.7172    0.86556  -0.36336 
 Mo                   -1    1.3648    0.63454   0.20033 
 Mo                   -1    4.46107   0.8974   -0.52227 
 Mo                   -1    7.55733   1.16026  -1.24487 
 S                    -1    0.03426   1.6841    1.9236 
 S                    -1    3.13052   1.94696   1.201 
 S                    -1    6.22679   2.20982   0.4784 
 S                    -1   -0.62093   1.12842  -1.08596 
 S                    -1    2.47534   1.39129  -1.80855 
 S                    -1    5.5716    1.65415  -2.53115 
 Mo                   -1   -3.60961   2.9497    0.8558 
 Mo                   -1   -5.48775   5.52772   0.78868 
 Mo                   -1   -7.36589   8.10574   0.72156 
 S                    -1   -4.94015   3.99926   2.57907 
 S                    -1   -6.81829   6.57728   2.51195 
 S                    -1   -8.69643   9.1553    2.44483 
 S                    -1   -5.59534   3.44358  -0.43048 
 S                    -1   -7.47348   6.02161  -0.4976 
 S                    -1   -9.35162   8.59963  -0.56472 
 Mo                   -1   -0.51334   3.21256   0.13321 
 Mo                   -1   -2.39148   5.79058   0.06609 
 Mo                   -1   -4.26962   8.36861  -0.00103 
 Mo                   -1    2.58293   3.47542  -0.58939 
 Mo                   -1   -1.17335   8.63147  -0.72363 
 Mo                   -1    5.67919   3.73829  -1.31199 
 Mo                   -1    3.80105   6.31631  -1.37911 
 Mo                   -1    1.92291   8.89433  -1.44623 
 S                    -1   -1.84388   4.26212   1.85648 
 S                    -1   -3.72202   6.84014   1.78936 
 S                    -1   -5.60016   9.41816   1.72224 
 S                    -1    1.25238   4.52498   1.13388 
 S                    -1   -0.62575   7.103     1.06676 
 S                    -1   -2.50389   9.68102   0.99964 
 S                    -1    4.34865   4.78784   0.41128 
 S                    -1    2.47051   7.36586   0.34416 
 S                    -1    0.59237   9.94389   0.27704 
 S                    -1   -2.49907   3.70645  -1.15308 
 S                    -1   -4.37721   6.28447  -1.2202 
 S                    -1   -6.25535   8.86249  -1.28732 
 S                    -1    0.5972    3.96931  -1.87568 
 S                    -1   -1.28094   6.54733  -1.9428 
 S                    -1   -3.15908   9.12535  -2.00992 
 S                    -1    3.69347   4.23217  -2.59827 
 S                    -1    1.81533   6.81019  -2.66539 
 S                    -1   -0.06281   9.38821  -2.73251 
 Pt                   -1    0.70479   6.05345  -0.65651 
 N                    0     0.15695   5.24958   2.79683 
 O                    0     1.34535   5.11265   2.8327 
 

 GradGradGradGradGradGradGradGradGradGradGradGradGradGradGradGradGradGrad
 Berny optimization.
 Initialization pass.
 Trust Radius=3.00D-01 FncErr=1.00D-07 GrdErr=1.00D-07
 Number of steps in this run=      2 maximum allowed number of steps=      2.
 GradGradGradGradGradGradGradGradGradGradGradGradGradGradGradGradGradGrad

                          Input orientation:                          
 ---------------------------------------------------------------------
 Center     Atomic      Atomic             Coordinates (Angstroms)
 Number     Number       Type             X           Y           Z
 ---------------------------------------------------------------------
      1         42           0       -1.731467    0.371677    0.922925
      2         16           0       -3.062010    1.421233    2.646195
      3         16           0       -3.717196    0.865562   -0.363359
      4         42           0        1.364800    0.634539    0.200327
      5         42           0        4.461067    0.897401   -0.522271
      6         42           0        7.557334    1.160263   -1.244869
      7         16           0        0.034257    1.684095    1.923597
      8         16           0        3.130524    1.946957    1.200999
      9         16           0        6.226792    2.209819    0.478400
     10         16           0       -0.620929    1.128423   -1.085957
     11         16           0        2.475338    1.391285   -1.808555
     12         16           0        5.571605    1.654147   -2.531153
     13         42           0       -3.609607    2.949700    0.855805
     14         42           0       -5.487747    5.527722    0.788685
     15         42           0       -7.365887    8.105745    0.721564
     16         16           0       -4.940149    3.999256    2.579074
     17         16           0       -6.818289    6.577279    2.511954
     18         16           0       -8.696429    9.155301    2.444833
     19         16           0       -5.595336    3.443584   -0.430479
     20         16           0       -7.473476    6.021607   -0.497600
     21         16           0       -9.351615    8.599629   -0.564720
     22         42           0       -0.513340    3.212562    0.133207
     23         42           0       -2.391480    5.790584    0.066086
     24         42           0       -4.269619    8.368607   -0.001034
     25         42           0        2.582927    3.475424   -0.589391
     26         42           0       -1.173352    8.631469   -0.723632
     27         42           0        5.679194    3.738285   -1.311989
     28         42           0        3.801054    6.316308   -1.379110
     29         42           0        1.922915    8.894331   -1.446230
     30         16           0       -1.843882    4.262118    1.856476
     31         16           0       -3.722022    6.840140    1.789356
     32         16           0       -5.600162    9.418163    1.722235
     33         16           0        1.252385    4.524980    1.133878
     34         16           0       -0.625755    7.103002    1.066758
     35         16           0       -2.503895    9.681025    0.999637
     36         16           0        4.348652    4.787842    0.411280
     37         16           0        2.470512    7.365864    0.344159
     38         16           0        0.592372    9.943887    0.277039
     39         16           0       -2.499069    3.706446   -1.153077
     40         16           0       -4.377209    6.284469   -1.220198
     41         16           0       -6.255348    8.862491   -1.287318
     42         16           0        0.597198    3.969308   -1.875675
     43         16           0       -1.280942    6.547330   -1.942796
     44         16           0       -3.159081    9.125353   -2.009916
     45         16           0        3.693465    4.232170   -2.598273
     46         16           0        1.815326    6.810192   -2.665394
     47         16           0       -0.062814    9.388215   -2.732514
     48         78           0        0.704787    6.053446   -0.656512
     49          7           0        0.156946    5.249582    2.796827
     50          8           0        1.345346    5.112651    2.832701
 ---------------------------------------------------------------------
                    Distance matrix (angstroms):
                    1          2          3          4          5
     1  Mo   0.000000
     2  S    2.416934   0.000000
     3  S    2.416934   3.129769   0.000000
     4  Mo   3.190316   5.118378   5.118378   0.000000
     5  Mo   6.380631   8.179869   8.179869   3.190316   0.000000
     6  Mo   9.570947  11.312778  11.312778   6.380631   3.190316
     7  S    2.416934   3.190316   4.469180   2.416934   5.118378
     8  S    5.118378   6.380631   7.106892   2.416934   2.416934
     9  S    8.179869   9.570947  10.069681   5.118378   2.416934
    10  S    2.416934   4.469180   3.190316   2.416934   5.118378
    11  S    5.118378   7.106892   6.380631   2.416934   2.416934
    12  S    8.179869  10.069681   9.570947   5.118378   2.416934
    13  Mo   3.190316   2.416934   2.416934   5.525789   8.440782
    14  Mo   6.380631   5.118378   5.118378   8.440782  11.051578
    15  Mo   9.570947   8.179869   8.179869  11.502847  13.906264
    16  S    5.118378   3.190316   4.469180   7.532074  10.374137
    17  S    8.179869   6.380631   7.106892  10.374137  12.988125
    18  S   11.312778   9.570947  10.069681  13.374211  15.815066
    19  S    5.118378   4.469180   3.190316   7.532074  10.374137
    20  S    8.179869   7.106892   6.380631  10.374137  12.988125
    21  S   11.312778  10.069681   9.570947  13.374211  15.815066
    22  Mo   3.190316   4.002460   4.002460   3.190316   5.525789
    23  Mo   5.525789   5.118378   5.118378   6.380631   8.440782
    24  Mo   8.440782   7.532074   7.532074   9.570947  11.502847
    25  Mo   5.525789   6.823051   6.823051   3.190316   3.190316
    26  Mo   8.440782   8.179869   8.179869   8.440782   9.570947
    27  Mo   8.440782   9.871403   9.871403   5.525789   3.190316
    28  Mo   8.440782   9.341653   9.341653   6.380631   5.525789
    29  Mo   9.570947   9.871403   9.871403   8.440782   8.440782
    30  S    4.002460   3.190316   4.469180   5.118378   7.532074
    31  S    6.823051   5.525789   6.350574   8.179869  10.374137
    32  S    9.871403   8.440782   9.002347  11.312778  13.374211
    33  S    5.118378   5.525789   6.350574   4.002460   5.118378
    34  S    6.823051   6.380631   7.106892   6.823051   8.179869
    35  S    9.341653   8.440782   9.002347   9.871403  11.312778
    36  S    7.532074   8.440782   9.002347   5.118378   4.002460
    37  S    8.179869   8.440782   9.002347   6.823051   6.823051
    38  S    9.871403   9.570947  10.069681   9.341653   9.871403
    39  S    4.002460   4.469180   3.190316   5.118378   7.532074
    40  S    6.823051   6.350574   5.525789   8.179869  10.374137
    41  S    9.871403   9.002347   8.440782  11.312778  13.374211
    42  S    5.118378   6.350574   5.525789   4.002460   5.118378
    43  S    6.823051   7.106892   6.380631   6.823051   8.179869
    44  S    9.341653   9.002347   8.440782   9.871403  11.312778
    45  S    7.532074   9.002347   8.440782   5.118378   4.002460
    46  S    8.179869   9.002347   8.440782   6.823051   6.823051
    47  S    9.871403  10.069681   9.570947   9.341653   9.871403
    48  Pt   6.380631   6.823051   6.823051   5.525789   6.380631
    49  N    5.556219   5.004060   6.649465   5.431330   6.962998
    50  O    5.965807   5.752055   7.340429   5.194541   6.223495
                    6          7          8          9         10
     6  Mo   0.000000
     7  S    8.179869   0.000000
     8  S    5.118378   3.190316   0.000000
     9  S    2.416934   6.380631   3.190316   0.000000
    10  S    8.179869   3.129769   4.469180   7.106892   0.000000
    11  S    5.118378   4.469180   3.129769   4.469180   3.190316
    12  S    2.416934   7.106892   4.469180   3.129769   6.380631
    13  Mo  11.502847   4.002460   6.823051   9.871403   4.002459
    14  Mo  13.906264   6.823051   9.341653  12.179293   6.823051
    15  Mo  16.577367   9.871403  12.179293  14.818298   9.871403
    16  S   13.374211   5.525789   8.440782  11.502847   6.350574
    17  S   15.815066   8.440782  11.051578  13.906264   9.002347
    18  S   18.485652  11.502847  13.906264  16.577367  11.921029
    19  S   13.374211   6.350574   9.002347  11.921029   5.525789
    20  S   15.815066   9.002347  11.486201  14.254109   8.440782
    21  S   18.485652  11.921029  14.254109  16.870226  11.502847
    22  Mo   8.440782   2.416934   4.002460   6.823051   2.416934
    23  Mo  11.051578   5.118378   6.823051   9.341653   5.118378
    24  Mo  13.906264   8.179869   9.871403  12.179293   8.179869
    25  Mo   5.525789   4.002460   2.416934   4.002460   4.002460
    26  Mo  11.502847   7.532074   8.179869   9.871403   7.532074
    27  Mo   3.190316   6.823051   4.002460   2.416934   6.823051
    28  Mo   6.380631   6.823051   5.118378   5.118378   6.823051
    29  Mo   9.570947   8.179869   7.532074   8.179869   8.179869
    30  S   10.374137   3.190316   5.525789   8.440782   4.469180
    31  S   12.988125   6.380631   8.440782  11.051578   7.106892
    32  S   15.815066   9.570947  11.502847  13.906264  10.069681
    33  S    7.532074   3.190316   3.190316   5.525789   4.469180
    34  S   10.374137   5.525789   6.380631   8.440782   6.350574
    35  S   13.374211   8.440782   9.570947  11.502847   9.002347
    36  S    5.118378   5.525789   3.190316   3.190316   6.350574
    37  S    8.179869   6.380631   5.525789   6.380631   7.106892
    38  S   11.312778   8.440782   8.440782   9.570947   9.002347
    39  S   10.374137   4.469180   6.350574   9.002347   3.190316
    40  S   12.988125   7.106892   9.002347  11.486201   6.380631
    41  S   15.815066  10.069681  11.921029  14.254109   9.570947
    42  S    7.532074   4.469180   4.469180   6.350574   3.190316
    43  S   10.374137   6.350574   7.106892   9.002347   5.525789
    44  S   13.374211   9.002347  10.069681  11.921029   8.440782
    45  S    5.118378   6.350574   4.469180   4.469180   5.525789
    46  S    8.179869   7.106892   6.350574   7.106892   6.380631
    47  S   11.312778   9.002347   9.002347  10.069681   8.440782
    48  Pt   8.440782   5.118378   5.118378   6.823051   5.118378
    49  N    9.371423   3.672912   4.721882   7.173443   5.715335
    50  O    8.416457   3.781590   3.983834   6.147982   5.924204
                   11         12         13         14         15
    11  S    0.000000
    12  S    3.190316   0.000000
    13  Mo   6.823051   9.871403   0.000000
    14  Mo   9.341653  12.179293   3.190316   0.000000
    15  Mo  12.179293  14.818298   6.380631   3.190316   0.000000
    16  S    9.002347  11.921029   2.416934   2.416934   5.118378
    17  S   11.486201  14.254109   5.118378   2.416934   2.416934
    18  S   14.254109  16.870226   8.179869   5.118378   2.416934
    19  S    8.440782  11.502847   2.416934   2.416934   5.118378
    20  S   11.051578  13.906264   5.118378   2.416934   2.416934
    21  S   13.906264  16.577367   8.179869   5.118378   2.416934
    22  Mo   4.002460   6.823051   3.190316   5.525789   8.440782
    23  Mo   6.823051   9.341653   3.190316   3.190316   5.525789
    24  Mo   9.871403  12.179293   5.525789   3.190316   3.190316
    25  Mo   2.416934   4.002460   6.380631   8.440782  11.051578
    26  Mo   8.179869   9.871403   6.380631   5.525789   6.380631
    27  Mo   4.002459   2.416934   9.570947  11.502847  13.906264
    28  Mo   5.118378   5.118378   8.440782   9.570947  11.502847
    29  Mo   7.532074   8.179869   8.440782   8.440782   9.570947
    30  S    6.350574   9.002347   2.416934   4.002460   6.823051
    31  S    9.002347  11.486201   4.002460   2.416934   4.002460
    32  S   11.921029  14.254109   6.823051   4.002460   2.416934
    33  S    4.469180   6.350574   5.118378   6.823051   9.341653
    34  S    7.106892   9.002347   5.118378   5.118378   6.823051
    35  S   10.069681  11.921029   6.823051   5.118378   5.118378
    36  S    4.469180   4.469180   8.179869   9.871403  12.179293
    37  S    6.350574   7.106892   7.532074   8.179869   9.871403
    38  S    9.002347  10.069681   8.179869   7.532074   8.179869
    39  S    5.525789   8.440782   2.416934   4.002460   6.823051
    40  S    8.440782  11.051578   4.002460   2.416934   4.002459
    41  S   11.502847  13.906264   6.823051   4.002460   2.416934
    42  S    3.190316   5.525789   5.118378   6.823051   9.341653
    43  S    6.380631   8.440782   5.118378   5.118378   6.823051
    44  S    9.570947  11.502847   6.823051   5.118378   5.118378
    45  S    3.190316   3.190316   8.179869   9.871403  12.179293
    46  S    5.525789   6.380631   7.532074   8.179869   9.871403
    47  S    8.440782   9.570947   8.179869   7.532074   8.179869
    48  Pt   5.118378   6.823051   5.525789   6.380631   8.440782
    49  N    6.439793   8.404347   4.821198   5.997713   8.310078
    50  O    6.055304   7.654636   5.756564   7.144329   9.449925
                   16         17         18         19         20
    16  S    0.000000
    17  S    3.190316   0.000000
    18  S    6.380631   3.190316   0.000000
    19  S    3.129769   4.469180   7.106892   0.000000
    20  S    4.469180   3.129769   4.469180   3.190316   0.000000
    21  S    7.106892   4.469180   3.129769   6.380631   3.190316
    22  Mo   5.118378   7.532074  10.374137   5.118378   7.532074
    23  Mo   4.002460   5.118378   7.532074   4.002459   5.118378
    24  Mo   5.118378   4.002460   5.118378   5.118378   4.002460
    25  Mo   8.179869  10.374137  12.988125   8.179869  10.374137
    26  Mo   6.823051   6.823051   8.179869   6.823051   6.823051
    27  Mo  11.312778  13.374211  15.815066  11.312778  13.374211
    28  Mo   9.871403  11.312778  13.374211   9.871403  11.312778
    29  Mo   9.341653   9.871403  11.312778   9.341653   9.871403
    30  S    3.190316   5.525789   8.440782   4.469180   6.350574
    31  S    3.190316   3.190316   5.525789   4.469180   4.469180
    32  S    5.525789   3.190316   3.190316   6.350574   4.469180
    33  S    6.380631   8.440782  11.051578   7.106892   9.002347
    34  S    5.525789   6.380631   8.440782   6.350574   7.106892
    35  S    6.380631   5.525789   6.380631   7.106892   6.350574
    36  S    9.570947  11.502847  13.906264  10.069681  11.921029
    37  S    8.440782   9.570947  11.502847   9.002347  10.069681
    38  S    8.440782   8.440782   9.570947   9.002347   9.002347
    39  S    4.469180   6.350574   9.002347   3.190316   5.525789
    40  S    4.469180   4.469180   6.350574   3.190316   3.190316
    41  S    6.350574   4.469180   4.469180   5.525789   3.190316
    42  S    7.106892   9.002347  11.486201   6.380631   8.440782
    43  S    6.350574   7.106892   9.002347   5.525789   6.380631
    44  S    7.106892   6.350574   7.106892   6.380631   5.525789
    45  S   10.069681  11.921029  14.254109   9.570947  11.502847
    46  S    9.002347  10.069681  11.921029   8.440782   9.570947
    47  S    9.002347   9.002347  10.069681   8.440782   8.440782
    48  Pt   6.823051   8.179869  10.374137   6.823051   8.179869
    49  N    5.252724   7.106183   9.683016   6.838559   8.347012
    50  O    6.388382   8.300177  10.831929   7.849025   9.470413
                   21         22         23         24         25
    21  S    0.000000
    22  Mo  10.374137   0.000000
    23  Mo   7.532074   3.190316   0.000000
    24  Mo   5.118378   6.380631   3.190316   0.000000
    25  Mo  12.988125   3.190316   5.525789   8.440782   0.000000
    26  Mo   8.179869   5.525789   3.190316   3.190316   6.380631
    27  Mo  15.815066   6.380631   8.440782  11.051578   3.190316
    28  Mo  13.374211   5.525789   6.380631   8.440782   3.190316
    29  Mo  11.312778   6.380631   5.525789   6.380631   5.525789
    30  S    9.002347   2.416934   2.416934   5.118378   5.118378
    31  S    6.350574   5.118378   2.416934   2.416934   7.532074
    32  S    4.469180   8.179869   5.118378   2.416934  10.374137
    33  S   11.486201   2.416934   4.002460   6.823051   2.416934
    34  S    9.002347   4.002460   2.416934   4.002460   5.118378
    35  S    7.106892   6.823051   4.002460   2.416934   8.179869
    36  S   14.254109   5.118378   6.823051   9.341653   2.416934
    37  S   11.921029   5.118378   5.118378   6.823051   4.002460
    38  S   10.069681   6.823051   5.118378   5.118378   6.823051
    39  S    8.440782   2.416934   2.416934   5.118378   5.118378
    40  S    5.525789   5.118378   2.416934   2.416934   7.532074
    41  S    3.190316   8.179869   5.118378   2.416934  10.374137
    42  S   11.051578   2.416934   4.002460   6.823051   2.416934
    43  S    8.440782   4.002460   2.416934   4.002460   5.118378
    44  S    6.380631   6.823051   4.002460   2.416934   8.179869
    45  S   13.906264   5.118378   6.823051   9.341653   2.416934
    46  S   11.502847   5.118378   5.118378   6.823051   4.002460
    47  S    9.570947   6.823051   5.118378   5.118378   6.823051
    48  Pt  10.374137   3.190316   3.190316   5.525789   3.190316
    49  N   10.627114   3.419592   3.774136   6.095148   4.527637
    50  O   11.752721   3.788446   4.698682   7.082311   3.990343
                   26         27         28         29         30
    26  Mo   0.000000
    27  Mo   8.440782   0.000000
    28  Mo   5.525789   3.190316   0.000000
    29  Mo   3.190316   6.380631   3.190316   0.000000
    30  S    5.118378   8.179869   6.823051   6.823051   0.000000
    31  S    4.002460  10.374137   8.179869   6.823051   3.190316
    32  S    5.118378  12.988125  10.374137   8.179869   6.380631
    33  S    5.118378   5.118378   4.002460   5.118378   3.190316
    34  S    2.416934   7.532074   5.118378   4.002460   3.190316
    35  S    2.416934  10.374137   7.532074   5.118378   5.525789
    36  S    6.823051   2.416934   2.416934   5.118378   6.380631
    37  S    4.002460   5.118378   2.416934   2.416934   5.525789
    38  S    2.416934   8.179869   5.118378   2.416934   6.380631
    39  S    5.118378   8.179869   6.823051   6.823051   3.129769
    40  S    4.002460  10.374137   8.179869   6.823051   4.469180
    41  S    5.118378  12.988125  10.374137   8.179869   7.106892
    42  S    5.118378   5.118378   4.002459   5.118378   4.469180
    43  S    2.416934   7.532074   5.118378   4.002460   4.469180
    44  S    2.416934  10.374137   7.532074   5.118378   6.350574
    45  S    6.823051   2.416934   2.416934   5.118378   7.106892
    46  S    4.002460   5.118378   2.416934   2.416934   6.350574
    47  S    2.416934   8.179869   5.118378   2.416934   7.106892
    48  Pt   3.190316   5.525789   3.190316   3.190316   4.002459
    49  N    5.059692   7.047100   5.644101   5.865695   2.421293
    50  O    5.601198   6.152202   5.021817   5.739681   3.442034
                   31         32         33         34         35
    31  S    0.000000
    32  S    3.190316   0.000000
    33  S    5.525789   8.440782   0.000000
    34  S    3.190316   5.525789   3.190316   0.000000
    35  S    3.190316   3.190316   6.380631   3.190316   0.000000
    36  S    8.440782  11.051578   3.190316   5.525789   8.440782
    37  S    6.380631   8.440782   3.190316   3.190316   5.525789
    38  S    5.525789   6.380631   5.525789   3.190316   3.190316
    39  S    4.469180   7.106892   4.469180   4.469180   6.350574
    40  S    3.129769   4.469180   6.350574   4.469180   4.469180
    41  S    4.469180   3.129769   9.002347   6.350574   4.469180
    42  S    6.350574   9.002347   3.129769   4.469180   7.106892
    43  S    4.469180   6.350574   4.469180   3.129769   4.469180
    44  S    4.469180   4.469180   7.106892   4.469180   3.129769
    45  S    9.002347  11.486201   4.469180   6.350574   9.002347
    46  S    7.106892   9.002347   4.469180   4.469180   6.350574
    47  S    6.350574   7.106892   6.350574   4.469180   4.469180
    48  Pt   5.118378   7.532074   2.416934   2.416934   5.118378
    49  N    4.311759   7.188610   2.119064   2.653475   5.472445
    50  O    5.454448   8.246856   1.800000   3.311388   6.248745
                   36         37         38         39         40
    36  S    0.000000
    37  S    3.190316   0.000000
    38  S    6.380631   3.190316   0.000000
    39  S    7.106892   6.350574   7.106892   0.000000
    40  S    9.002347   7.106892   6.350574   3.190316   0.000000
    41  S   11.486201   9.002347   7.106892   6.380631   3.190316
    42  S    4.469180   4.469180   6.350574   3.190316   5.525789
    43  S    6.350574   4.469180   4.469180   3.190316   3.190316
    44  S    9.002347   6.350574   4.469180   5.525789   3.190316
    45  S    3.129769   4.469180   7.106892   6.380631   8.440782
    46  S    4.469180   3.129769   4.469180   5.525789   6.380631
    47  S    7.106892   4.469180   3.129769   6.380631   5.525789
    48  Pt   4.002459   2.416934   4.002460   4.002460   5.118378
    49  N    4.845042   3.980806   5.345599   5.003742   6.145408
    50  O    3.871515   3.540594   5.517175   5.713437   7.109625
                   41         42         43         44         45
    41  S    0.000000
    42  S    8.440782   0.000000
    43  S    5.525789   3.190316   0.000000
    44  S    3.190316   6.380631   3.190316   0.000000
    45  S   11.051578   3.190316   5.525789   8.440782   0.000000
    46  S    8.440782   3.190316   3.190316   5.525789   3.190316
    47  S    6.380631   5.525789   3.190316   3.190316   6.380631
    48  Pt   7.532074   2.416934   2.416934   5.118378   4.002459
    49  N    8.417296   4.864689   5.120127   7.008739   6.530636
    50  O    9.423715   4.902629   5.635695   7.735799   5.982006
                   46         47         48         49         50
    46  S    0.000000
    47  S    3.190316   0.000000
    48  Pt   2.416934   4.002460   0.000000
    49  N    5.917904   6.910152   3.587740   0.000000
    50  O    5.773351   7.157862   3.670152   1.196800   0.000000
 Stoichiometry    Mo15NOPtS32(2)
 Framework group  C1[X(Mo15NOPtS32)]
 Deg. of freedom   144
 Full point group                 C1      NOp   1
 Largest Abelian subgroup         C1      NOp   1
 Largest concise Abelian subgroup C1      NOp   1
                         Standard orientation:                         
 ---------------------------------------------------------------------
 Center     Atomic      Atomic             Coordinates (Angstroms)
 Number     Number       Type             X           Y           Z
 ---------------------------------------------------------------------
      1         42           0       -0.749544    4.833933   -0.042248
      2         16           0        1.089606    4.829409    1.525895
      3         16           0        1.095144    4.828090   -1.603868
      4         42           0       -3.516914    3.246557   -0.046476
      5         42           0       -6.284283    1.659180   -0.050704
      6         42           0       -9.051652    0.071804   -0.054932
      7         16           0       -1.677764    3.242033    1.521667
      8         16           0       -4.445133    1.654657    1.517439
      9         16           0       -7.212502    0.067281    1.513211
     10         16           0       -1.672225    3.240713   -1.608096
     11         16           0       -4.439594    1.653337   -1.612324
     12         16           0       -7.206964    0.065961   -1.616552
     13         42           0        2.008845    3.231006   -0.036691
     14         42           0        4.767234    1.628080   -0.031134
     15         42           0        7.525623    0.025153   -0.025576
     16         16           0        3.847995    3.226483    1.531453
     17         16           0        6.606384    1.623556    1.537010
     18         16           0        9.364773    0.020630    1.542567
     19         16           0        3.853533    3.225163   -1.598311
     20         16           0        6.611922    1.622237   -1.592754
     21         16           0        9.370311    0.019310   -1.587196
     22         42           0       -0.758525    1.643630   -0.040919
     23         42           0        1.999864    0.040704   -0.035362
     24         42           0        4.758253   -1.562223   -0.029804
     25         42           0       -3.525894    0.056254   -0.045147
     26         42           0        1.990884   -3.149599   -0.034032
     27         42           0       -6.293263   -1.531122   -0.049375
     28         42           0       -3.534874   -3.134049   -0.043817
     29         42           0       -0.776485   -4.736975   -0.038260
     30         16           0        1.080625    1.639107    1.527225
     31         16           0        3.839014    0.036180    1.532782
     32         16           0        6.597403   -1.566746    1.538339
     33         16           0       -1.686744    0.051730    1.522997
     34         16           0        1.071645   -1.551196    1.528554
     35         16           0        3.830034   -3.154123    1.534111
     36         16           0       -4.454113   -1.535646    1.518769
     37         16           0       -1.695724   -3.138572    1.524326
     38         16           0        1.062665   -4.741499    1.529883
     39         16           0        1.086164    1.637787   -1.602539
     40         16           0        3.844553    0.034860   -1.596982
     41         16           0        6.602942   -1.568066   -1.591424
     42         16           0       -1.681205    0.050411   -1.606767
     43         16           0        1.077184   -1.552516   -1.601210
     44         16           0        3.835573   -3.155442   -1.595652
     45         16           0       -4.448575   -1.536966   -1.610995
     46         16           0       -1.690186   -3.139892   -1.605437
     47         16           0        1.068203   -4.742819   -1.599880
     48         78           0       -0.767505   -1.546673   -0.039590
     49          7           0       -0.201901    0.232840    3.023955
     50          8           0       -1.326194   -0.086831    3.281065
 ---------------------------------------------------------------------
 Rotational constants (GHZ):      0.0258880      0.0092892      0.0073987
 Standard basis: VSTO-6G (5D, 7F)
 There are   488 symmetry adapted cartesian basis functions of A   symmetry.
 There are   440 symmetry adapted basis functions of A   symmetry.
   440 basis functions,  2928 primitive gaussians,   488 cartesian basis functions
   152 alpha electrons      151 beta electrons
       nuclear repulsion energy      4434.2062604935 Hartrees.
 Integral buffers will be    262144 words long.
 Regular integral format.
 Two-electron integral symmetry is turned off.
 Do NDO integrals.
 One-electron integrals computed using PRISM.
 NBasis=   440 RedAO= F EigKep=  0.00D+00  NBF=   440
 NBsUse=   440 1.00D-04 EigRej=  0.00D+00 NBFU=   440
 Projected New-EHT guess.
 Enter ItEHT:  IZDO=4 IZDPar=0 Conv= 1.00D-06 N=  280
 It=   1                  EEH=  60.9264946138     EQH= 0.000000000000E+00 EH=  60.9264946138    
 Initial guess <Sx>= 0.0000 <Sy>= 0.0000 <Sz>= 0.5000 <S**2>= 0.7500 S= 0.5000
 Keep J ints in memory in canonical form, NReq=6411632.
 Gradient too large for Newton-Raphson or scaled steepest descent --
 use steepest descent instead.
     Note:  rotation exceeds Pi/2.
     Note:  rotation exceeds Pi/2.
     Note:  rotation exceeds Pi/2.
     Note:  rotation exceeds Pi/2.
     Note:  rotation exceeds Pi/2.
     Note:  rotation exceeds Pi/2.
     Note:  rotation exceeds Pi/2.
     Accept linear search using points  9 and 10.
 Gradient too large for Newton-Raphson or scaled steepest descent --
 use steepest descent instead.
     Accept linear search using points  1 and  2.
 Gradient too large for Newton-Raphson or scaled steepest descent --
 use steepest descent instead.
     Accept linear search using points  1 and  2.
 Gradient too large for Newton-Raphson or scaled steepest descent --
 use steepest descent instead.
 Gradient too large for Newton-Raphson or scaled steepest descent --
 use steepest descent instead.
     Accept linear search using points  3 and  4.
 Gradient too large for Newton-Raphson -- use scaled steepest descent instead.
 Gradient too large for Newton-Raphson -- use scaled steepest descent instead.
     Accept linear search using points  1 and  2.
 Gradient too large for Newton-Raphson -- use scaled steepest descent instead.
     Accept linear search using points  1 and  2.
 Gradient too large for Newton-Raphson -- use scaled steepest descent instead.
     Accept linear search using points  1 and  2.
 Gradient too large for Newton-Raphson -- use scaled steepest descent instead.
 Gradient too large for Newton-Raphson -- use scaled steepest descent instead.
 Gradient too large for Newton-Raphson -- use scaled steepest descent instead.
 Gradient too large for Newton-Raphson -- use scaled steepest descent instead.
     Accept linear search using points  2 and  3.
 Gradient too large for Newton-Raphson -- use scaled steepest descent instead.
     Minimum is close to point  2 DX=  1.81D-02 DF= -7.57D-03 DXR=  8.29D-02 DFR=  6.92D-03 which will be used.
 Gradient too large for Newton-Raphson -- use scaled steepest descent instead.
     Minimum is close to point  3 DX=  3.42D-02 DF= -3.12D-03 DXR=  5.39D-02 DFR=  2.50D-03 which will be used.
 Gradient too large for Newton-Raphson -- use scaled steepest descent instead.
     Accept linear search using points  1 and  2.
 Gradient too large for Newton-Raphson -- use scaled steepest descent instead.
     Accept linear search using points  2 and  3.
     Minimum is close to point  3 DX= -9.31D-02 DF= -1.75D-03 DXR=  8.41D-02 DFR=  1.45D-03 which will be used.
 Gradient too large for Newton-Raphson -- use scaled steepest descent instead.
 Gradient too large for Newton-Raphson -- use scaled steepest descent instead.
 Gradient too large for Newton-Raphson -- use scaled steepest descent instead.
     Minimum is close to point  3 DX= -9.47D-03 DF= -5.78D-04 DXR=  3.26D-02 DFR=  1.06D-03 which will be used.
 Gradient too large for Newton-Raphson -- use scaled steepest descent instead.
     Accept linear search using points  1 and  2.
 Gradient too large for Newton-Raphson -- use scaled steepest descent instead.
     Accept linear search using points  1 and  2.
 Gradient too large for Newton-Raphson -- use scaled steepest descent instead.
 Gradient too large for Newton-Raphson -- use scaled steepest descent instead.
 Gradient too large for Newton-Raphson -- use scaled steepest descent instead.
     Accept linear search using points  2 and  3.
     Minimum is close to point  3 DX= -5.75D-02 DF= -1.16D-04 DXR=  2.82D-02 DFR=  7.94D-04 which will be used.
 Gradient too large for Newton-Raphson -- use scaled steepest descent instead.
     Minimum is close to point  3 DX= -5.11D-03 DF= -2.06D-05 DXR=  1.29D-02 DFR=  1.68D-04 which will be used.
 Gradient too large for Newton-Raphson -- use scaled steepest descent instead.
     Accept linear search using points  2 and  3.
 Gradient too large for Newton-Raphson -- use scaled steepest descent instead.
     Accept linear search using points  1 and  2.
 Gradient too large for Newton-Raphson -- use scaled steepest descent instead.
     Minimum is close to point  3 DX=  1.10D-01 DF= -2.66D-04 DXR=  6.07D-02 DFR=  3.68D-03 which will be used.
 Gradient too large for Newton-Raphson -- use scaled steepest descent instead.
     Minimum is close to point  3 DX=  4.26D-02 DF= -5.49D-04 DXR=  9.62D-02 DFR=  9.34D-03 which will be used.
 Gradient too large for Newton-Raphson -- use scaled steepest descent instead.
     Minimum is close to point  4 DX=  2.14D-01 DF= -3.65D-04 DXR=  5.60D-02 DFR=  3.22D-03 which will be used.
 Gradient too large for Newton-Raphson -- use scaled steepest descent instead.
 Gradient too large for Newton-Raphson -- use scaled steepest descent instead.
     Minimum is close to point  3 DX=  2.31D-01 DF= -4.42D-04 DXR=  8.46D-02 DFR=  7.26D-03 which will be used.
 Gradient too large for Newton-Raphson -- use scaled steepest descent instead.
     Minimum is close to point  3 DX=  3.32D-02 DF= -2.75D-04 DXR=  7.67D-02 DFR=  5.92D-03 which will be used.
 Gradient too large for Newton-Raphson -- use scaled steepest descent instead.
     Minimum is close to point  4 DX= -5.74D-02 DF= -1.44D-05 DXR=  1.32D-02 DFR=  1.82D-04 which will be used.
 Gradient too large for Newton-Raphson -- use scaled steepest descent instead.
 Gradient too large for Newton-Raphson -- use scaled steepest descent instead.
 Gradient too large for Newton-Raphson -- use scaled steepest descent instead.
     Accept linear search using points  1 and  2.
 Gradient too large for Newton-Raphson -- use scaled steepest descent instead.
     Accept linear search using points  2 and  3.
 Gradient too large for Newton-Raphson -- use scaled steepest descent instead.
     Accept linear search using points  1 and  2.
 Gradient too large for Newton-Raphson -- use scaled steepest descent instead.
     Minimum is close to point  3 DX=  1.60D-01 DF= -1.52D-04 DXR=  9.10D-02 DFR=  8.38D-03 which will be used.
 Gradient too large for Newton-Raphson -- use scaled steepest descent instead.
     Accept linear search using points  1 and  2.
 Gradient too large for Newton-Raphson -- use scaled steepest descent instead.
     Accept linear search using points  2 and  3.
 Gradient too large for Newton-Raphson -- use scaled steepest descent instead.
     Accept linear search using points  1 and  2.
 Gradient too large for Newton-Raphson -- use scaled steepest descent instead.
 Gradient too large for Newton-Raphson -- use scaled steepest descent instead.
     Minimum is close to point  3 DX=  3.27D-02 DF= -7.37D-05 DXR=  7.56D-02 DFR=  5.74D-03 which will be used.
 Gradient too large for Newton-Raphson -- use scaled steepest descent instead.
 Gradient too large for Newton-Raphson -- use scaled steepest descent instead.
 Gradient too large for Newton-Raphson -- use scaled steepest descent instead.
     Accept linear search using points  3 and  4.
 Gradient too large for Newton-Raphson -- use scaled steepest descent instead.
 Gradient too large for Newton-Raphson -- use scaled steepest descent instead.
     Accept linear search using points  3 and  4.
 Gradient too large for Newton-Raphson -- use scaled steepest descent instead.
 Gradient too large for Newton-Raphson -- use scaled steepest descent instead.
     Accept linear search using points  2 and  3.
     Minimum is close to point  3 DX= -1.31D-02 DF= -2.07D-07 DXR=  4.88D-03 DFR=  3.67D-05 which will be used.
 Gradient too large for Newton-Raphson -- use scaled steepest descent instead.
     Minimum is close to point  3 DX= -3.69D-02 DF= -3.00D-05 DXR=  7.97D-02 DFR=  6.40D-03 which will be used.
 Gradient too large for Newton-Raphson -- use scaled steepest descent instead.
     Accept linear search using points  1 and  2.
 Gradient too large for Newton-Raphson -- use scaled steepest descent instead.
     Accept linear search using points  1 and  2.
 Gradient too large for Newton-Raphson -- use scaled steepest descent instead.
     Accept linear search using points  2 and  3.
 Gradient too large for Newton-Raphson -- use scaled steepest descent instead.
     Accept linear search using points  1 and  2.
 Gradient too large for Newton-Raphson -- use scaled steepest descent instead.
     Minimum is close to point  3 DX=  1.16D-01 DF= -1.34D-05 DXR=  7.19D-02 DFR=  5.20D-03 which will be used.
 Gradient too large for Newton-Raphson -- use scaled steepest descent instead.
     Accept linear search using points  1 and  2.
 Gradient too large for Newton-Raphson -- use scaled steepest descent instead.
     Accept linear search using points  2 and  3.
 Gradient too large for Newton-Raphson -- use scaled steepest descent instead.
     Accept linear search using points  1 and  2.
 Gradient too large for Newton-Raphson -- use scaled steepest descent instead.
 Gradient too large for Newton-Raphson -- use scaled steepest descent instead.
     Minimum is close to point  3 DX=  4.05D-02 DF= -2.05D-05 DXR=  9.19D-02 DFR=  8.52D-03 which will be used.
 Gradient too large for Newton-Raphson -- use scaled steepest descent instead.
     Minimum is close to point  5 DX= -3.16D-01 DF= -1.34D-05 DXR=  4.28D-02 DFR=  1.89D-03 which will be used.
 Gradient too large for Newton-Raphson -- use scaled steepest descent instead.
 Gradient too large for Newton-Raphson -- use scaled steepest descent instead.
 Gradient too large for Newton-Raphson -- use scaled steepest descent instead.
 Gradient too large for Newton-Raphson -- use scaled steepest descent instead.
     Minimum is close to point  4 DX=  9.18D-02 DF= -6.42D-07 DXR=  1.29D-02 DFR=  1.70D-04 which will be used.
 Gradient too large for Newton-Raphson -- use scaled steepest descent instead.
 Gradient too large for Newton-Raphson -- use scaled steepest descent instead.
     Accept linear search using points  2 and  3.
     Minimum is close to point  3 DX= -7.19D-02 DF= -1.52D-06 DXR=  2.16D-02 DFR=  8.92D-04 which will be used.
 Gradient too large for Newton-Raphson -- use scaled steepest descent instead.
 Gradient too large for Newton-Raphson -- use scaled steepest descent instead.
 Gradient too large for Newton-Raphson -- use scaled steepest descent instead.
     Accept linear search using points  1 and  2.
 Gradient too large for Newton-Raphson -- use scaled steepest descent instead.
 Gradient too large for Newton-Raphson -- use scaled steepest descent instead.
     Accept linear search using points  1 and  2.
 Gradient too large for Newton-Raphson -- use scaled steepest descent instead.
     Minimum is close to point  3 DX=  3.15D-02 DF= -2.79D-07 DXR=  1.72D-02 DFR=  2.97D-04 which will be used.
 Gradient too large for Newton-Raphson -- use scaled steepest descent instead.
     Accept linear search using points  1 and  2.
 Gradient too large for Newton-Raphson -- use scaled steepest descent instead.
     Minimum is close to point  3 DX=  3.83D-02 DF= -4.01D-07 DXR=  2.08D-02 DFR=  4.34D-04 which will be used.
 Gradient too large for Newton-Raphson -- use scaled steepest descent instead.
     Accept linear search using points  1 and  2.
 Gradient too large for Newton-Raphson -- use scaled steepest descent instead.
     Accept linear search using points  2 and  3.
     Minimum is close to point  3 DX= -5.84D-02 DF= -9.20D-07 DXR=  3.17D-02 DFR=  1.01D-03 which will be used.
 Gradient too large for Newton-Raphson -- use scaled steepest descent instead.
     Accept linear search using points  1 and  2.
 Gradient too large for Newton-Raphson -- use scaled steepest descent instead.
     Minimum is close to point  3 DX=  1.96D-01 DF= -9.26D-06 DXR=  9.81D-02 DFR=  9.72D-03 which will be used.
 Gradient too large for Newton-Raphson -- use scaled steepest descent instead.
     Minimum is close to point  3 DX= -2.06D-02 DF= -1.51D-06 DXR=  4.29D-02 DFR=  1.84D-03 which will be used.
 Gradient too large for Newton-Raphson -- use scaled steepest descent instead.
 Gradient too large for Newton-Raphson -- use scaled steepest descent instead.
     Accept linear search using points  1 and  2.
 Gradient too large for Newton-Raphson -- use scaled steepest descent instead.
 Gradient too large for Newton-Raphson -- use scaled steepest descent instead.
     Minimum is close to point  3 DX= -3.76D-02 DF= -5.99D-06 DXR=  8.14D-02 DFR=  6.66D-03 which will be used.
 Gradient too large for Newton-Raphson -- use scaled steepest descent instead.
 Gradient too large for Newton-Raphson -- use scaled steepest descent instead.
     Accept linear search using points  1 and  2.
 Gradient too large for Newton-Raphson -- use scaled steepest descent instead.
     Accept linear search using points  3 and  4.
     Minimum is close to point  4 DX= -1.61D-01 DF= -5.38D-06 DXR=  5.89D-02 DFR=  4.57D-03 which will be used.
 Gradient too large for Newton-Raphson -- use scaled steepest descent instead.
     Minimum is close to point  3 DX=  1.94D-02 DF= -3.01D-06 DXR=  4.62D-02 DFR=  2.14D-03 which will be used.
 Gradient too large for Newton-Raphson -- use scaled steepest descent instead.
     Minimum is close to point  5 DX= -6.22D-01 DF= -2.07D-05 DXR=  7.79D-02 DFR=  6.31D-03 which will be used.
 Gradient too large for Newton-Raphson -- use scaled steepest descent instead.
 Gradient too large for Newton-Raphson -- use scaled steepest descent instead.
 Gradient too large for Newton-Raphson -- use scaled steepest descent instead.
 Gradient too large for Newton-Raphson -- use scaled steepest descent instead.
     Minimum is close to point  4 DX=  7.75D-01 DF= -2.90D-05 DXR=  9.48D-02 DFR=  9.33D-03 which will be used.
 Gradient too large for Newton-Raphson -- use scaled steepest descent instead.
 Gradient too large for Newton-Raphson -- use scaled steepest descent instead.
 Gradient too large for Newton-Raphson -- use scaled steepest descent instead.
 Gradient too large for Newton-Raphson -- use scaled steepest descent instead.
 Gradient too large for Newton-Raphson -- use scaled steepest descent instead.
     Accept linear search using points  1 and  2.
 Gradient too large for Newton-Raphson -- use scaled steepest descent instead.
     Accept linear search using points  2 and  3.
 Gradient too large for Newton-Raphson -- use scaled steepest descent instead.
     Accept linear search using points  1 and  2.
 Gradient too large for Newton-Raphson -- use scaled steepest descent instead.
     Accept linear search using points  2 and  3.
 Gradient too large for Newton-Raphson -- use scaled steepest descent instead.
     Accept linear search using points  1 and  2.
 Gradient too large for Newton-Raphson -- use scaled steepest descent instead.
     Accept linear search using points  2 and  3.
 Gradient too large for Newton-Raphson -- use scaled steepest descent instead.
     Accept linear search using points  1 and  2.
 Gradient too large for Newton-Raphson -- use scaled steepest descent instead.
     Accept linear search using points  2 and  3.
     Minimum is close to point  3 DX= -1.36D-01 DF= -4.00D-06 DXR=  8.70D-02 DFR=  5.79D-03 which will be used.
 Gradient too large for Newton-Raphson -- use scaled steepest descent instead.
     Accept linear search using points  1 and  2.
 Gradient too large for Newton-Raphson -- use scaled steepest descent instead.
     Minimum is close to point  3 DX=  1.79D-01 DF= -7.10D-06 DXR=  9.53D-02 DFR=  9.18D-03 which will be used.
 Gradient too large for Newton-Raphson -- use scaled steepest descent instead.
     Accept linear search using points  1 and  2.
 Gradient too large for Newton-Raphson -- use scaled steepest descent instead.
     Accept linear search using points  2 and  3.
 Gradient too large for Newton-Raphson -- use scaled steepest descent instead.
     Accept linear search using points  1 and  2.
 Gradient too large for Newton-Raphson -- use scaled steepest descent instead.
     Accept linear search using points  2 and  3.
     Minimum is close to point  3 DX= -8.52D-02 DF= -1.56D-06 DXR=  4.97D-02 DFR=  2.11D-03 which will be used.
 Gradient too large for Newton-Raphson -- use scaled steepest descent instead.
     Accept linear search using points  1 and  2.
 Gradient too large for Newton-Raphson -- use scaled steepest descent instead.
     Minimum is close to point  3 DX=  1.37D-01 DF= -4.01D-06 DXR=  7.07D-02 DFR=  5.02D-03 which will be used.
 Gradient too large for Newton-Raphson -- use scaled steepest descent instead.
     Accept linear search using points  1 and  2.
 Gradient too large for Newton-Raphson -- use scaled steepest descent instead.
     Accept linear search using points  2 and  3.
     Minimum is close to point  3 DX= -1.46D-01 DF= -4.63D-06 DXR=  8.35D-02 DFR=  6.28D-03 which will be used.
 Gradient too large for Newton-Raphson -- use scaled steepest descent instead.
     Accept linear search using points  1 and  2.
 Gradient too large for Newton-Raphson -- use scaled steepest descent instead.
 Gradient too large for Newton-Raphson -- use scaled steepest descent instead.
 Gradient too large for Newton-Raphson -- use scaled steepest descent instead.
     Minimum is close to point  3 DX=  1.52D-01 DF= -4.19D-06 DXR=  7.42D-02 DFR=  5.54D-03 which will be used.
 Gradient too large for Newton-Raphson -- use scaled steepest descent instead.
     Minimum is close to point  3 DX= -3.10D-02 DF= -2.87D-06 DXR=  6.62D-02 DFR=  4.40D-03 which will be used.
 Gradient too large for Newton-Raphson -- use scaled steepest descent instead.
 Gradient too large for Newton-Raphson -- use scaled steepest descent instead.
     Accept linear search using points  1 and  2.
 Gradient too large for Newton-Raphson -- use scaled steepest descent instead.
     Accept linear search using points  3 and  4.
     Minimum is close to point  4 DX= -4.67D-02 DF= -3.90D-07 DXR=  1.58D-02 DFR=  4.36D-04 which will be used.
 Gradient too large for Newton-Raphson -- use scaled steepest descent instead.
     Minimum is close to point  3 DX=  1.97D-02 DF= -1.99D-06 DXR=  4.70D-02 DFR=  2.22D-03 which will be used.
 Gradient too large for Newton-Raphson -- use scaled steepest descent instead.
 Gradient too large for Newton-Raphson -- use scaled steepest descent instead.
 LinEq1:  Iter=  0 NonCon=     1 RMS=1.74D-04 Max=1.60D-02 NDo=     1
 AX will form     1 AO Fock derivatives at one time.
 LinEq1:  Iter=  1 NonCon=     1 RMS=7.11D-05 Max=1.70D-03 NDo=     1
 LinEq1:  Iter=  2 NonCon=     1 RMS=6.83D-05 Max=4.64D-03 NDo=     1
 LinEq1:  Iter=  3 NonCon=     1 RMS=2.97D-05 Max=1.40D-03 NDo=     1
 LinEq1:  Iter=  4 NonCon=     1 RMS=3.01D-05 Max=1.17D-03 NDo=     1
 LinEq1:  Iter=  5 NonCon=     1 RMS=2.03D-05 Max=5.81D-04 NDo=     1
 LinEq1:  Iter=  6 NonCon=     1 RMS=1.84D-05 Max=5.62D-04 NDo=     1
 LinEq1:  Iter=  7 NonCon=     1 RMS=1.56D-05 Max=4.14D-04 NDo=     1
 LinEq1:  Iter=  8 NonCon=     1 RMS=1.38D-05 Max=3.74D-04 NDo=     1
 LinEq1:  Iter=  9 NonCon=     1 RMS=1.17D-05 Max=4.28D-04 NDo=     1
 LinEq1:  Iter= 10 NonCon=     1 RMS=1.03D-05 Max=2.80D-04 NDo=     1
 LinEq1:  Iter= 11 NonCon=     1 RMS=7.41D-06 Max=1.96D-04 NDo=     1
 LinEq1:  Iter= 12 NonCon=     1 RMS=6.80D-06 Max=2.48D-04 NDo=     1
 LinEq1:  Iter= 13 NonCon=     1 RMS=5.41D-06 Max=1.58D-04 NDo=     1
 LinEq1:  Iter= 14 NonCon=     1 RMS=4.50D-06 Max=1.70D-04 NDo=     1
 LinEq1:  Iter= 15 NonCon=     1 RMS=4.16D-06 Max=1.17D-04 NDo=     1
 LinEq1:  Iter= 16 NonCon=     1 RMS=3.15D-06 Max=8.15D-05 NDo=     1
 LinEq1:  Iter= 17 NonCon=     1 RMS=2.79D-06 Max=9.69D-05 NDo=     1
 LinEq1:  Iter= 18 NonCon=     1 RMS=2.23D-06 Max=4.90D-05 NDo=     1
 LinEq1:  Iter= 19 NonCon=     1 RMS=1.76D-06 Max=3.43D-05 NDo=     1
 LinEq1:  Iter= 20 NonCon=     1 RMS=1.89D-06 Max=4.33D-05 NDo=     1
 LinEq1:  Iter= 21 NonCon=     1 RMS=1.57D-06 Max=3.07D-05 NDo=     1
 LinEq1:  Iter= 22 NonCon=     1 RMS=1.33D-06 Max=3.29D-05 NDo=     1
 LinEq1:  Iter= 23 NonCon=     1 RMS=8.22D-07 Max=2.44D-05 NDo=     1
 LinEq1:  Iter= 24 NonCon=     1 RMS=5.60D-07 Max=1.25D-05 NDo=     1
 LinEq1:  Iter= 25 NonCon=     1 RMS=3.41D-07 Max=1.28D-05 NDo=     1
 LinEq1:  Iter= 26 NonCon=     1 RMS=2.34D-07 Max=4.50D-06 NDo=     1
 LinEq1:  Iter= 27 NonCon=     1 RMS=1.45D-07 Max=3.89D-06 NDo=     1
 LinEq1:  Iter= 28 NonCon=     1 RMS=7.94D-08 Max=1.73D-06 NDo=     1
 LinEq1:  Iter= 29 NonCon=     1 RMS=5.24D-08 Max=1.83D-06 NDo=     1
 LinEq1:  Iter= 30 NonCon=     1 RMS=3.57D-08 Max=7.38D-07 NDo=     1
 LinEq1:  Iter= 31 NonCon=     1 RMS=2.32D-08 Max=4.24D-07 NDo=     1
 LinEq1:  Iter= 32 NonCon=     0 RMS=1.52D-08 Max=2.63D-07 NDo=     1
 Linear equations converged to 2.957D-08 2.957D-07 after    32 iterations.
     Minimum is close to point  5 DX= -5.42D-03 DF= -5.44D-05 DXR=  8.56D-02 DFR=  1.74D-02 which will be used.
 Gradient too large for Newton-Raphson -- use scaled steepest descent instead.
     Accept linear search using points  1 and  2.
 Gradient too large for Newton-Raphson -- use scaled steepest descent instead.
     Accept linear search using points  1 and  2.
 LinEq1:  Iter=  0 NonCon=     1 RMS=1.26D-04 Max=8.95D-03 NDo=     1
 LinEq1:  Iter=  1 NonCon=     1 RMS=1.63D-04 Max=7.14D-03 NDo=     1
 LinEq1:  Iter=  2 NonCon=     1 RMS=7.45D-05 Max=3.04D-03 NDo=     1
 LinEq1:  Iter=  3 NonCon=     1 RMS=6.36D-05 Max=2.34D-03 NDo=     1
 LinEq1:  Iter=  4 NonCon=     1 RMS=6.20D-05 Max=2.11D-03 NDo=     1
 LinEq1:  Iter=  5 NonCon=     1 RMS=4.84D-05 Max=1.08D-03 NDo=     1
 LinEq1:  Iter=  6 NonCon=     1 RMS=4.61D-05 Max=1.67D-03 NDo=     1
 LinEq1:  Iter=  7 NonCon=     1 RMS=3.60D-05 Max=9.17D-04 NDo=     1
 LinEq1:  Iter=  8 NonCon=     1 RMS=3.30D-05 Max=8.07D-04 NDo=     1
 LinEq1:  Iter=  9 NonCon=     1 RMS=3.23D-05 Max=7.06D-04 NDo=     1
 LinEq1:  Iter= 10 NonCon=     1 RMS=2.32D-05 Max=5.58D-04 NDo=     1
 LinEq1:  Iter= 11 NonCon=     1 RMS=2.05D-05 Max=7.17D-04 NDo=     1
 LinEq1:  Iter= 12 NonCon=     1 RMS=1.52D-05 Max=3.97D-04 NDo=     1
 LinEq1:  Iter= 13 NonCon=     1 RMS=1.21D-05 Max=3.77D-04 NDo=     1
 LinEq1:  Iter= 14 NonCon=     1 RMS=7.89D-06 Max=2.39D-04 NDo=     1
 LinEq1:  Iter= 15 NonCon=     1 RMS=7.37D-06 Max=2.39D-04 NDo=     1
 LinEq1:  Iter= 16 NonCon=     1 RMS=6.18D-06 Max=1.52D-04 NDo=     1
 LinEq1:  Iter= 17 NonCon=     1 RMS=5.24D-06 Max=1.51D-04 NDo=     1
 LinEq1:  Iter= 18 NonCon=     1 RMS=4.42D-06 Max=1.29D-04 NDo=     1
 LinEq1:  Iter= 19 NonCon=     1 RMS=3.96D-06 Max=7.66D-05 NDo=     1
 LinEq1:  Iter= 20 NonCon=     1 RMS=2.99D-06 Max=8.61D-05 NDo=     1
 LinEq1:  Iter= 21 NonCon=     1 RMS=1.85D-06 Max=5.17D-05 NDo=     1
 LinEq1:  Iter= 22 NonCon=     1 RMS=1.24D-06 Max=3.61D-05 NDo=     1
 LinEq1:  Iter= 23 NonCon=     1 RMS=9.36D-07 Max=2.95D-05 NDo=     1
 LinEq1:  Iter= 24 NonCon=     1 RMS=5.58D-07 Max=1.40D-05 NDo=     1
 LinEq1:  Iter= 25 NonCon=     1 RMS=3.48D-07 Max=1.10D-05 NDo=     1
 LinEq1:  Iter= 26 NonCon=     1 RMS=2.81D-07 Max=6.57D-06 NDo=     1
 LinEq1:  Iter= 27 NonCon=     1 RMS=1.79D-07 Max=5.95D-06 NDo=     1
 LinEq1:  Iter= 28 NonCon=     1 RMS=1.19D-07 Max=3.39D-06 NDo=     1
 LinEq1:  Iter= 29 NonCon=     1 RMS=7.24D-08 Max=2.65D-06 NDo=     1
 LinEq1:  Iter= 30 NonCon=     1 RMS=3.61D-08 Max=8.29D-07 NDo=     1
 LinEq1:  Iter= 31 NonCon=     1 RMS=2.80D-08 Max=6.36D-07 NDo=     1
 LinEq1:  Iter= 32 NonCon=     1 RMS=1.49D-08 Max=3.64D-07 NDo=     1
 LinEq1:  Iter= 33 NonCon=     0 RMS=6.88D-09 Max=1.92D-07 NDo=     1
 Linear equations converged to 2.957D-08 2.957D-07 after    33 iterations.
 Incorrect curvature in search direction -- initial direction reversed.
 Gradient too large for Newton-Raphson -- use scaled steepest descent instead.
     Accept linear search using points  2 and  3.
 Gradient too large for Newton-Raphson -- use scaled steepest descent instead.
     Accept linear search using points  1 and  2.
 LinEq1:  Iter=  0 NonCon=     1 RMS=1.25D-04 Max=9.54D-03 NDo=     1
 LinEq1:  Iter=  1 NonCon=     1 RMS=1.07D-04 Max=3.32D-03 NDo=     1
 LinEq1:  Iter=  2 NonCon=     1 RMS=4.70D-05 Max=2.60D-03 NDo=     1
 LinEq1:  Iter=  3 NonCon=     1 RMS=3.72D-05 Max=1.31D-03 NDo=     1
 LinEq1:  Iter=  4 NonCon=     1 RMS=2.40D-05 Max=6.19D-04 NDo=     1
 LinEq1:  Iter=  5 NonCon=     1 RMS=2.42D-05 Max=9.53D-04 NDo=     1
 LinEq1:  Iter=  6 NonCon=     1 RMS=2.42D-05 Max=7.43D-04 NDo=     1
 LinEq1:  Iter=  7 NonCon=     1 RMS=1.59D-05 Max=3.29D-04 NDo=     1
 LinEq1:  Iter=  8 NonCon=     1 RMS=1.43D-05 Max=4.15D-04 NDo=     1
 LinEq1:  Iter=  9 NonCon=     1 RMS=1.56D-05 Max=4.59D-04 NDo=     1
 LinEq1:  Iter= 10 NonCon=     1 RMS=9.26D-06 Max=2.54D-04 NDo=     1
 LinEq1:  Iter= 11 NonCon=     1 RMS=7.34D-06 Max=1.88D-04 NDo=     1
 LinEq1:  Iter= 12 NonCon=     1 RMS=5.52D-06 Max=1.99D-04 NDo=     1
 LinEq1:  Iter= 13 NonCon=     1 RMS=4.50D-06 Max=1.27D-04 NDo=     1
 LinEq1:  Iter= 14 NonCon=     1 RMS=4.21D-06 Max=1.55D-04 NDo=     1
 LinEq1:  Iter= 15 NonCon=     1 RMS=4.05D-06 Max=1.44D-04 NDo=     1
 LinEq1:  Iter= 16 NonCon=     1 RMS=2.78D-06 Max=7.69D-05 NDo=     1
 LinEq1:  Iter= 17 NonCon=     1 RMS=2.26D-06 Max=7.00D-05 NDo=     1
 LinEq1:  Iter= 18 NonCon=     1 RMS=1.79D-06 Max=5.71D-05 NDo=     1
 LinEq1:  Iter= 19 NonCon=     1 RMS=1.42D-06 Max=5.90D-05 NDo=     1
 LinEq1:  Iter= 20 NonCon=     1 RMS=1.09D-06 Max=3.56D-05 NDo=     1
 LinEq1:  Iter= 21 NonCon=     1 RMS=8.03D-07 Max=2.73D-05 NDo=     1
 LinEq1:  Iter= 22 NonCon=     1 RMS=5.51D-07 Max=1.64D-05 NDo=     1
 LinEq1:  Iter= 23 NonCon=     1 RMS=4.98D-07 Max=1.16D-05 NDo=     1
 LinEq1:  Iter= 24 NonCon=     1 RMS=3.27D-07 Max=9.28D-06 NDo=     1
 LinEq1:  Iter= 25 NonCon=     1 RMS=2.25D-07 Max=6.88D-06 NDo=     1
 LinEq1:  Iter= 26 NonCon=     1 RMS=1.64D-07 Max=4.29D-06 NDo=     1
 LinEq1:  Iter= 27 NonCon=     1 RMS=9.05D-08 Max=2.83D-06 NDo=     1
 LinEq1:  Iter= 28 NonCon=     1 RMS=6.65D-08 Max=2.08D-06 NDo=     1
 LinEq1:  Iter= 29 NonCon=     1 RMS=3.29D-08 Max=7.79D-07 NDo=     1
 LinEq1:  Iter= 30 NonCon=     1 RMS=1.93D-08 Max=5.05D-07 NDo=     1
 LinEq1:  Iter= 31 NonCon=     1 RMS=1.38D-08 Max=3.13D-07 NDo=     1
 LinEq1:  Iter= 32 NonCon=     0 RMS=7.31D-09 Max=1.41D-07 NDo=     1
 Linear equations converged to 2.957D-08 2.957D-07 after    32 iterations.
 Incorrect curvature in search direction -- initial direction reversed.
 Gradient too large for Newton-Raphson -- use scaled steepest descent instead.
     Accept linear search using points  3 and  4.
 Gradient too large for Newton-Raphson -- use scaled steepest descent instead.
     Minimum is close to point  3 DX=  2.53D-02 DF= -5.88D-06 DXR=  7.78D-02 DFR=  6.09D-03 which will be used.
 Gradient too large for Newton-Raphson -- use scaled steepest descent instead.
     Accept linear search using points  4 and  5.
 Gradient too large for Newton-Raphson -- use scaled steepest descent instead.
 Gradient too large for Newton-Raphson -- use scaled steepest descent instead.
     Accept linear search using points  1 and  2.
 Gradient too large for Newton-Raphson -- use scaled steepest descent instead.
     Accept linear search using points  1 and  2.
 LinEq1:  Iter=  0 NonCon=     1 RMS=1.24D-04 Max=7.41D-03 NDo=     1
 LinEq1:  Iter=  1 NonCon=     1 RMS=1.18D-04 Max=3.34D-03 NDo=     1
 LinEq1:  Iter=  2 NonCon=     1 RMS=4.55D-05 Max=9.14D-04 NDo=     1
 LinEq1:  Iter=  3 NonCon=     1 RMS=2.63D-05 Max=1.39D-03 NDo=     1
 LinEq1:  Iter=  4 NonCon=     1 RMS=2.08D-05 Max=8.85D-04 NDo=     1
 LinEq1:  Iter=  5 NonCon=     1 RMS=1.16D-05 Max=3.78D-04 NDo=     1
 LinEq1:  Iter=  6 NonCon=     1 RMS=1.09D-05 Max=4.06D-04 NDo=     1
 LinEq1:  Iter=  7 NonCon=     1 RMS=1.13D-05 Max=4.12D-04 NDo=     1
 LinEq1:  Iter=  8 NonCon=     1 RMS=7.08D-06 Max=2.69D-04 NDo=     1
 LinEq1:  Iter=  9 NonCon=     1 RMS=6.62D-06 Max=2.17D-04 NDo=     1
 LinEq1:  Iter= 10 NonCon=     1 RMS=5.71D-06 Max=1.47D-04 NDo=     1
 LinEq1:  Iter= 11 NonCon=     1 RMS=5.23D-06 Max=1.59D-04 NDo=     1
 LinEq1:  Iter= 12 NonCon=     1 RMS=4.08D-06 Max=9.22D-05 NDo=     1
 LinEq1:  Iter= 13 NonCon=     1 RMS=2.84D-06 Max=9.07D-05 NDo=     1
 LinEq1:  Iter= 14 NonCon=     1 RMS=2.40D-06 Max=9.69D-05 NDo=     1
 LinEq1:  Iter= 15 NonCon=     1 RMS=1.96D-06 Max=6.44D-05 NDo=     1
 LinEq1:  Iter= 16 NonCon=     1 RMS=1.47D-06 Max=4.81D-05 NDo=     1
 LinEq1:  Iter= 17 NonCon=     1 RMS=1.12D-06 Max=4.19D-05 NDo=     1
 LinEq1:  Iter= 18 NonCon=     1 RMS=8.74D-07 Max=1.90D-05 NDo=     1
 LinEq1:  Iter= 19 NonCon=     1 RMS=7.68D-07 Max=2.16D-05 NDo=     1
 LinEq1:  Iter= 20 NonCon=     1 RMS=6.23D-07 Max=1.46D-05 NDo=     1
 LinEq1:  Iter= 21 NonCon=     1 RMS=5.06D-07 Max=2.25D-05 NDo=     1
 LinEq1:  Iter= 22 NonCon=     1 RMS=3.02D-07 Max=8.21D-06 NDo=     1
 LinEq1:  Iter= 23 NonCon=     1 RMS=2.13D-07 Max=5.91D-06 NDo=     1
 LinEq1:  Iter= 24 NonCon=     1 RMS=1.55D-07 Max=3.24D-06 NDo=     1
 LinEq1:  Iter= 25 NonCon=     1 RMS=1.16D-07 Max=2.53D-06 NDo=     1
 LinEq1:  Iter= 26 NonCon=     1 RMS=8.23D-08 Max=2.63D-06 NDo=     1
 LinEq1:  Iter= 27 NonCon=     1 RMS=6.36D-08 Max=1.70D-06 NDo=     1
 LinEq1:  Iter= 28 NonCon=     1 RMS=4.00D-08 Max=9.14D-07 NDo=     1
 LinEq1:  Iter= 29 NonCon=     1 RMS=2.12D-08 Max=6.28D-07 NDo=     1
 LinEq1:  Iter= 30 NonCon=     0 RMS=1.42D-08 Max=2.80D-07 NDo=     1
 Linear equations converged to 2.957D-08 2.957D-07 after    30 iterations.
 Gradient too large for Newton-Raphson -- use scaled steepest descent instead.
 Gradient too large for Newton-Raphson -- use scaled steepest descent instead.
     Accept linear search using points  1 and  2.
 LinEq1:  Iter=  0 NonCon=     1 RMS=9.85D-05 Max=7.40D-03 NDo=     1
 LinEq1:  Iter=  1 NonCon=     1 RMS=4.89D-05 Max=1.42D-03 NDo=     1
 LinEq1:  Iter=  2 NonCon=     1 RMS=3.12D-05 Max=1.15D-03 NDo=     1
 LinEq1:  Iter=  3 NonCon=     1 RMS=2.36D-05 Max=5.74D-04 NDo=     1
 LinEq1:  Iter=  4 NonCon=     1 RMS=1.37D-05 Max=6.08D-04 NDo=     1
 LinEq1:  Iter=  5 NonCon=     1 RMS=1.17D-05 Max=3.15D-04 NDo=     1
 LinEq1:  Iter=  6 NonCon=     1 RMS=8.22D-06 Max=2.37D-04 NDo=     1
 LinEq1:  Iter=  7 NonCon=     1 RMS=8.65D-06 Max=2.43D-04 NDo=     1
 LinEq1:  Iter=  8 NonCon=     1 RMS=6.94D-06 Max=2.11D-04 NDo=     1
 LinEq1:  Iter=  9 NonCon=     1 RMS=6.18D-06 Max=3.50D-04 NDo=     1
 LinEq1:  Iter= 10 NonCon=     1 RMS=5.04D-06 Max=1.47D-04 NDo=     1
 LinEq1:  Iter= 11 NonCon=     1 RMS=4.06D-06 Max=1.20D-04 NDo=     1
 LinEq1:  Iter= 12 NonCon=     1 RMS=3.63D-06 Max=1.81D-04 NDo=     1
 LinEq1:  Iter= 13 NonCon=     1 RMS=3.03D-06 Max=6.16D-05 NDo=     1
 LinEq1:  Iter= 14 NonCon=     1 RMS=2.32D-06 Max=6.64D-05 NDo=     1
 LinEq1:  Iter= 15 NonCon=     1 RMS=2.15D-06 Max=5.89D-05 NDo=     1
 LinEq1:  Iter= 16 NonCon=     1 RMS=1.41D-06 Max=3.85D-05 NDo=     1
 LinEq1:  Iter= 17 NonCon=     1 RMS=1.09D-06 Max=3.06D-05 NDo=     1
 LinEq1:  Iter= 18 NonCon=     1 RMS=7.63D-07 Max=1.55D-05 NDo=     1
 LinEq1:  Iter= 19 NonCon=     1 RMS=6.30D-07 Max=1.54D-05 NDo=     1
 LinEq1:  Iter= 20 NonCon=     1 RMS=4.05D-07 Max=1.05D-05 NDo=     1
 LinEq1:  Iter= 21 NonCon=     1 RMS=3.61D-07 Max=6.19D-06 NDo=     1
 LinEq1:  Iter= 22 NonCon=     1 RMS=3.24D-07 Max=7.52D-06 NDo=     1
 LinEq1:  Iter= 23 NonCon=     1 RMS=2.16D-07 Max=3.98D-06 NDo=     1
 LinEq1:  Iter= 24 NonCon=     1 RMS=1.25D-07 Max=2.64D-06 NDo=     1
 LinEq1:  Iter= 25 NonCon=     1 RMS=7.24D-08 Max=1.38D-06 NDo=     1
 LinEq1:  Iter= 26 NonCon=     1 RMS=4.54D-08 Max=8.28D-07 NDo=     1
 LinEq1:  Iter= 27 NonCon=     1 RMS=2.81D-08 Max=5.64D-07 NDo=     1
 LinEq1:  Iter= 28 NonCon=     1 RMS=1.75D-08 Max=3.94D-07 NDo=     1
 LinEq1:  Iter= 29 NonCon=     0 RMS=9.38D-09 Max=2.17D-07 NDo=     1
 Linear equations converged to 2.957D-08 2.957D-07 after    29 iterations.
 Incorrect curvature in search direction -- initial direction reversed.
 LinEq1:  Iter=  0 NonCon=     1 RMS=1.03D-04 Max=8.19D-03 NDo=     1
 LinEq1:  Iter=  1 NonCon=     1 RMS=5.03D-05 Max=1.41D-03 NDo=     1
 LinEq1:  Iter=  2 NonCon=     1 RMS=3.30D-05 Max=1.22D-03 NDo=     1
 LinEq1:  Iter=  3 NonCon=     1 RMS=2.48D-05 Max=5.30D-04 NDo=     1
 LinEq1:  Iter=  4 NonCon=     1 RMS=1.41D-05 Max=6.62D-04 NDo=     1
 LinEq1:  Iter=  5 NonCon=     1 RMS=1.14D-05 Max=3.29D-04 NDo=     1
 LinEq1:  Iter=  6 NonCon=     1 RMS=8.46D-06 Max=2.45D-04 NDo=     1
 LinEq1:  Iter=  7 NonCon=     1 RMS=8.59D-06 Max=2.30D-04 NDo=     1
 LinEq1:  Iter=  8 NonCon=     1 RMS=7.07D-06 Max=2.08D-04 NDo=     1
 LinEq1:  Iter=  9 NonCon=     1 RMS=6.46D-06 Max=3.25D-04 NDo=     1
 LinEq1:  Iter= 10 NonCon=     1 RMS=5.28D-06 Max=1.64D-04 NDo=     1
 LinEq1:  Iter= 11 NonCon=     1 RMS=4.04D-06 Max=1.09D-04 NDo=     1
 LinEq1:  Iter= 12 NonCon=     1 RMS=3.59D-06 Max=1.61D-04 NDo=     1
 LinEq1:  Iter= 13 NonCon=     1 RMS=3.14D-06 Max=5.94D-05 NDo=     1
 LinEq1:  Iter= 14 NonCon=     1 RMS=2.28D-06 Max=7.10D-05 NDo=     1
 LinEq1:  Iter= 15 NonCon=     1 RMS=2.13D-06 Max=5.78D-05 NDo=     1
 LinEq1:  Iter= 16 NonCon=     1 RMS=1.49D-06 Max=4.19D-05 NDo=     1
 LinEq1:  Iter= 17 NonCon=     1 RMS=1.18D-06 Max=3.12D-05 NDo=     1
 LinEq1:  Iter= 18 NonCon=     1 RMS=7.90D-07 Max=2.24D-05 NDo=     1
 LinEq1:  Iter= 19 NonCon=     1 RMS=7.46D-07 Max=2.33D-05 NDo=     1
 LinEq1:  Iter= 20 NonCon=     1 RMS=5.33D-07 Max=1.30D-05 NDo=     1
 LinEq1:  Iter= 21 NonCon=     1 RMS=4.66D-07 Max=1.05D-05 NDo=     1
 LinEq1:  Iter= 22 NonCon=     1 RMS=3.82D-07 Max=8.00D-06 NDo=     1
 LinEq1:  Iter= 23 NonCon=     1 RMS=2.34D-07 Max=4.81D-06 NDo=     1
 LinEq1:  Iter= 24 NonCon=     1 RMS=1.32D-07 Max=2.49D-06 NDo=     1
 LinEq1:  Iter= 25 NonCon=     1 RMS=9.42D-08 Max=1.90D-06 NDo=     1
 LinEq1:  Iter= 26 NonCon=     1 RMS=5.68D-08 Max=9.54D-07 NDo=     1
 LinEq1:  Iter= 27 NonCon=     1 RMS=3.84D-08 Max=7.40D-07 NDo=     1
 LinEq1:  Iter= 28 NonCon=     1 RMS=2.33D-08 Max=4.59D-07 NDo=     1
 LinEq1:  Iter= 29 NonCon=     1 RMS=1.35D-08 Max=3.34D-07 NDo=     1
 LinEq1:  Iter= 30 NonCon=     0 RMS=1.04D-08 Max=2.33D-07 NDo=     1
 Linear equations converged to 2.957D-08 2.957D-07 after    30 iterations.
 Incorrect curvature in search direction -- initial direction reversed.
     Minimum is close to point  3 DX=  2.81D-03 DF= -1.83D-06 DXR=  8.88D-02 DFR=  7.95D-03 which will be used.
 LinEq1:  Iter=  0 NonCon=     1 RMS=1.05D-04 Max=8.93D-03 NDo=     1
 LinEq1:  Iter=  1 NonCon=     1 RMS=5.06D-05 Max=1.37D-03 NDo=     1
 LinEq1:  Iter=  2 NonCon=     1 RMS=3.43D-05 Max=1.24D-03 NDo=     1
 LinEq1:  Iter=  3 NonCon=     1 RMS=2.58D-05 Max=4.82D-04 NDo=     1
 LinEq1:  Iter=  4 NonCon=     1 RMS=1.46D-05 Max=7.22D-04 NDo=     1
 LinEq1:  Iter=  5 NonCon=     1 RMS=1.16D-05 Max=3.37D-04 NDo=     1
 LinEq1:  Iter=  6 NonCon=     1 RMS=8.70D-06 Max=2.54D-04 NDo=     1
 LinEq1:  Iter=  7 NonCon=     1 RMS=8.46D-06 Max=2.72D-04 NDo=     1
 LinEq1:  Iter=  8 NonCon=     1 RMS=7.05D-06 Max=1.61D-04 NDo=     1
 LinEq1:  Iter=  9 NonCon=     1 RMS=6.66D-06 Max=3.02D-04 NDo=     1
 LinEq1:  Iter= 10 NonCon=     1 RMS=5.52D-06 Max=1.75D-04 NDo=     1
 LinEq1:  Iter= 11 NonCon=     1 RMS=4.02D-06 Max=9.46D-05 NDo=     1
 LinEq1:  Iter= 12 NonCon=     1 RMS=3.49D-06 Max=1.40D-04 NDo=     1
 LinEq1:  Iter= 13 NonCon=     1 RMS=3.07D-06 Max=6.05D-05 NDo=     1
 LinEq1:  Iter= 14 NonCon=     1 RMS=2.13D-06 Max=6.85D-05 NDo=     1
 LinEq1:  Iter= 15 NonCon=     1 RMS=1.98D-06 Max=5.41D-05 NDo=     1
 LinEq1:  Iter= 16 NonCon=     1 RMS=1.50D-06 Max=4.38D-05 NDo=     1
 LinEq1:  Iter= 17 NonCon=     1 RMS=1.19D-06 Max=3.35D-05 NDo=     1
 LinEq1:  Iter= 18 NonCon=     1 RMS=8.07D-07 Max=2.77D-05 NDo=     1
 LinEq1:  Iter= 19 NonCon=     1 RMS=8.11D-07 Max=2.70D-05 NDo=     1
 LinEq1:  Iter= 20 NonCon=     1 RMS=5.85D-07 Max=1.39D-05 NDo=     1
 LinEq1:  Iter= 21 NonCon=     1 RMS=4.30D-07 Max=9.20D-06 NDo=     1
 LinEq1:  Iter= 22 NonCon=     1 RMS=3.22D-07 Max=7.04D-06 NDo=     1
 LinEq1:  Iter= 23 NonCon=     1 RMS=2.26D-07 Max=4.30D-06 NDo=     1
 LinEq1:  Iter= 24 NonCon=     1 RMS=1.35D-07 Max=2.38D-06 NDo=     1
 LinEq1:  Iter= 25 NonCon=     1 RMS=1.03D-07 Max=2.09D-06 NDo=     1
 LinEq1:  Iter= 26 NonCon=     1 RMS=6.12D-08 Max=1.20D-06 NDo=     1
 LinEq1:  Iter= 27 NonCon=     1 RMS=4.22D-08 Max=7.86D-07 NDo=     1
 LinEq1:  Iter= 28 NonCon=     1 RMS=2.34D-08 Max=4.27D-07 NDo=     1
 LinEq1:  Iter= 29 NonCon=     1 RMS=1.35D-08 Max=3.34D-07 NDo=     1
 LinEq1:  Iter= 30 NonCon=     0 RMS=1.03D-08 Max=2.27D-07 NDo=     1
 Linear equations converged to 2.957D-08 2.957D-07 after    30 iterations.
 Incorrect curvature in search direction -- initial direction reversed.
 LinEq1:  Iter=  0 NonCon=     1 RMS=1.15D-04 Max=8.27D-03 NDo=     1
 LinEq1:  Iter=  1 NonCon=     1 RMS=5.66D-05 Max=1.28D-03 NDo=     1
 LinEq1:  Iter=  2 NonCon=     1 RMS=5.35D-05 Max=1.63D-03 NDo=     1
 LinEq1:  Iter=  3 NonCon=     1 RMS=5.09D-05 Max=9.85D-04 NDo=     1
 LinEq1:  Iter=  4 NonCon=     1 RMS=3.33D-05 Max=9.14D-04 NDo=     1
 LinEq1:  Iter=  5 NonCon=     1 RMS=3.27D-05 Max=1.07D-03 NDo=     1
 LinEq1:  Iter=  6 NonCon=     1 RMS=2.81D-05 Max=8.65D-04 NDo=     1
 LinEq1:  Iter=  7 NonCon=     1 RMS=2.13D-05 Max=6.63D-04 NDo=     1
 LinEq1:  Iter=  8 NonCon=     1 RMS=1.83D-05 Max=5.74D-04 NDo=     1
 LinEq1:  Iter=  9 NonCon=     1 RMS=1.46D-05 Max=2.61D-04 NDo=     1
 LinEq1:  Iter= 10 NonCon=     1 RMS=1.05D-05 Max=4.67D-04 NDo=     1
 LinEq1:  Iter= 11 NonCon=     1 RMS=9.27D-06 Max=2.28D-04 NDo=     1
 LinEq1:  Iter= 12 NonCon=     1 RMS=7.01D-06 Max=2.21D-04 NDo=     1
 LinEq1:  Iter= 13 NonCon=     1 RMS=7.40D-06 Max=1.77D-04 NDo=     1
 LinEq1:  Iter= 14 NonCon=     1 RMS=5.46D-06 Max=1.40D-04 NDo=     1
 LinEq1:  Iter= 15 NonCon=     1 RMS=4.95D-06 Max=1.43D-04 NDo=     1
 LinEq1:  Iter= 16 NonCon=     1 RMS=4.03D-06 Max=1.03D-04 NDo=     1
 LinEq1:  Iter= 17 NonCon=     1 RMS=3.77D-06 Max=1.15D-04 NDo=     1
 LinEq1:  Iter= 18 NonCon=     1 RMS=2.72D-06 Max=9.10D-05 NDo=     1
 LinEq1:  Iter= 19 NonCon=     1 RMS=1.70D-06 Max=5.51D-05 NDo=     1
 LinEq1:  Iter= 20 NonCon=     1 RMS=1.17D-06 Max=4.51D-05 NDo=     1
 LinEq1:  Iter= 21 NonCon=     1 RMS=8.43D-07 Max=1.77D-05 NDo=     1
 LinEq1:  Iter= 22 NonCon=     1 RMS=6.60D-07 Max=2.08D-05 NDo=     1
 LinEq1:  Iter= 23 NonCon=     1 RMS=4.56D-07 Max=8.58D-06 NDo=     1
 LinEq1:  Iter= 24 NonCon=     1 RMS=3.07D-07 Max=8.32D-06 NDo=     1
 LinEq1:  Iter= 25 NonCon=     1 RMS=2.15D-07 Max=4.26D-06 NDo=     1
 LinEq1:  Iter= 26 NonCon=     1 RMS=1.25D-07 Max=2.64D-06 NDo=     1
 LinEq1:  Iter= 27 NonCon=     1 RMS=6.69D-08 Max=1.12D-06 NDo=     1
 LinEq1:  Iter= 28 NonCon=     1 RMS=3.35D-08 Max=4.68D-07 NDo=     1
 LinEq1:  Iter= 29 NonCon=     1 RMS=2.22D-08 Max=5.96D-07 NDo=     1
 LinEq1:  Iter= 30 NonCon=     0 RMS=1.37D-08 Max=2.67D-07 NDo=     1
 Linear equations converged to 2.957D-08 2.957D-07 after    30 iterations.
 Gradient too large for Newton-Raphson -- use scaled steepest descent instead.
 Gradient too large for Newton-Raphson -- use scaled steepest descent instead.
     Accept linear search using points  1 and  2.
 Gradient too large for Newton-Raphson -- use scaled steepest descent instead.
     Accept linear search using points  2 and  3.
 Gradient too large for Newton-Raphson -- use scaled steepest descent instead.
     Accept linear search using points  1 and  2.
 LinEq1:  Iter=  0 NonCon=     1 RMS=1.15D-04 Max=6.39D-03 NDo=     1
 LinEq1:  Iter=  1 NonCon=     1 RMS=1.42D-04 Max=5.09D-03 NDo=     1
 LinEq1:  Iter=  2 NonCon=     1 RMS=3.24D-05 Max=1.78D-03 NDo=     1
 LinEq1:  Iter=  3 NonCon=     1 RMS=2.43D-05 Max=8.51D-04 NDo=     1
 LinEq1:  Iter=  4 NonCon=     1 RMS=1.80D-05 Max=3.83D-04 NDo=     1
 LinEq1:  Iter=  5 NonCon=     1 RMS=1.83D-05 Max=8.09D-04 NDo=     1
 LinEq1:  Iter=  6 NonCon=     1 RMS=1.57D-05 Max=5.69D-04 NDo=     1
 LinEq1:  Iter=  7 NonCon=     1 RMS=1.36D-05 Max=2.99D-04 NDo=     1
 LinEq1:  Iter=  8 NonCon=     1 RMS=1.07D-05 Max=2.83D-04 NDo=     1
 LinEq1:  Iter=  9 NonCon=     1 RMS=7.36D-06 Max=1.46D-04 NDo=     1
 LinEq1:  Iter= 10 NonCon=     1 RMS=5.16D-06 Max=1.38D-04 NDo=     1
 LinEq1:  Iter= 11 NonCon=     1 RMS=5.30D-06 Max=1.55D-04 NDo=     1
 LinEq1:  Iter= 12 NonCon=     1 RMS=3.79D-06 Max=1.10D-04 NDo=     1
 LinEq1:  Iter= 13 NonCon=     1 RMS=2.58D-06 Max=1.01D-04 NDo=     1
 LinEq1:  Iter= 14 NonCon=     1 RMS=1.76D-06 Max=4.67D-05 NDo=     1
 LinEq1:  Iter= 15 NonCon=     1 RMS=1.37D-06 Max=3.91D-05 NDo=     1
 LinEq1:  Iter= 16 NonCon=     1 RMS=9.86D-07 Max=3.86D-05 NDo=     1
 LinEq1:  Iter= 17 NonCon=     1 RMS=7.17D-07 Max=2.44D-05 NDo=     1
 LinEq1:  Iter= 18 NonCon=     1 RMS=5.37D-07 Max=1.57D-05 NDo=     1
 LinEq1:  Iter= 19 NonCon=     1 RMS=5.27D-07 Max=1.51D-05 NDo=     1
 LinEq1:  Iter= 20 NonCon=     1 RMS=3.72D-07 Max=7.72D-06 NDo=     1
 LinEq1:  Iter= 21 NonCon=     1 RMS=3.38D-07 Max=1.42D-05 NDo=     1
 LinEq1:  Iter= 22 NonCon=     1 RMS=2.19D-07 Max=5.60D-06 NDo=     1
 LinEq1:  Iter= 23 NonCon=     1 RMS=1.83D-07 Max=5.18D-06 NDo=     1
 LinEq1:  Iter= 24 NonCon=     1 RMS=1.05D-07 Max=2.03D-06 NDo=     1
 LinEq1:  Iter= 25 NonCon=     1 RMS=5.25D-08 Max=1.66D-06 NDo=     1
 LinEq1:  Iter= 26 NonCon=     1 RMS=3.75D-08 Max=8.63D-07 NDo=     1
 LinEq1:  Iter= 27 NonCon=     1 RMS=2.53D-08 Max=6.74D-07 NDo=     1
 LinEq1:  Iter= 28 NonCon=     1 RMS=1.27D-08 Max=3.64D-07 NDo=     1
 LinEq1:  Iter= 29 NonCon=     0 RMS=9.72D-09 Max=2.24D-07 NDo=     1
 Linear equations converged to 2.957D-08 2.957D-07 after    29 iterations.
 Gradient too large for Newton-Raphson -- use scaled steepest descent instead.
 Gradient too large for Newton-Raphson -- use scaled steepest descent instead.
     Accept linear search using points  1 and  2.
 LinEq1:  Iter=  0 NonCon=     1 RMS=1.07D-04 Max=5.77D-03 NDo=     1
 LinEq1:  Iter=  1 NonCon=     1 RMS=1.00D-04 Max=4.37D-03 NDo=     1
 LinEq1:  Iter=  2 NonCon=     1 RMS=6.93D-05 Max=3.51D-03 NDo=     1
 LinEq1:  Iter=  3 NonCon=     1 RMS=3.99D-05 Max=8.65D-04 NDo=     1
 LinEq1:  Iter=  4 NonCon=     1 RMS=2.34D-05 Max=9.78D-04 NDo=     1
 LinEq1:  Iter=  5 NonCon=     1 RMS=2.54D-05 Max=6.17D-04 NDo=     1
 LinEq1:  Iter=  6 NonCon=     1 RMS=1.64D-05 Max=6.17D-04 NDo=     1
 LinEq1:  Iter=  7 NonCon=     1 RMS=1.46D-05 Max=5.96D-04 NDo=     1
 LinEq1:  Iter=  8 NonCon=     1 RMS=1.44D-05 Max=4.47D-04 NDo=     1
 LinEq1:  Iter=  9 NonCon=     1 RMS=1.05D-05 Max=4.02D-04 NDo=     1
 LinEq1:  Iter= 10 NonCon=     1 RMS=1.03D-05 Max=3.40D-04 NDo=     1
 LinEq1:  Iter= 11 NonCon=     1 RMS=5.98D-06 Max=1.93D-04 NDo=     1
 LinEq1:  Iter= 12 NonCon=     1 RMS=4.90D-06 Max=1.33D-04 NDo=     1
 LinEq1:  Iter= 13 NonCon=     1 RMS=3.36D-06 Max=1.30D-04 NDo=     1
 LinEq1:  Iter= 14 NonCon=     1 RMS=3.11D-06 Max=7.76D-05 NDo=     1
 LinEq1:  Iter= 15 NonCon=     1 RMS=2.36D-06 Max=8.04D-05 NDo=     1
 LinEq1:  Iter= 16 NonCon=     1 RMS=1.78D-06 Max=5.43D-05 NDo=     1
 LinEq1:  Iter= 17 NonCon=     1 RMS=1.49D-06 Max=4.67D-05 NDo=     1
 LinEq1:  Iter= 18 NonCon=     1 RMS=1.04D-06 Max=1.93D-05 NDo=     1
 LinEq1:  Iter= 19 NonCon=     1 RMS=9.00D-07 Max=2.47D-05 NDo=     1
 LinEq1:  Iter= 20 NonCon=     1 RMS=4.89D-07 Max=1.06D-05 NDo=     1
 LinEq1:  Iter= 21 NonCon=     1 RMS=3.68D-07 Max=6.47D-06 NDo=     1
 LinEq1:  Iter= 22 NonCon=     1 RMS=2.38D-07 Max=7.26D-06 NDo=     1
 LinEq1:  Iter= 23 NonCon=     1 RMS=2.02D-07 Max=4.48D-06 NDo=     1
 LinEq1:  Iter= 24 NonCon=     1 RMS=1.49D-07 Max=3.02D-06 NDo=     1
 LinEq1:  Iter= 25 NonCon=     1 RMS=9.71D-08 Max=1.89D-06 NDo=     1
 LinEq1:  Iter= 26 NonCon=     1 RMS=6.23D-08 Max=1.48D-06 NDo=     1
 LinEq1:  Iter= 27 NonCon=     1 RMS=2.69D-08 Max=4.95D-07 NDo=     1
 LinEq1:  Iter= 28 NonCon=     1 RMS=2.09D-08 Max=3.96D-07 NDo=     1
 LinEq1:  Iter= 29 NonCon=     0 RMS=1.15D-08 Max=2.71D-07 NDo=     1
 Linear equations converged to 2.957D-08 2.957D-07 after    29 iterations.
     Accept linear search using points  1 and  2.
 Gradient too large for Newton-Raphson -- use scaled steepest descent instead.
     Accept linear search using points  2 and  3.
 Gradient too large for Newton-Raphson -- use scaled steepest descent instead.
     Accept linear search using points  1 and  2.
 LinEq1:  Iter=  0 NonCon=     1 RMS=6.69D-05 Max=5.28D-03 NDo=     1
 LinEq1:  Iter=  1 NonCon=     1 RMS=2.92D-05 Max=1.70D-03 NDo=     1
 LinEq1:  Iter=  2 NonCon=     1 RMS=3.60D-05 Max=2.83D-03 NDo=     1
 LinEq1:  Iter=  3 NonCon=     1 RMS=2.97D-05 Max=1.69D-03 NDo=     1
 LinEq1:  Iter=  4 NonCon=     1 RMS=1.73D-05 Max=6.61D-04 NDo=     1
 LinEq1:  Iter=  5 NonCon=     1 RMS=1.76D-05 Max=6.97D-04 NDo=     1
 LinEq1:  Iter=  6 NonCon=     1 RMS=8.68D-06 Max=2.39D-04 NDo=     1
 LinEq1:  Iter=  7 NonCon=     1 RMS=7.96D-06 Max=2.56D-04 NDo=     1
 LinEq1:  Iter=  8 NonCon=     1 RMS=5.90D-06 Max=1.40D-04 NDo=     1
 LinEq1:  Iter=  9 NonCon=     1 RMS=6.20D-06 Max=1.99D-04 NDo=     1
 LinEq1:  Iter= 10 NonCon=     1 RMS=4.95D-06 Max=9.36D-05 NDo=     1
 LinEq1:  Iter= 11 NonCon=     1 RMS=3.77D-06 Max=8.72D-05 NDo=     1
 LinEq1:  Iter= 12 NonCon=     1 RMS=3.36D-06 Max=8.12D-05 NDo=     1
 LinEq1:  Iter= 13 NonCon=     1 RMS=2.86D-06 Max=8.03D-05 NDo=     1
 LinEq1:  Iter= 14 NonCon=     1 RMS=2.09D-06 Max=6.03D-05 NDo=     1
 LinEq1:  Iter= 15 NonCon=     1 RMS=1.52D-06 Max=4.06D-05 NDo=     1
 LinEq1:  Iter= 16 NonCon=     1 RMS=1.15D-06 Max=4.80D-05 NDo=     1
 LinEq1:  Iter= 17 NonCon=     1 RMS=8.17D-07 Max=2.82D-05 NDo=     1
 LinEq1:  Iter= 18 NonCon=     1 RMS=6.62D-07 Max=2.08D-05 NDo=     1
 LinEq1:  Iter= 19 NonCon=     1 RMS=5.92D-07 Max=1.81D-05 NDo=     1
 LinEq1:  Iter= 20 NonCon=     1 RMS=4.62D-07 Max=1.16D-05 NDo=     1
 LinEq1:  Iter= 21 NonCon=     1 RMS=3.62D-07 Max=1.14D-05 NDo=     1
 LinEq1:  Iter= 22 NonCon=     1 RMS=2.82D-07 Max=8.25D-06 NDo=     1
[...]
 .,0.,0.,0.,0.,0.,0.,0.,0.,0.,0.,0.,0.,0.,0.,0.,0.,0.,0.,0.,0.,0.,0.,0.
 ,0.,0.,0.,0.,0.,0.,0.,0.,0.,0.,0.,0.,0.,0.,0.,0.,0.,0.,0.,0.,0.,0.,0.,
 0.,0.,0.,0.,0.,0.,0.,0.,0.,0.,0.,0.,0.,0.,0.,0.,0.,0.,0.,0.,0.,0.,0.,0
 .,0.,0.,0.,0.,0.,0.,0.,0.,0.,0.,0.,0.,0.,0.,0.,0.,0.,0.,0.,0.,0.,0.,0.
 ,0.,0.,0.,0.,0.,0.,0.,0.,0.,0.,0.,0.,0.,0.,0.,0.,0.,0.,0.,0.,0.,0.,0.,
 0.,0.,0.,0.,0.,0.,0.,0.,0.,0.,0.,0.,0.,0.,0.,0.,0.,0.,0.,0.,0.,0.,0.,0
 .,0.,0.,0.,0.,0.,0.,0.,0.,0.,0.,0.,0.,0.,0.,0.,0.,0.,0.,0.,0.,0.,0.,0.
 ,0.,0.,0.,0.,0.,0.,0.,0.,0.,0.,0.,0.,0.,0.,0.,0.,0.,0.,0.,0.,0.,0.,0.,
 0.,0.,0.,0.,0.,0.,0.,0.,0.,0.,0.,0.,0.,0.,0.,0.,0.,0.,0.,0.,0.,0.,0.,0
 .,0.,0.,0.,0.,0.,0.,0.,0.,0.,0.,0.,0.,0.,0.,0.,0.,0.,0.,0.,0.,0.,0.,0.
 ,0.,0.,0.,0.,0.,0.,0.,0.,0.,0.,0.,0.,0.,0.,0.,0.,0.,0.,0.,0.,0.,0.,0.,
 0.,0.,0.,0.,0.,0.,0.,0.,0.,0.,0.,0.,0.,0.,0.,0.,0.,0.,0.,0.,0.,0.,0.,0
 .,0.,0.,0.,0.,0.,0.,0.,0.,0.,0.,0.,0.,0.,0.,0.,0.,0.,0.,0.,0.,0.,0.,0.
 ,0.,0.,0.,0.,0.,0.,0.,0.,0.,0.,0.,0.,0.,0.,0.,0.,0.,0.,0.,0.,0.,0.,0.,
 0.,0.,0.,0.,0.,0.,0.,0.,0.,0.,0.,0.,0.,0.,0.,0.,0.,0.,0.,0.,0.,0.,0.,0
 .,0.,0.,0.,0.,0.,0.,0.,0.,0.,0.,0.,0.,0.,0.,0.,0.,0.,0.,0.,0.,0.,0.,0.
 ,0.,0.,0.,0.,0.,0.,0.,0.,0.,0.,0.,0.,0.,0.,0.,0.,0.,0.,0.,0.,0.,0.,0.,
 0.,0.,0.,0.,0.,0.,0.,0.,0.,0.,0.,0.,0.,0.,0.,0.,0.,0.,0.,0.,0.,0.,0.,0
 .,0.,0.,0.,0.,0.,0.,0.,0.,0.,0.,0.,0.,0.,0.,0.,0.,0.,0.,0.,0.,0.,0.,0.
 ,0.,0.,0.,0.,0.,0.,0.,0.,0.,0.,0.,0.,0.,0.,0.,0.,0.,0.,0.,0.,0.,0.,0.,
 0.,0.,0.,0.,0.,0.,0.,0.,0.,0.,0.,0.,0.,0.,0.,0.,0.,0.,0.,0.,0.,0.,0.,0
 .,0.,0.,0.,0.,0.,0.,0.,0.,0.,0.,0.,0.,0.,0.,0.,0.,0.,0.,0.,0.,0.,0.,0.
 ,0.,0.,0.,0.,0.,0.,0.,0.,0.,0.,0.,0.,0.,0.,0.,0.,0.,0.,0.,0.,0.,0.,0.,
 0.,0.,0.,0.,0.,0.,0.,0.,0.,0.,0.,0.,0.,0.,0.,0.,0.,0.,0.,0.,0.,0.,0.,0
 .,0.,0.,0.,0.,0.,0.,0.,0.,0.,0.,0.,0.,0.,0.,0.,0.,0.,0.,0.,0.,0.,0.,0.
 ,0.,0.,0.,0.,0.,0.,0.,0.,0.,0.,0.,0.,0.,0.,0.,0.,0.,0.,0.,0.,0.,0.,0.,
 0.,0.,0.,0.,0.,0.,0.,0.,0.,0.,0.,0.,0.,0.,0.,0.,0.,0.,0.,0.,0.,0.,0.,0
 .,0.,0.,0.,0.,0.,0.,0.,0.,0.,0.,0.,0.,0.,0.,0.,0.,0.,0.,0.,0.,0.,0.,0.
 ,0.,0.,0.,0.,0.,0.,0.,0.,0.,0.,0.,0.,0.,0.,0.,0.,0.,0.,0.,0.,0.,0.,0.,
 0.,0.,0.,0.,0.,0.,0.,0.,0.,0.,0.,0.,0.,0.,0.,0.,0.,0.,0.,0.,0.,0.,0.,0
 .,0.,0.,0.,0.,0.,0.,0.,0.,0.,0.,0.,0.,0.,0.,0.,0.,0.,0.,0.,0.,0.,0.,0.
 ,0.,0.,0.,0.,0.,0.,0.,0.,0.,0.,0.,0.,0.,0.,0.,0.,0.,0.,0.,0.,0.,0.,0.,
 0.,0.,0.,0.,0.,0.,0.,0.,0.,0.,0.,0.,0.,0.,0.,0.,0.,0.,0.,0.,0.,0.,0.,0
 .,0.,0.,0.,0.,0.,0.,0.,0.,0.,0.,0.,0.,0.,0.,0.,0.,0.,0.,0.,0.,0.,0.,0.
 ,0.,0.,0.,0.,0.,0.,0.,0.,0.,0.,0.,0.,0.,0.,0.,0.,0.,0.,0.,0.,0.,0.,0.,
 0.,0.,0.,0.,0.,0.,0.,0.,0.,0.,0.,0.,0.,0.,0.,0.,0.,0.,0.,0.,0.,0.,0.,0
 .,0.,0.,0.,0.,0.,0.,0.,0.,0.,0.,0.,0.,0.,0.,0.,0.,0.,0.,0.,0.,0.,0.,0.
 ,0.,0.,0.,0.,0.,0.,0.,0.,0.,0.,0.,0.,0.,0.,0.,0.,0.,0.,0.,0.,0.,0.,0.,
 0.,0.,0.,0.,0.,0.,0.,0.,0.,0.,0.,0.,0.,0.,0.,0.,0.,0.,0.,0.,0.,0.,0.,0
 .,0.,0.,0.,0.,0.,0.,0.,0.,0.,0.,0.,0.,0.,0.,0.,0.,0.,0.,0.,0.,0.,0.,0.
 ,0.,0.,0.,0.,0.,0.,0.,0.,0.,0.,0.,0.,0.,0.,0.,0.,0.,0.,0.,0.,0.,0.,0.,
 0.,0.,0.,0.,0.,0.,0.,0.,0.,0.,0.,0.,0.,0.,0.,0.,0.,0.,0.,0.,0.,0.,0.,0
 .,0.,0.,0.,0.,0.,0.,0.,0.,0.,0.,0.,0.,0.,0.,0.,0.,0.,0.,0.,0.,0.,0.,0.
 ,0.,0.,0.,0.,0.,0.,0.,0.,0.,0.,0.,0.,0.,0.,0.,0.,0.,0.,0.,0.,0.,0.,0.,
 0.,0.,0.,0.,0.,0.,0.,0.,0.,0.,0.,0.,0.,0.,0.,0.,0.,0.,0.,0.,0.,0.,0.,0
 .,0.,0.,0.,0.,0.,0.,0.,0.,0.,0.,0.,0.,0.,0.,0.,0.,0.,0.,0.,0.,0.,0.,0.
 ,0.,0.,0.,0.,0.,0.,0.,0.,0.,0.,0.,0.,0.,0.,0.,0.,0.,0.,0.,0.,0.,0.,0.,
 0.,0.,0.,0.,0.,0.,0.,0.,0.,0.,0.,0.,0.,0.,0.,0.,0.,0.,0.,0.,0.,0.,0.,0
 .,0.,0.,0.,0.,0.,0.,0.,0.,0.,0.,0.,0.,0.,0.,0.,0.,0.,0.,0.,0.,0.,0.,0.
 ,0.,0.,0.,0.,0.,0.,0.,0.,0.,0.,0.,0.,0.,0.,0.,0.,0.,0.,0.,0.,0.,0.,0.,
 0.,0.,0.,0.,0.,0.,0.,0.,0.,0.,0.,0.,0.,0.,0.,0.,0.,0.,0.,0.,0.,0.,0.,0
 .,0.,0.,0.,0.,0.,0.,0.,0.,0.,0.,0.,0.,0.,0.,0.,0.,0.,0.,0.,0.,0.,0.,0.
 ,0.,0.,0.,0.,0.,0.,0.,0.,0.,0.,0.,0.,0.,0.,0.,0.,0.,0.,0.,0.,0.,0.,0.,
 0.,0.,0.,0.,0.,0.,0.,0.,0.,0.,0.,0.,0.,0.,0.,0.,0.,0.,0.,0.,0.,0.,0.,0
 .,0.,0.,0.,0.,0.,0.,0.,0.,0.,0.,0.,0.,0.,0.,0.,0.,0.,0.,0.,0.,0.,0.,0.
 ,0.,0.,0.,0.,0.,0.,0.,0.,0.,0.,0.,0.,0.,0.,0.,0.,0.,0.,0.,0.,0.,0.,0.,
 0.,0.,0.,0.,0.,0.,0.,0.,0.,0.,0.,0.,0.,0.,0.,0.,0.,0.,0.,0.,0.,0.,0.,0
 .,0.,0.,0.,0.,0.,0.,0.,0.,0.,0.,0.,0.,0.,0.,0.,0.,0.,0.,0.,0.,0.,0.,0.
 ,0.,0.,0.,0.,0.,0.,0.,0.,0.,0.,0.,0.,0.,0.,0.,0.,0.,0.,0.,0.,0.,0.,0.,
 0.,0.,0.,0.,0.,0.,0.,0.,0.,0.,0.,0.,0.,0.,0.,0.,0.,0.,0.,0.,0.,0.,0.,0
 .,0.,0.,0.,0.,0.,0.,0.,0.,0.,0.,0.,0.,0.,0.,0.,0.,0.,0.,0.,0.,0.,0.,0.
 ,0.,0.,0.,0.,0.,0.,0.,0.,0.,0.,0.,0.,0.,0.,0.,0.,0.,0.,0.,0.,0.,0.,0.,
 0.,0.,0.,0.,0.,0.,0.,0.,0.,0.,0.,0.,0.,0.,0.,0.,0.,0.,0.,0.,0.,0.,0.,0
 .,0.,0.,0.,0.,0.,0.,0.,0.,0.,0.,0.,0.,0.,0.,0.,0.,0.,0.,0.,0.,0.,0.,0.
 ,0.,0.,0.,0.,0.,0.,0.,0.,0.,0.,0.,0.,0.,0.,0.,0.,0.,0.,0.,0.,0.,0.,0.,
 0.,0.,0.,0.,0.,0.,0.,0.,0.,0.,0.,0.,0.,0.,0.,0.,0.,0.,0.,0.,0.,0.,0.,0
 .,0.,0.,0.,0.,0.,0.,0.,0.,0.,0.,0.,0.,0.,0.,0.,0.,0.,0.,0.,0.,0.,0.,0.
 ,0.,0.,0.,0.,0.,0.,0.,0.,0.,0.,0.,0.,0.,0.,0.,0.,0.,0.,0.,0.,0.,0.,0.,
 0.,0.,0.,0.,0.,0.,0.,0.,0.,0.,0.,0.,0.,0.,0.,0.,0.,0.,0.,0.,0.,0.,0.,0
 .,0.,0.,0.,0.,0.,0.,0.,0.,0.,0.,0.,0.,0.,0.,0.,0.,0.,0.,0.,0.,0.,0.,0.
 ,0.,0.,0.,0.,0.,0.,0.,0.,0.,0.,0.,0.,0.,0.,0.,0.,0.,0.,0.,0.,0.,0.,0.,
 0.,0.,0.,0.,0.,0.,0.,0.,0.,0.,0.,0.,0.,0.,0.,0.,0.,0.,0.,0.,0.,0.,0.,0
 .,0.,0.,0.,0.,0.,0.,0.,0.,0.,0.,0.,0.,0.,0.,0.,0.,0.,0.,0.,0.,0.,0.,0.
 ,0.,0.,0.,0.,0.,0.,0.,0.,0.,0.,0.,0.,0.,0.,0.,0.,0.,0.,0.,0.,0.,0.,0.,
 0.,0.,0.,0.,0.,0.,0.,0.,0.,0.,0.,0.,0.,0.,0.,0.,0.,0.,0.,0.,0.,0.,0.,0
 .,0.,0.,0.,0.,0.,0.,0.,0.,0.,0.,0.,0.,0.,0.,0.,0.,0.,0.,0.,0.,0.,0.,0.
 ,0.,0.,0.,0.,0.,0.,0.,0.,0.,0.,0.,0.,0.,0.,0.,0.,0.,0.,0.,0.,0.,0.,0.,
 0.,0.,0.,0.,0.,0.,0.,0.,0.,0.,0.,0.,0.,0.,0.,0.,0.,0.,0.,0.,0.,0.,0.,0
 .,0.,0.,0.,0.,0.,0.,0.,0.,0.,0.,0.,0.,0.,0.,0.,0.,0.,0.,0.,0.,0.,0.,0.
 ,0.,0.,0.,0.,0.,0.,0.,0.,0.,0.,0.,0.,0.,0.,0.,0.,0.,0.,0.,0.,0.,0.,0.,
 0.,0.,0.,0.,0.,0.,0.,0.,0.,0.,0.,0.,0.,0.,0.,0.,0.,0.,0.,0.,0.,0.,0.,0
 .,0.,0.,0.,0.,0.,0.,0.,0.,0.,0.,0.,0.,0.,0.,0.,0.,0.,0.,0.,0.,0.,0.,0.
 ,0.,0.,0.,0.,0.,0.,0.,0.,0.,0.,0.,0.,0.,0.,0.,0.,0.,0.,0.,0.,0.,0.,0.,
 0.,0.,0.,0.,0.,0.,0.,0.,0.,0.,0.,0.,0.,0.,0.,0.,0.,0.,0.,0.,0.,0.,0.,0
 .,0.,0.,0.,0.,0.,0.,0.,0.,0.,0.,0.,0.,0.,0.,0.,0.,0.,0.,0.,0.,0.,0.,0.
 ,0.,0.,0.,0.,0.,0.,0.,0.,0.,0.,0.,0.,0.,0.,0.,0.,0.,0.,0.,0.,0.,0.,0.,
 0.,0.,0.,0.,0.,0.,0.,0.,0.,0.,0.,0.,0.,0.,0.,0.,0.,0.,0.,0.,0.,0.,0.,0
 .,0.,0.,0.,0.,0.,0.,0.,0.,0.,0.,0.,0.,0.,0.,0.,0.,0.,0.,0.,0.,0.,0.,0.
 ,0.,0.,0.,0.,0.,0.,0.,0.,0.,0.,0.,0.,0.,0.,0.,0.,0.,0.,0.,0.,0.,0.,0.,
 0.,0.,0.,0.,0.,0.,0.,0.,0.,0.,0.,0.,0.,0.,0.,0.,0.,0.,0.,0.,0.,0.,0.,0
 .,0.,0.,0.,0.,0.,0.,0.,0.,0.,0.,0.,0.,0.,0.,0.,0.,0.,0.,0.,0.,0.,0.,0.
 ,0.,0.,0.,0.,0.,0.,0.,0.,0.,0.,0.,0.,0.,0.,0.,0.,0.,0.,0.,0.,0.,0.,0.,
 0.,0.,0.,0.,0.,0.,0.,0.,0.,0.,0.,0.,0.,0.,0.,0.,0.,0.,0.,0.,0.,0.,0.,0
 .,0.,0.,0.,0.,0.,0.,0.,0.,0.,0.,0.,0.,0.,0.,0.,0.,0.,0.,0.,0.,0.,0.,0.
 ,0.,0.,0.,0.,0.,0.,0.,0.,0.,0.,0.,0.,0.,0.,0.,0.,0.,0.,0.,0.,0.,0.,0.,
 0.,0.,0.,0.,0.,0.,0.,0.,0.,0.,0.,0.,0.,0.,0.,0.,0.,0.,0.,0.,0.,0.,0.,0
 .,0.,0.,0.,0.,0.,0.,0.,0.,0.,0.,0.,0.,0.,0.,0.,0.,0.,0.,0.,0.,0.,0.,0.
 ,0.,0.,0.,0.,0.,0.,0.,0.,0.,0.,0.,0.,0.,0.,0.,0.,0.,0.,0.,0.,0.,0.,0.,
 0.,0.,0.,0.,0.,0.,0.,0.,0.,0.,0.,0.,0.,0.,0.,0.,0.,0.,0.,0.,0.,0.,0.,0
 .,0.,0.,0.,0.,0.,0.,0.,0.,0.,0.,0.,0.,0.,0.,0.,0.,0.,0.,0.,0.,0.,0.,0.
 ,0.,0.,0.,0.,0.,0.,0.,0.,0.,0.,0.,0.,0.,0.,0.,0.,0.,0.,0.,0.,0.,0.,0.,
 0.,0.,0.,0.,0.,0.,0.,0.,0.,0.,0.,0.,0.,0.,0.,0.,0.,0.,0.,0.,0.,0.,0.,0
 .,0.,0.,0.,0.,0.,0.,0.,0.,0.,0.,0.,0.,0.,0.,0.,0.,0.,0.,0.,0.,0.,0.,0.
 ,0.,0.,0.,0.,0.,0.,0.,0.,0.,0.,0.,0.,0.,0.,0.,0.,0.,0.,0.,0.,0.,0.,0.,
 0.,0.,0.,0.,0.,0.,0.,0.,0.,0.,0.,0.,0.,0.,0.,0.,0.,0.,0.,0.,0.,0.,0.,0
 .,0.,0.,0.,0.,0.,0.,0.,0.,0.,0.,0.,0.,0.,0.,0.,0.,0.,0.,0.,0.,0.,0.,0.
 ,0.,0.,0.,0.,0.,0.,0.,0.,0.,0.,0.,0.,0.,0.,0.,0.,0.,0.,0.,0.,0.,0.,0.,
 0.,0.,0.,0.,0.,0.,0.,0.,0.,0.,0.,0.,0.,0.,0.,0.,0.,0.,0.,0.,0.,0.,0.,0
 .,0.,0.,0.,0.,0.,0.,0.,0.,0.,0.,0.,0.,0.,0.,0.,0.,0.,0.,0.,0.,0.,0.,0.
 ,0.,0.,0.,0.,0.,0.,0.,0.,0.,0.,0.,0.,0.,0.,0.,0.,0.,0.,0.,0.,0.,0.,0.,
 0.,0.,0.,0.,0.,0.,0.,0.,0.,0.,0.,0.,0.,0.,0.,0.,0.,0.,0.,0.,0.,0.,0.,0
 .,0.,0.,0.,0.,0.,0.,0.,0.,0.,0.,0.,0.,0.,0.,0.,0.,0.,0.,0.,0.,0.,0.,0.
 ,0.,0.,0.,0.,0.,0.,0.,0.,0.,0.,0.,0.,0.,0.,0.,0.,0.,0.,0.,0.,0.,0.,0.,
 0.,0.,0.,0.,0.,0.,0.,0.,0.,0.,0.,0.,0.,0.,0.,0.,0.,0.,0.,0.,0.,0.,0.,0
 .,0.,0.,0.,0.,0.,0.,0.,0.,0.,0.,0.,0.,0.,0.,0.,0.,0.,0.,0.,0.,0.,0.,0.
 ,0.,0.,0.,0.,0.,0.,0.,0.,0.,0.,0.,0.,0.,0.,0.,0.,0.,0.,0.,0.,0.,0.,0.,
 0.,0.,0.,0.,0.,0.,0.,0.,0.,0.,0.,0.,0.,0.,0.,0.,0.,0.,0.,0.,0.,0.,0.,0
 .,0.,0.,0.,0.,0.,0.,0.,0.,0.,0.,0.,0.,0.,0.,0.,0.,0.,0.,0.,0.,0.,0.,0.
 ,0.,0.,0.,0.,0.,0.,0.,0.,0.,0.,0.,0.,0.,0.,0.,0.,0.,0.,0.,0.,0.,0.,0.,
 0.,0.,0.,0.,0.,0.,0.,0.,0.,0.,0.,0.,0.,0.,0.,0.,0.,0.,0.,0.,0.,0.,0.,0
 .,0.,0.,0.,0.,0.,0.,0.,0.,0.,0.,0.,0.,0.,0.,0.,0.,0.,0.,0.,0.,0.,0.,0.
 ,0.,0.,0.,0.,0.,0.,0.,0.,0.,0.,0.,0.,0.,0.,0.,0.,0.,0.,0.,0.,0.,0.,0.,
 0.,0.,0.,0.,0.,0.,0.,0.,0.,0.,0.,0.,0.,0.,0.,0.,0.,0.,0.,0.,0.,0.,0.,0
 .,0.,0.,0.,0.,0.,0.,0.,0.,0.,0.,0.,0.,0.,0.,0.,0.,0.,0.,0.,0.,0.,0.,0.
 ,0.,0.,0.,0.,0.,0.,0.,0.,0.,0.,0.,0.,0.,0.,0.,0.,0.,0.,0.,0.,0.,0.,0.,
 0.,0.,0.,0.,0.,0.,0.,0.,0.,0.,0.,0.,0.,0.,0.,0.,0.,0.,0.,0.,0.,0.,0.,0
 .,0.,0.,0.,0.,0.,0.,0.,0.,0.,0.,0.,0.,0.,0.,0.,0.,0.,0.,0.,0.,0.,0.,0.
 ,0.,0.,0.,0.,0.,0.,0.,0.,0.,0.,0.,0.,0.,0.,0.,0.,0.,0.,0.,0.,0.,0.,0.,
 0.,0.,0.,0.,0.,0.,0.,0.,0.,0.,0.,0.,0.,0.,0.,0.,0.,0.,0.,0.,0.,0.,0.,0
 .,0.,0.,0.,0.,0.,0.,0.,0.,0.,0.,0.,0.,0.,0.,0.,0.,0.,0.,0.,0.,0.,0.,0.
 ,0.,0.,0.,0.,0.,0.,0.,0.,0.,0.,0.,0.,0.,0.,0.,0.,0.,0.,0.,0.,0.,0.,0.,
 0.,0.,0.,0.,0.,0.,0.,0.,0.,0.,0.,0.,0.,0.,0.,0.,0.,0.,0.,0.,0.,0.,0.,0
 .,0.,0.,0.,0.,0.,0.,0.,0.,0.,0.,0.,0.,0.,0.,0.,0.,0.,0.,0.,0.,0.,0.,0.
 ,0.,0.,0.,0.,0.,0.,0.,0.,0.,0.,0.,0.,0.,0.,0.,0.,0.,0.,0.,0.,0.,0.,0.,
 0.,0.,0.,0.,0.,0.,0.,0.,0.,0.,0.,0.,0.,0.,0.,0.,0.,0.,0.,0.,0.,0.,0.,0
 .,0.,0.,0.,0.,0.,0.,0.,0.,0.,0.,0.,0.,0.,0.,0.,0.,0.,0.,0.,0.,0.,0.,0.
 ,0.,0.,0.,0.,0.,0.,0.,0.,0.,0.,0.,0.,0.,0.,0.,0.,0.,0.,0.,0.,0.,0.,0.,
 0.,0.,0.,0.,0.,0.,0.,0.,0.,0.,0.,0.,0.,0.,0.,0.,0.,0.,0.,0.,0.,0.,0.,0
 .,0.,0.,0.,0.,0.,0.,0.,0.,0.,0.,0.,0.,0.,0.,0.,0.,0.,0.,0.,0.,0.,0.,0.
 ,0.,0.,0.,0.,0.,0.,0.,0.,0.,0.,0.,0.,0.,0.,0.,0.,0.,0.,0.,0.,0.,0.,0.,
 0.,0.,0.,0.,0.,0.,0.,0.,0.,0.,0.,0.,0.,0.,0.,0.,0.,0.,0.,0.,0.,0.,0.,0
 .,0.,0.,0.,0.,0.,0.,0.,0.,0.,0.,0.,0.,0.,0.,0.,0.,0.,0.,0.,0.,0.,0.,0.
 ,0.,0.,0.,0.,0.,0.,0.,0.,0.,0.,0.,0.,0.,0.,0.,0.,0.,0.,0.,0.,0.,0.,0.,
 0.,0.,0.,0.,0.,0.,0.,0.,0.,0.,0.,0.,0.,0.,0.,0.,0.,0.,0.,0.,0.,0.,0.,0
 .,0.,0.,0.,0.,0.,0.,0.,0.,0.,0.,0.,0.,0.,0.,0.,0.,0.,0.,0.,0.,0.,0.,0.
 ,0.,0.,0.,0.,0.,0.,0.,0.,0.,0.,0.,0.,0.,0.,0.,0.,0.,0.,0.,0.,0.,0.,0.,
 0.,0.,0.,0.,0.,0.,0.,0.,0.,0.,0.,0.,0.,0.,0.,0.,0.,0.,0.,0.,0.,0.,0.,0
 .,0.,0.,0.,0.,0.,0.,0.,0.,0.,0.,0.,0.,0.,0.,0.,0.,0.,0.,0.,0.,0.,0.,0.
 ,0.,0.,0.,0.,0.,0.,0.,0.,0.,0.,0.,0.,0.,0.,0.,0.,0.,0.,0.,0.,0.,0.,0.,
 0.,0.,0.,0.,0.,0.,0.,0.,0.,0.,0.,0.,0.,0.,0.,0.,0.,0.,0.,0.,0.,0.,0.,0
 .,0.,0.,0.,0.,0.,0.,0.,0.,0.,0.,0.,0.,0.,0.,0.,0.,0.,0.,0.,0.,0.,0.,0.
 ,0.,0.,0.,0.,0.,0.,0.,0.,0.,0.,0.,0.,0.,0.,0.,0.,0.,0.,0.,0.,0.,0.,0.,
 0.,0.,0.,0.,0.,0.,0.,0.,0.,0.,0.,0.,0.,0.,0.,0.,0.,0.,0.,0.,0.,0.,0.,0
 .,0.,0.,0.,0.,0.,0.,0.,0.,0.,0.,0.,0.,0.,0.,0.,0.,0.,0.,0.,0.,0.,0.,0.
 ,0.,0.,0.,0.,0.,0.,0.,0.,0.,0.,0.,0.,0.,0.,0.,0.,0.,0.,0.,0.,0.,0.,0.,
 0.,0.,0.,0.,0.,0.,0.,0.,0.,0.,0.,0.,0.,0.,0.,0.,0.,0.,0.,0.,0.,0.,0.,0
 .,0.,0.,0.,0.,0.,0.,0.,0.,0.,0.,0.,0.,0.,0.,0.,0.,0.,0.,0.,0.,0.,0.,0.
 ,0.,0.,0.,0.,0.,0.,0.,0.,0.,0.,0.,0.,0.,0.,0.,0.,0.,0.,0.,0.,0.,0.,0.,
 0.,0.,0.,0.,0.,0.,0.,0.,0.,0.,0.,0.,0.,0.,0.,0.,0.,0.,0.,0.,0.,0.,0.,0
 .,0.,0.,0.,0.,0.,0.,0.,0.,0.,0.,0.,0.,0.,0.,0.,0.,0.,0.,0.,0.,0.,0.,0.
 ,0.,0.,0.,0.,0.,0.,0.,0.,0.,0.,0.,0.,0.,0.,0.,0.,0.,0.,0.,0.,0.,0.,0.,
 0.,0.,0.,0.,0.,0.,0.,0.,0.,0.,0.,0.,0.,0.,0.,0.,0.,0.,0.,0.,0.,0.,0.,0
 .,0.,0.,0.,0.,0.,0.,0.,0.,0.,0.,0.,0.,0.,0.,0.,0.,0.,0.,0.,0.,0.,0.,0.
 ,0.,0.,0.,0.,0.,0.,0.,0.,0.,0.,0.,0.,0.,0.,0.,0.,0.,0.,0.,0.,0.,0.,0.,
 0.,0.,0.,0.,0.,0.,0.,0.,0.,0.,0.,0.,0.,0.,0.,0.,0.,0.,0.,0.,0.,0.,0.,0
 .,0.,0.,0.,0.,0.,0.,0.,0.,0.,0.,0.,0.,0.,0.,0.,0.,0.,0.,0.,0.,0.,0.,0.
 ,0.,0.,0.,0.,0.,0.,0.,0.,0.,0.,0.,0.,0.,0.,0.,0.,0.,0.,0.,0.,0.,0.,0.,
 0.,0.,0.,0.,0.,0.,0.,0.,0.,0.,0.,0.,0.,0.,0.,0.,0.,0.,0.,0.,0.,0.,0.,0
 .,0.,0.,0.,0.,0.,0.,0.,0.,0.,0.,0.,0.,0.,0.,0.,0.,0.,0.,0.,0.,0.,0.,0.
 ,0.,0.,0.,0.,0.,0.,0.,0.,0.,0.,0.,0.,0.,0.,0.,0.,0.,0.,0.,0.,0.,0.,0.,
 0.,0.,0.,0.,0.,0.,0.,0.,0.,0.,0.,0.,0.,0.,0.,0.,0.,0.,0.,0.,0.,0.,0.,0
 .,0.,0.,0.,0.,0.,0.,0.,0.,0.,0.,0.,0.,0.,0.,0.,0.,0.,0.,0.,0.,0.,0.,0.
 ,0.,0.,0.,0.,0.,0.,0.,0.,0.,0.,0.,0.,0.,0.,0.,0.,0.,0.,0.,0.,0.,0.,0.,
 0.,0.,0.,0.,0.,0.,0.,0.,0.,0.,0.,0.,0.,0.,0.,0.,0.,0.,0.,0.,0.,0.,0.,0
 .,0.,0.,0.,0.,0.,0.,0.,0.,0.,0.,0.,0.,0.,0.,0.,0.,0.,0.,0.,0.,0.,0.,0.
 ,0.,0.,0.,0.,0.,0.,0.,0.,0.,0.,0.,0.,0.,0.,0.,0.,0.,0.,0.,0.,0.,0.,0.,
 0.,0.,0.,0.,0.,0.,0.,0.,0.,0.,0.,0.,0.,0.,0.,0.,0.,0.,0.,0.,0.,0.,0.,0
 .,0.,0.,0.,0.,0.,0.,0.,0.,0.,0.,0.,0.,0.,0.,0.,0.,0.,0.,0.,0.,0.,0.,0.
 ,0.,0.,0.,0.,0.,0.,0.,0.,0.,0.,0.,0.,0.,0.,0.,0.,0.,0.,0.,0.,0.,0.,0.,
 0.,0.,0.,0.,0.,0.,0.,0.,0.,0.,0.,0.,0.,0.,0.,0.,0.,0.,0.,0.,0.,0.,0.,0
 .,0.,0.,0.,0.,0.,0.,0.,0.,0.,0.,0.,0.,0.,0.,0.,0.,0.,0.,0.,0.,0.,0.,0.
 ,0.,0.,0.,0.,0.,0.,0.,0.,0.,0.,0.,0.,0.,0.,0.,0.,0.,0.,0.,0.,0.,0.,0.,
 0.,0.,0.,0.,0.,0.,0.,0.,0.,0.,0.,0.,0.,0.,0.,0.,0.,0.,0.,0.,0.,0.,0.,0
 .,0.,0.,0.,0.,0.,0.,0.,0.,0.,0.,0.,0.,0.,0.,0.,0.,0.,0.,0.,0.,0.,0.,0.
 ,0.,0.,0.,0.,0.,0.,0.,0.,0.,0.,0.,0.,0.,0.,0.,0.,0.,0.,0.,0.,0.,0.,0.,
 0.,0.,0.,0.,0.,0.,0.,0.,0.,0.,0.,0.,0.,0.,0.,0.,0.,0.,0.,0.,0.,0.,0.,0
 .,0.,0.,0.,0.,0.,0.,0.,0.,0.,0.,0.,0.,0.,0.,0.,0.,0.,0.,0.,0.,0.,0.,0.
 ,0.,0.,0.,0.,0.,0.,0.,0.,0.,0.,0.,0.,0.,0.,0.,0.,0.,0.,0.,0.,0.,0.,0.,
 0.,0.,0.,0.,0.,0.,0.,0.,0.,0.,0.,0.,0.,0.,0.,0.,0.,0.,0.,0.,0.,0.,0.,0
 .,0.,0.,0.,0.,0.,0.,0.,0.,0.,0.,0.,0.,0.,0.,0.,0.,0.,0.,0.,0.,0.,0.,0.
 ,0.,0.,0.,0.,0.,0.,0.,0.,0.,0.,0.,0.,0.,0.,0.,0.,0.,0.,0.,0.,0.,0.,0.,
 0.,0.,0.,0.,0.,0.,0.,0.,0.,0.,0.,0.,0.,0.,0.,0.,0.,0.,0.,0.,0.,0.,0.,0
 .,0.,0.,0.,0.,0.,0.,0.,0.,0.,0.,0.,0.,0.,0.,0.,0.,0.,0.,0.,0.,0.,0.,0.
 ,0.,0.,0.,0.,0.,0.,0.,0.,0.,0.,0.,0.,0.,0.,0.,0.,0.,0.,0.,0.,0.,0.,0.,
 0.,0.,0.,0.,0.,0.,0.,0.,0.,0.,0.,0.,0.,0.,0.,0.,0.,0.,0.,0.,0.,0.,0.,0
 .,0.,0.,0.,0.,0.,0.,0.,0.,0.,0.,0.,0.,0.,0.,0.,0.,0.,0.,0.,0.,0.,0.,0.
 ,0.,0.,0.,0.,0.,0.,0.,0.,0.,0.,0.,0.,0.,0.,0.,0.,0.,0.,0.,0.,0.,0.,0.,
 0.,0.,0.,0.,0.,0.,0.,0.,0.,0.,0.,0.,0.,0.,0.,0.,0.,0.,0.,0.,0.,0.,0.,0
 .,0.,0.,0.,0.,0.,0.,0.,0.,0.,0.,0.,0.,0.,0.,0.,0.,0.,0.,0.,0.,0.,0.,0.
 ,0.,0.,0.,0.,0.,0.,0.,0.,0.,0.,0.,0.,0.,0.,0.,0.,0.,0.,0.,0.,0.,0.,0.,
 0.,0.,0.,0.,0.,0.,0.,0.,0.,0.,0.,0.,0.,0.,0.,0.,0.,0.,0.,0.,0.,0.,0.,0
 .,0.,0.,0.,0.,0.,0.,0.,0.,0.,0.,0.,0.,0.,0.,0.,0.,0.,0.,0.,0.,0.,0.,0.
 ,0.,0.,0.,0.,0.,0.,0.,0.,0.,0.,0.,0.,0.,0.,0.,0.,0.,0.,0.,0.,0.,0.,0.,
 0.,0.,0.,0.,0.,0.,0.,0.,0.,0.,0.,0.,0.,0.,0.,0.,0.,0.,0.,0.,0.,0.,0.,0
 .,0.,0.,0.,0.,0.,0.,0.,0.,0.,0.,0.,0.,0.,0.,0.,0.,0.,0.,0.,0.,0.,0.,0.
 ,0.,0.,0.,0.,0.,0.,0.,0.,0.,0.,0.,0.,0.,0.,0.,0.,0.,0.,0.,0.,0.,0.,0.,
 0.,0.,0.,0.,0.,0.,0.,0.,0.,0.,0.,0.,0.,0.,0.,0.,0.,0.,0.,0.,0.,0.,0.,0
 .,0.,0.,0.,0.,0.,0.,0.,0.,0.,0.,0.,0.,0.,0.,0.,0.,0.,0.,0.,0.,0.,0.,0.
 ,0.,0.,0.,0.,0.,0.,0.,0.,0.,0.,0.,0.,0.,0.,0.,0.,0.,0.,0.,0.,0.,0.,0.,
 0.,0.,0.,0.,0.,0.,0.,0.,0.,0.,0.,0.,0.,0.,0.,0.,0.,0.,0.,0.,0.,0.,0.,0
 .,0.,0.,0.,0.,0.,0.,0.,0.,0.,0.,0.,0.,0.,0.,0.,0.,0.,0.,0.,0.,0.,0.,0.
 ,0.,0.,0.,0.,0.,0.,0.,0.,0.,0.,0.,0.,0.,0.,0.,0.,0.,0.,0.,0.,0.,0.,0.,
 0.,0.,0.,0.,0.,0.,0.,0.,0.,0.,0.,0.,0.,0.,0.,0.,0.,0.,0.,0.,0.,0.,0.,0
 .,0.,0.,0.,0.,0.,0.,0.,0.,0.,0.,0.,0.,0.,0.,0.,0.,0.,0.,0.,0.,0.,0.,0.
 ,0.,0.,0.,0.,0.,0.,0.,0.,0.,0.,0.,0.,0.,0.,0.,0.,0.,0.,0.,0.,0.,0.,0.,
 0.,0.,0.,0.,0.,0.,0.,0.,0.,0.,0.,0.,0.,0.,0.,0.,0.,0.,0.,0.,0.,0.,0.,0
 .,0.,0.,0.,0.,0.,0.,0.,0.,0.,0.,0.,0.,0.,0.,0.,0.,0.,0.,0.,0.,0.,0.,0.
 ,0.,0.,0.,0.,0.,0.,0.,0.,0.,0.,0.,0.,0.,0.,0.,0.,0.,0.,0.,0.,0.,0.,0.,
 0.,0.,0.,0.,0.,0.,0.,0.,0.,0.,0.,0.,0.,0.,0.,0.,0.,0.,0.,0.,0.,0.,0.,0
 .,0.,0.,0.,0.,0.,0.,0.,0.,0.,0.,0.,0.,0.,0.,0.,0.,0.,0.,0.,0.,0.,0.,0.
 ,0.,0.,0.,0.,0.,0.,0.,0.,0.,0.,0.,0.,0.,0.,0.,0.,0.,0.,0.,0.,0.,0.,0.,
 0.,0.,0.,0.,0.,0.,0.,0.,0.,0.,0.,0.,0.,0.,0.,0.,0.,0.,0.,0.,0.,0.,0.,0
 .,0.,0.,0.,0.,0.,0.,0.,0.,0.,0.,0.,0.,0.,0.,0.,0.,0.,0.,0.,0.,0.,0.,0.
 ,0.,0.,0.,0.,0.,0.,0.,0.,0.,0.,0.,0.,0.,0.,0.,0.,0.,0.,0.,0.,0.,0.,0.,
 0.,0.,0.,0.,0.,0.,0.,0.,0.,0.,0.,0.,0.,0.,0.,0.,0.,0.,0.,0.,0.,0.,0.,0
 .,0.,0.,0.,0.,0.,0.,0.,0.,0.,0.,0.,0.,0.,0.,0.,0.,0.,0.,0.,0.,0.,0.,0.
 ,0.,0.,0.,0.,0.,0.,0.,0.,0.,0.,0.,0.,0.,0.,0.,0.,0.,0.,0.,0.,0.,0.,0.,
 0.,0.,0.,0.,0.,0.,0.,0.,0.,0.,0.,0.,0.,0.,0.,0.,0.,0.,0.,0.,0.,0.,0.,0
 .,0.,0.,0.,0.,0.,0.,0.,0.,0.,0.,0.,0.,0.,0.,0.,0.,0.,0.,0.,0.,0.,0.,0.
 ,0.,0.,0.,0.,0.,0.,0.,0.,0.,0.,0.,0.,0.,0.,0.,0.,0.,0.,0.,0.,0.,0.,0.,
 0.,0.,0.,0.,0.,0.,0.,0.,0.,0.,0.,0.,0.,0.,0.,0.,0.,0.,0.,0.,0.,0.,0.,0
 .,0.,0.,0.,0.,0.,0.53281132,0.,0.,0.,0.,0.,0.,0.,0.,0.,0.,0.,0.,0.,0.,
 0.,0.,0.,0.,0.,0.,0.,0.,0.,0.,0.,0.,0.,0.,0.,0.,0.,0.,0.,0.,0.,0.,0.,0
 .,0.,0.,0.,0.,0.,0.,0.,0.,0.,0.,0.,0.,0.,0.,0.,0.,0.,0.,0.,0.,0.,0.,0.
 ,0.,0.,0.,0.,0.,0.,0.,0.,0.,0.,0.,0.,0.,0.,0.,0.,0.,0.,0.,0.,0.,0.,0.,
 0.,0.,0.,0.,0.,0.,0.,0.,0.,0.,0.,0.,0.,0.,0.,0.,0.,0.,0.,0.,0.,0.,0.,0
 .,0.,0.,0.,0.,0.,0.,0.,0.,0.,0.,0.,0.,0.,0.,0.,0.,0.,0.,0.,0.,0.,0.,0.
 ,0.,0.,0.,0.,0.,0.,0.,0.,0.,0.,0.,0.,0.,-0.06028455,0.01469392,0.,0.,0
 .,0.,0.,0.,0.,0.,0.,0.,0.,0.,0.,0.,0.,0.,0.,0.,0.,0.,0.,0.,0.,0.,0.,0.
 ,0.,0.,0.,0.,0.,0.,0.,0.,0.,0.,0.,0.,0.,0.,0.,0.,0.,0.,0.,0.,0.,0.,0.,
 0.,0.,0.,0.,0.,0.,0.,0.,0.,0.,0.,0.,0.,0.,0.,0.,0.,0.,0.,0.,0.,0.,0.,0
 .,0.,0.,0.,0.,0.,0.,0.,0.,0.,0.,0.,0.,0.,0.,0.,0.,0.,0.,0.,0.,0.,0.,0.
 ,0.,0.,0.,0.,0.,0.,0.,0.,0.,0.,0.,0.,0.,0.,0.,0.,0.,0.,0.,0.,0.,0.,0.,
 0.,0.,0.,0.,0.,0.,0.,0.,0.,0.,0.,0.,0.,0.,0.,0.,0.,0.,0.,0.,0.,0.,0.,0
 .,0.,-0.08515233,0.01978398,-0.03504666,0.,0.,0.,0.,0.,0.,0.,0.,0.,0.,
 0.,0.,0.,0.,0.,0.,0.,0.,0.,0.,0.,0.,0.,0.,0.,0.,0.,0.,0.,0.,0.,0.,0.,0
 .,0.,0.,0.,0.,0.,0.,0.,0.,0.,0.,0.,0.,0.,0.,0.,0.,0.,0.,0.,0.,0.,0.,0.
 ,0.,0.,0.,0.,0.,0.,0.,0.,0.,0.,0.,0.,0.,0.,0.,0.,0.,0.,0.,0.,0.,0.,0.,
 0.,0.,0.,0.,0.,0.,0.,0.,0.,0.,0.,0.,0.,0.,0.,0.,0.,0.,0.,0.,0.,0.,0.,0
 .,0.,0.,0.,0.,0.,0.,0.,0.,0.,0.,0.,0.,0.,0.,0.,0.,0.,0.,0.,0.,0.,0.,0.
 ,0.,0.,0.,0.,0.,0.,0.,0.,0.,0.,0.,0.,0.,0.,0.,0.,0.,-0.54860601,0.0792
 9539,0.10457257,0.50392965,0.,0.,0.,0.,0.,0.,0.,0.,0.,0.,0.,0.,0.,0.,0
 .,0.,0.,0.,0.,0.,0.,0.,0.,0.,0.,0.,0.,0.,0.,0.,0.,0.,0.,0.,0.,0.,0.,0.
 ,0.,0.,0.,0.,0.,0.,0.,0.,0.,0.,0.,0.,0.,0.,0.,0.,0.,0.,0.,0.,0.,0.,0.,
 0.,0.,0.,0.,0.,0.,0.,0.,0.,0.,0.,0.,0.,0.,0.,0.,0.,0.,0.,0.,0.,0.,0.,0
 .,0.,0.,0.,0.,0.,0.,0.,0.,0.,0.,0.,0.,0.,0.,0.,0.,0.,0.,0.,0.,0.,0.,0.
 ,0.,0.,0.,0.,0.,0.,0.,0.,0.,0.,0.,0.,0.,0.,0.,0.,0.,0.,0.,0.,0.,0.,0.,
 0.,0.,0.,0.,0.,0.,0.,0.,0.,0.,0.,0.,0.,-0.01127435,-0.01556430,-0.0113
 2052,-0.00327073,0.00635382,0.,0.,0.,0.,0.,0.,0.,0.,0.,0.,0.,0.,0.,0.,
 0.,0.,0.,0.,0.,0.,0.,0.,0.,0.,0.,0.,0.,0.,0.,0.,0.,0.,0.,0.,0.,0.,0.,0
 .,0.,0.,0.,0.,0.,0.,0.,0.,0.,0.,0.,0.,0.,0.,0.,0.,0.,0.,0.,0.,0.,0.,0.
 ,0.,0.,0.,0.,0.,0.,0.,0.,0.,0.,0.,0.,0.,0.,0.,0.,0.,0.,0.,0.,0.,0.,0.,
 0.,0.,0.,0.,0.,0.,0.,0.,0.,0.,0.,0.,0.,0.,0.,0.,0.,0.,0.,0.,0.,0.,0.,0
 .,0.,0.,0.,0.,0.,0.,0.,0.,0.,0.,0.,0.,0.,0.,0.,0.,0.,0.,0.,0.,0.,0.,0.
 ,0.,0.,0.,0.,0.,0.,0.,0.,0.,0.,0.,0.,0.,-0.10730580,0.02959547,0.02951
 514,0.08009502,0.02921941,0.11998194||0.,0.,0.,0.,0.,0.,0.,0.,0.,0.,0.
 ,0.,0.,0.,0.,0.,0.,0.,0.,0.,0.,0.,0.,0.,0.,0.,0.,0.,0.,0.,0.,0.,0.,0.,
 0.,0.,0.,0.,0.,0.,0.,0.,0.,0.,0.,0.,0.,0.,0.,0.,0.,0.,0.,0.,0.,0.,0.,0
 .,0.,0.,0.,0.,0.,0.,0.,0.,0.,0.,0.,0.,0.,0.,0.,0.,0.,0.,0.,0.,0.,0.,0.
 ,0.,0.,0.,0.,0.,0.,0.,0.,0.,0.,0.,0.,0.,0.,0.,0.,0.,0.,0.,0.,0.,0.,0.,
 0.,0.,0.,0.,0.,0.,0.,0.,0.,0.,0.,0.,0.,0.,0.,0.,0.,0.,0.,0.,0.,0.,0.,0
 .,0.,0.,0.,0.,0.,0.,0.,0.,0.,0.,0.,0.,0.,0.,0.,0.,0.01828150,-0.032046
 09,-0.03661595,0.02062019,-0.00536914,-0.02692135|||@


 The chemist is a guest at the physicist's table and
 frequently dines well.
                   -- Richard Bersohn
 Job cpu time:       0 days  0 hours 12 minutes  8.0 seconds.
 File lengths (MBytes):  RWF=   1797 Int=      0 D2E=      0 Chk=     17 Scr=      1
 Normal termination of Gaussian 09 at Sun Jan 05 17:13:11 2025.
