 Entering Link 1 = C:\Gaussian\G09W\l1.exe PID=     23728.
  
 Copyright (c) 1988,1990,1992,1993,1995,1998,2003,2009,2013,
            Gaussian, Inc.  All Rights Reserved.
  
 This is part of the Gaussian(R) 09 program.  It is based on
 the Gaussian(R) 03 system (copyright 2003, Gaussian, Inc.),
 the Gaussian(R) 98 system (copyright 1998, Gaussian, Inc.),
 the Gaussian(R) 94 system (copyright 1995, Gaussian, Inc.),
 the Gaussian 92(TM) system (copyright 1992, Gaussian, Inc.),
 the Gaussian 90(TM) system (copyright 1990, Gaussian, Inc.),
 the Gaussian 88(TM) system (copyright 1988, Gaussian, Inc.),
 the Gaussian 86(TM) system (copyright 1986, Carnegie Mellon
 University), and the Gaussian 82(TM) system (copyright 1983,
 Carnegie Mellon University). Gaussian is a federally registered
 trademark of Gaussian, Inc.
  
 This software contains proprietary and confidential information,
 including trade secrets, belonging to Gaussian, Inc.
  
 This software is provided under written license and may be
 used, copied, transmitted, or stored only in accord with that
 written license.
  
 The following legend is applicable only to US Government
 contracts under FAR:
  
                    RESTRICTED RIGHTS LEGEND
  
 Use, reproduction and disclosure by the US Government is
 subject to restrictions as set forth in subparagraphs (a)
 and (c) of the Commercial Computer Software - Restricted
 Rights clause in FAR 52.227-19.
  
 Gaussian, Inc.
 340 Quinnipiac St., Bldg. 40, Wallingford CT 06492
  
  
 ---------------------------------------------------------------
 Warning -- This program may not be used in any manner that
 competes with the business of Gaussian, Inc. or will provide
 assistance to any competitor of Gaussian, Inc.  The licensee
 of this program is prohibited from giving any competitor of
 Gaussian, Inc. access to this program.  By using this program,
 the user acknowledges that Gaussian, Inc. is engaged in the
 business of creating and licensing software in the field of
 computational chemistry and represents and warrants to the
 licensee that it is not a competitor of Gaussian, Inc. and that
 it will not use this program in any manner prohibited above.
 ---------------------------------------------------------------
  

 Cite this work as:
 Gaussian 09, Revision D.01,
 M. J. Frisch, G. W. Trucks, H. B. Schlegel, G. E. Scuseria, 
 M. A. Robb, J. R. Cheeseman, G. Scalmani, V. Barone, B. Mennucci, 
 G. A. Petersson, H. Nakatsuji, M. Caricato, X. Li, H. P. Hratchian, 
 A. F. Izmaylov, J. Bloino, G. Zheng, J. L. Sonnenberg, M. Hada, 
 M. Ehara, K. Toyota, R. Fukuda, J. Hasegawa, M. Ishida, T. Nakajima, 
 Y. Honda, O. Kitao, H. Nakai, T. Vreven, J. A. Montgomery, Jr., 
 J. E. Peralta, F. Ogliaro, M. Bearpark, J. J. Heyd, E. Brothers, 
 K. N. Kudin, V. N. Staroverov, T. Keith, R. Kobayashi, J. Normand, 
 K. Raghavachari, A. Rendell, J. C. Burant, S. S. Iyengar, J. Tomasi, 
 M. Cossi, N. Rega, J. M. Millam, M. Klene, J. E. Knox, J. B. Cross, 
 V. Bakken, C. Adamo, J. Jaramillo, R. Gomperts, R. E. Stratmann, 
 O. Yazyev, A. J. Austin, R. Cammi, C. Pomelli, J. W. Ochterski, 
 R. L. Martin, K. Morokuma, V. G. Zakrzewski, G. A. Voth, 
 P. Salvador, J. J. Dannenberg, S. Dapprich, A. D. Daniels, 
 O. Farkas, J. B. Foresman, J. V. Ortiz, J. Cioslowski, 
 and D. J. Fox, Gaussian, Inc., Wallingford CT, 2013.
 
 ******************************************
 Gaussian 09:  IA32W-G09RevD.01 24-Apr-2013
                09-Mar-2026 
 ******************************************
 %nprocshared=4
 Will use up to    4 processors via shared memory.
 %mem=1GB
 %chk=C:\Users\User\Desktop\IMRG\Thesis\Pending Journal Work\Pt doped MoS2\Pt-MoS
 2_freq.chk
 ------------------------------------------------
 # freq pm6 guess=huckel scf=qc geom=connectivity
 ------------------------------------------------
 1/10=4,30=1,38=1,57=2/1,3;
 2/12=2,17=6,18=5,40=1/2;
 3/5=2,16=1,25=1,41=3900000,71=2,140=1/1,2,3;
 4/11=4,35=1/1;
 5/5=2,8=3,35=1,38=5,98=1/8;
 8/6=4,10=90,11=11/1;
 11/6=1,8=1,9=11,15=111,16=1/1,2,10;
 10/6=1/2;
 6/7=2,8=2,9=2,10=2,18=1,28=1/1;
 7/8=1,10=1,25=1/1,2,3,16;
 1/10=4,30=1/3;
 99//99;
 ------------
 Pt-MoS2_freq
 ------------
 Symbolic Z-matrix:
 Charge =  0 Multiplicity = 1
 Mo                   -1   -0.95575   5.09819  -0.01251 
 S                    -1    0.88657   5.1319    1.55155 
 S                    -1    0.88577   5.05263  -1.57721 
 Mo                   -1   -3.72375   3.51244   0.02837 
 Mo                   -1   -6.49176   1.9267    0.06925 
 Mo                   -1   -9.25977   0.34095   0.11013 
 S                    -1   -1.88145   3.54615   1.59242 
 S                    -1   -4.64943   1.96043   1.63329 
 S                    -1   -7.41745   0.37466   1.67419 
 S                    -1   -1.88223   3.46685  -1.53636 
 S                    -1   -4.65019   1.8811   -1.49551 
 S                    -1   -7.41824   0.29539  -1.45457 
 Mo                   -1    1.80201   3.49466   0.02741 
 Mo                   -1    4.55976   1.89113   0.06734 
 Mo                   -1    7.31752   0.2876    0.10727 
 S                    -1    3.64432   3.52837   1.59148 
 S                    -1    6.40208   1.92484   1.63141 
 S                    0     9.15983   0.32131   1.67133 
 S                    -1    3.64353   3.4491   -1.53729 
 S                    -1    6.40128   1.84557  -1.49736 
 S                    0     9.15904   0.24204  -1.45743 
 Mo                   -1   -0.96608   1.90892   0.06825 
 Mo                   -1    1.79176   0.30538   0.10822 
 Mo                   -1    4.54951  -1.29815   0.14815 
 Mo                   -1   -3.73416   0.32316   0.10936 
 Mo                   -1    1.7815   -2.88389   0.18903 
 Mo                   -1   -6.50201  -1.26258   0.15005 
 Mo                   -1   -3.74426  -2.86611   0.18998 
 Mo                   -1   -0.9865   -4.46964   0.2299 
 S                    -1    0.87631   1.94263   1.63237 
 S                    -1    3.63407   0.33909   1.67228 
 S                    -1    6.39183  -1.26444   1.71221 
 S                    -1   -1.89146   0.35673   1.67337 
 S                    -1    0.86605  -1.24668   1.71318 
 S                    -1    3.62382  -2.85019   1.75309 
 S                    -1   -4.6597   -1.22886   1.71413 
 S                    -1   -1.90195  -2.8324    1.75404 
 S                    -1    0.85582  -4.43593   1.79397 
 S                    -1    0.87556   1.86337  -1.49637 
 S                    -1    3.63328   0.25982  -1.45648 
 S                    -1    6.39103  -1.34371  -1.41655 
 S                    -1   -1.89245   0.27759  -1.45553 
 S                    -1    0.86536  -1.32597  -1.4155 
 S                    -1    3.62303  -2.92946  -1.37567 
 S                    -1   -4.66048  -1.30814  -1.41466 
 S                    -1   -1.90273  -2.91172  -1.37467 
 S                    -1    0.85502  -4.5152   -1.3348 
 Pt                   -1   -0.97641  -1.2801    0.14872 
 

 GradGradGradGradGradGradGradGradGradGradGradGradGradGradGradGradGradGrad
 Berny optimization.
 Initialization pass.
 Trust Radius=3.00D-01 FncErr=1.00D-07 GrdErr=1.00D-07
 Number of steps in this run=      2 maximum allowed number of steps=      2.
 GradGradGradGradGradGradGradGradGradGradGradGradGradGradGradGradGradGrad

                          Input orientation:                          
 ---------------------------------------------------------------------
 Center     Atomic      Atomic             Coordinates (Angstroms)
 Number     Number       Type             X           Y           Z
 ---------------------------------------------------------------------
      1         42           0       -0.955749    5.098189   -0.012511
      2         16           0        0.886569    5.131896    1.551553
      3         16           0        0.885774    5.052626   -1.577212
      4         42           0       -3.723754    3.512444    0.028368
      5         42           0       -6.491760    1.926698    0.069247
      6         42           0       -9.259766    0.340953    0.110127
      7         16           0       -1.881455    3.546150    1.592422
      8         16           0       -4.649428    1.960429    1.633294
      9         16           0       -7.417448    0.374659    1.674191
     10         16           0       -1.882232    3.466854   -1.536358
     11         16           0       -4.650188    1.881105   -1.495511
     12         16           0       -7.418243    0.295389   -1.454574
     13         42           0        1.802006    3.494659    0.027415
     14         42           0        4.559761    1.891129    0.067341
     15         42           0        7.317516    0.287598    0.107267
     16         16           0        3.644324    3.528366    1.591479
     17         16           0        6.402079    1.924835    1.631405
     18         16           0        9.159834    0.321305    1.671331
     19         16           0        3.643529    3.449096   -1.537286
     20         16           0        6.401284    1.845566   -1.497359
     21         16           0        9.159039    0.242035   -1.457433
     22         42           0       -0.966081    1.908921    0.068254
     23         42           0        1.791755    0.305383    0.108220
     24         42           0        4.549510   -1.298147    0.148146
     25         42           0       -3.734163    0.323159    0.109360
     26         42           0        1.781505   -2.883893    0.189025
     27         42           0       -6.502011   -1.262578    0.150053
     28         42           0       -3.744256   -2.866108    0.189979
     29         42           0       -0.986501   -4.469638    0.229905
     30         16           0        0.876310    1.942634    1.632368
     31         16           0        3.634073    0.339090    1.672285
     32         16           0        6.391828   -1.264441    1.712211
     33         16           0       -1.891457    0.356734    1.673371
     34         16           0        0.866051   -1.246683    1.713184
     35         16           0        3.623822   -2.850186    1.753090
     36         16           0       -4.659700   -1.228859    1.714125
     37         16           0       -1.901948   -2.832402    1.754037
     38         16           0        0.855817   -4.435932    1.793969
     39         16           0        0.875558    1.863371   -1.496366
     40         16           0        3.633278    0.259820   -1.456480
     41         16           0        6.391033   -1.343710   -1.416554
     42         16           0       -1.892447    0.277585   -1.455526
     43         16           0        0.865357   -1.325972   -1.415500
     44         16           0        3.623027   -2.929456   -1.375675
     45         16           0       -4.660478   -1.308135   -1.414660
     46         16           0       -1.902733   -2.911721   -1.374668
     47         16           0        0.855022   -4.515202   -1.334795
     48         78           0       -0.976410   -1.280097    0.148718
 ---------------------------------------------------------------------
                    Distance matrix (angstroms):
                    1          2          3          4          5
     1  Mo   0.000000
     2  S    2.416934   0.000000
     3  S    2.416934   3.129769   0.000000
     4  Mo   3.190316   5.118379   5.118379   0.000000
     5  Mo   6.380632   8.179869   8.179869   3.190316   0.000000
     6  Mo   9.570948  11.312779  11.312779   6.380632   3.190316
     7  S    2.416934   3.190332   4.469184   2.416913   5.118359
     8  S    5.118348   6.380607   7.106863   2.416901   2.416934
     9  S    8.179869   9.570948  10.069682   5.118379   2.416934
    10  S    2.416968   4.469208   3.190329   2.416951   5.118379
    11  S    5.118379   7.106892   6.380603   2.416972   2.417009
    12  S    8.179869  10.069682   9.570948   5.118379   2.416934
    13  Mo   3.190316   2.416934   2.416934   5.525789   8.440783
    14  Mo   6.380632   5.118379   5.118379   8.440783  11.051579
    15  Mo   9.570948   8.179869   8.179869  11.502848  13.906265
    16  S    5.118379   3.190316   4.469180   7.532075  10.374137
    17  S    8.179869   6.380632   7.106892  10.374137  12.988126
    18  S   11.312779   9.570948  10.069682  13.374212  15.815067
    19  S    5.118379   4.469180   3.190316   7.532075  10.374137
    20  S    8.179869   7.106892   6.380632  10.374137  12.988126
    21  S   11.312779  10.069682   9.570948  13.374212  15.815067
    22  Mo   3.190308   4.002507   4.002475   3.190241   5.525708
    23  Mo   5.525789   5.118379   5.118379   6.380632   8.440783
    24  Mo   8.440783   7.532075   7.532075   9.570948  11.502848
    25  Mo   5.525881   6.823126   6.823211   3.190330   3.190186
    26  Mo   8.440783   8.179869   8.179869   8.440783   9.570948
    27  Mo   8.440783   9.871404   9.871404   5.525789   3.190316
    28  Mo   8.440783   9.341654   9.341654   6.380632   5.525789
    29  Mo   9.570948   9.871404   9.871404   8.440783   8.440783
    30  S    4.002449   3.190302   4.469177   5.118370   7.532069
    31  S    6.823052   5.525789   6.350575   8.179869  10.374137
    32  S    9.871404   8.440783   9.002348  11.312779  13.374212
    33  S    5.118511   5.525798   6.350646   4.002731   5.118671
    34  S    6.823078   6.380660   7.106926   6.823065   8.179869
    35  S    9.341654   8.440783   9.002348   9.871404  11.312779
    36  S    7.532069   8.440778   9.002346   5.118371   4.002450
    37  S    8.179869   8.440786   9.002349   6.823047   6.823043
    38  S    9.871404   9.570948  10.069682   9.341654   9.871404
    39  S    4.002444   4.469137   3.190296   5.118391   7.532100
    40  S    6.823052   6.350575   5.525789   8.179869  10.374137
    41  S    9.871404   9.002348   8.440783  11.312779  13.374212
    42  S    5.118390   6.350574   5.525788   4.002491   5.118417
    43  S    6.823097   7.106892   6.380681   6.823120   8.179945
    44  S    9.341654   9.002348   8.440783   9.871404  11.312779
    45  S    7.532067   9.002342   8.440772   5.118375   4.002464
    46  S    8.179909   9.002375   8.440831   6.823087   6.823076
    47  S    9.871404  10.069682   9.570948   9.341654   9.871404
    48  Pt   6.380357   6.822923   6.822752   5.525471   6.380356
                    6          7          8          9         10
     6  Mo   0.000000
     7  S    8.179851   0.000000
     8  S    5.118394   3.190276   0.000000
     9  S    2.416934   6.380616   3.190341   0.000000
    10  S    8.179864   3.129785   4.469160   7.106892   0.000000
    11  S    5.118432   4.469182   3.129810   4.469241   3.190274
    12  S    2.416934   7.106873   4.469186   3.129769   6.380619
    13  Mo  11.502848   4.002472   6.823028   9.871404   4.002470
    14  Mo  13.906265   6.823066   9.341637  12.179293   6.823052
    15  Mo  16.577368   9.871419  12.179281  14.818300   9.871399
    16  S   13.374212   5.525807   8.440764  11.502848   6.350588
    17  S   15.815067   8.440800  11.051564  13.906265   9.002352
    18  S   18.485654  11.502865  13.906253  16.577368  11.921030
    19  S   13.374212   6.350585   9.002324  11.921030   5.525789
    20  S   15.815067   9.002361  11.486184  14.254110   8.440778
    21  S   18.485654  11.921044  14.254095  16.870228  11.502840
    22  Mo   8.440704   2.416923   4.002380   6.822985   2.416871
    23  Mo  11.051579   5.118388   6.823040   9.341654   5.118371
    24  Mo  13.906265   8.179882   9.871396  12.179293   8.179859
    25  Mo   5.525631   4.002459   2.416762   4.002241   4.002606
    26  Mo  11.502848   7.532081   8.179869   9.871404   7.532058
    27  Mo   3.190316   6.823037   4.002480   2.416934   6.823039
    28  Mo   6.380632   6.823044   5.118394   5.118379   6.823033
    29  Mo   9.570948   8.179869   7.532085   8.179869   8.179849
    30  S   10.374133   3.190318   5.525767   8.440777   4.469186
    31  S   12.988126   6.380648   8.440773  11.051579   7.106892
    32  S   15.815067   9.570963  11.502841  13.906265  10.069678
    33  S    7.532328   3.190459   3.190588   5.526020   4.469373
    34  S   10.374129   5.525814   6.380632   8.440772   6.350592
    35  S   13.374212   8.440794   9.570948  11.502848   9.002338
    36  S    5.118371   5.525773   3.190328   3.190304   6.350566
    37  S    8.179859   6.380632   5.525799   6.380623   7.106878
    38  S   11.312779   8.440789   8.440792   9.570948   9.002334
    39  S   10.374168   4.469170   6.350564   9.002369   3.190323
    40  S   12.988126   7.106902   9.002333  11.486202   6.380619
    41  S   15.815067  10.069694  11.921019  14.254110   9.570935
    42  S    7.532109   4.469186   4.469197   6.350606   3.190309
    43  S   10.374212   6.350602   7.106929   9.002399   5.525851
    44  S   13.374212   9.002355  10.069677  11.921030   8.440763
    45  S    5.118390   6.350559   4.469190   4.469192   5.525757
    46  S    8.179879   7.106910   6.350592   7.106892   6.380657
    47  S   11.312779   9.002350   9.002351  10.069682   8.440758
    48  Pt   8.440573   5.118207   5.118206   6.822922   5.117962
                   11         12         13         14         15
    11  S    0.000000
    12  S    3.190344   0.000000
    13  Mo   6.823025   9.871404   0.000000
    14  Mo   9.341615  12.179293   3.190316   0.000000
    15  Mo  12.179249  14.818300   6.380632   3.190316   0.000000
    16  S    9.002328  11.921030   2.416934   2.416934   5.118379
    17  S   11.486171  14.254110   5.118379   2.416934   2.416934
    18  S   14.254072  16.870228   8.179869   5.118379   2.416934
    19  S    8.440739  11.502848   2.416934   2.416934   5.118379
    20  S   11.051529  13.906265   5.118379   2.416934   2.416934
    21  S   13.906212  16.577368   8.179869   5.118379   2.416934
    22  Mo   4.002346   6.822967   3.190383   5.525871   8.440864
    23  Mo   6.823011   9.341654   3.190316   3.190316   5.525789
    24  Mo   9.871358  12.179293   5.525789   3.190316   3.190316
    25  Mo   2.417003   4.002387   6.380776   8.440941  11.051737
    26  Mo   8.179825   9.871404   6.380632   5.525789   6.380632
    27  Mo   4.002483   2.416934   9.570948  11.502848  13.906265
    28  Mo   5.118361   5.118379   8.440783   9.570948  11.502848
    29  Mo   7.532038   8.179869   8.440783   8.440783   9.570948
    30  S    6.350558   9.002346   2.416934   4.002471   6.823064
    31  S    9.002317  11.486202   4.002460   2.416934   4.002460
    32  S   11.920992  14.254110   6.823052   4.002460   2.416934
    33  S    4.469465   6.350840   5.118341   6.822896   9.341448
    34  S    7.106875   9.002344   5.118413   5.118413   6.823078
    35  S   10.069646  11.921030   6.823052   5.118379   5.118379
    36  S    4.469197   4.469177   8.179869   9.871408  12.179300
    37  S    6.350553   7.106882   7.532078   8.179876   9.871412
    38  S    9.002317  10.069682   8.179869   7.532075   8.179869
    39  S    5.525774   8.440820   2.416881   4.002412   6.823014
    40  S    8.440729  11.051579   4.002460   2.416934   4.002460
    41  S   11.502792  13.906265   6.823052   4.002460   2.416934
    42  S    3.190299   5.525825   5.118365   6.823022   9.341619
    43  S    6.380672   8.440875   5.118379   5.118318   6.822961
    44  S    9.570891  11.502848   6.823052   5.118379   5.118379
    45  S    3.190281   3.190322   8.179860   9.871394  12.179284
    46  S    5.525784   6.380658   7.532107   8.179889   9.871412
    47  S    8.440729   9.570948   8.179869   7.532075   8.179869
    48  Pt   5.117942   6.822750   5.525631   6.380633   8.440888
                   16         17         18         19         20
    16  S    0.000000
    17  S    3.190316   0.000000
    18  S    6.380632   3.190316   0.000000
    19  S    3.129769   4.469180   7.106892   0.000000
    20  S    4.469180   3.129769   4.469180   3.190316   0.000000
    21  S    7.106892   4.469180   3.129769   6.380632   3.190316
    22  Mo   5.118462   7.532163  10.374225   5.118438   7.532146
    23  Mo   4.002460   5.118379   7.532075   4.002460   5.118379
    24  Mo   5.118379   4.002460   5.118379   5.118379   4.002460
    25  Mo   8.179982  10.374266  12.988261   8.180053  10.374322
    26  Mo   6.823052   6.823052   8.179869   6.823052   6.823052
    27  Mo  11.312779  13.374212  15.815067  11.312779  13.374212
    28  Mo   9.871404  11.312779  13.374212   9.871404  11.312779
    29  Mo   9.341654   9.871404  11.312779   9.341654   9.871404
    30  S    3.190316   5.525797   8.440793   4.469187   6.350586
    31  S    3.190316   3.190316   5.525789   4.469180   4.469180
    32  S    5.525789   3.190316   3.190316   6.350575   4.469180
    33  S    6.380503   8.440583  11.051347   7.106834   9.002205
    34  S    5.525821   6.380660   8.440804   6.350612   7.106926
    35  S    6.380632   5.525789   6.380632   7.106892   6.350575
    36  S    9.570948  11.502851  13.906270  10.069685  11.921036
    37  S    8.440789   9.570956  11.502857   9.002352  10.069688
    38  S    8.440783   8.440783   9.570948   9.002348   9.002348
    39  S    4.469123   6.350525   9.002306   3.190276   5.525755
    40  S    4.469180   4.469180   6.350575   3.190316   3.190316
    41  S    6.350575   4.469180   4.469180   5.525789   3.190316
    42  S    7.106873   9.002318  11.486168   6.380611   8.440751
    43  S    6.350526   7.106805   9.002244   5.525789   6.380583
    44  S    7.106892   6.350575   7.106892   6.380632   5.525789
    45  S   10.069675  11.921022  14.254102   9.570936  11.502836
    46  S    9.002366  10.069690  11.921030   8.440821   9.570973
    47  S    9.002348   9.002348  10.069682   8.440783   8.440783
    48  Pt   6.823053   8.179978  10.374308   6.822881   8.179835
                   21         22         23         24         25
    21  S    0.000000
    22  Mo  10.374212   0.000000
    23  Mo   7.532075   3.190391   0.000000
    24  Mo   5.118379   6.380707   3.190316   0.000000
    25  Mo  12.988306   3.190393   5.525947   8.440935   0.000000
    26  Mo   8.179869   5.525837   3.190316   3.190316   6.380762
    27  Mo  15.815067   6.380565   8.440783  11.051579   3.190172
    28  Mo  13.374212   5.525755   6.380632   8.440783   3.190302
    29  Mo  11.312779   6.380640   5.525789   6.380632   5.525856
    30  S    9.002361   2.417022   2.416952   5.118396   5.118468
    31  S    6.350575   5.118467   2.416934   2.416934   7.532191
    32  S    4.469180   8.179954   5.118379   2.416934  10.374261
    33  S   11.486015   2.417024   4.002298   6.822829   2.417194
    34  S    9.002374   4.002542   2.416970   4.002482   5.118460
    35  S    7.106892   6.823122   4.002460   2.416934   8.179971
    36  S   14.254117   5.118337   6.823057   9.341662   2.416744
    37  S   11.921038   5.118384   5.118384   6.823060   4.002442
    38  S   10.069682   6.823090   5.118379   5.118379   6.823106
    39  S    8.440753   2.416970   2.416908   5.118354   5.118607
    40  S    5.525789   5.118443   2.416934   2.416934   7.532268
    41  S    3.190316   8.179939   5.118379   2.416934  10.374318
    42  S   11.051543   2.416881   4.002427   6.823014   2.417202
    43  S    8.440709   4.002527   2.416870   4.002343   5.118634
    44  S    6.380632   6.823103   4.002460   2.416934   8.180042
    45  S   13.906254   5.118305   6.823043   9.341646   2.416985
    46  S   11.502862   5.118391   5.118395   6.823051   4.002614
    47  S    9.570948   6.823072   5.118379   5.118379   6.823191
    48  Pt  10.374195   3.190049   3.190317   5.525949   3.190170
                   26         27         28         29         30
    26  Mo   0.000000
    27  Mo   8.440783   0.000000
    28  Mo   5.525789   3.190316   0.000000
    29  Mo   3.190316   6.380632   3.190316   0.000000
    30  S    5.118396   8.179869   6.823058   6.823064   0.000000
    31  S    4.002460  10.374137   8.179869   6.823052   3.190330
    32  S    5.118379  12.988126  10.374137   8.179869   6.380646
    33  S    5.118162   5.118581   4.002502   5.118243   3.190187
    34  S    2.416934   7.532063   5.118361   4.002438   3.190358
    35  S    2.416934  10.374137   7.532075   5.118379   5.525805
    36  S    6.823063   2.416934   2.416950   5.118394   6.380632
    37  S    4.002467   5.118368   2.416922   2.416934   5.525802
    38  S    2.416934   8.179869   5.118379   2.416934   6.380646
    39  S    5.118379   8.179900   6.823079   6.823070   3.129738
    40  S    4.002460  10.374137   8.179869   6.823052   4.469196
    41  S    5.118379  12.988126  10.374137   8.179869   7.106909
    42  S    5.118341   5.118405   4.002461   5.118354   4.469171
    43  S    2.416805   7.532136   5.118409   4.002421   4.469162
    44  S    2.416934  10.374137   7.532075   5.118379   6.350593
    45  S    6.823046   2.416949   2.416941   5.118379   7.106891
    46  S    4.002439   5.118379   2.416900   2.416866   6.350599
    47  S    2.416934   8.179869   5.118379   2.416934   7.106909
    48  Pt   3.190592   5.525629   3.190315   3.190591   4.002472
                   31         32         33         34         35
    31  S    0.000000
    32  S    3.190316   0.000000
    33  S    5.525558   8.440528   0.000000
    34  S    3.190344   5.525805   3.190044   0.000000
    35  S    3.190316   3.190316   6.380360   3.190316   0.000000
    36  S    8.440787  11.051586   3.190444   5.525780   8.440792
    37  S    6.380641   8.440792   3.190173   3.190297   5.525799
    38  S    5.525789   6.380632   5.525550   3.190288   3.190316
    39  S    4.469137   7.106857   4.469179   4.469199   6.350555
    40  S    3.129769   4.469180   6.350437   4.469213   4.469180
    41  S    4.469180   3.129769   9.002154   6.350598   4.469180
    42  S    6.350544   9.002312   3.129898   4.469164   7.106856
    43  S    4.469076   6.350453   4.469076   3.129689   4.469041
    44  S    4.469180   4.469180   7.106705   4.469193   3.129769
    45  S    9.002342  11.486196   4.469362   6.350567   9.002344
    46  S    7.106892   9.002339   4.469168   4.469155   6.350549
    47  S    6.350575   7.106892   6.350430   4.469173   4.469180
    48  Pt   5.118551   7.532309   2.416835   2.417298   5.118723
                   36         37         38         39         40
    36  S    0.000000
    37  S    3.190320   0.000000
    38  S    6.380644   3.190325   0.000000
    39  S    7.106914   6.350586   7.106892   0.000000
    40  S    9.002355   7.106897   6.350575   3.190296   0.000000
    41  S   11.486211   9.002355   7.106892   6.380612   3.190316
    42  S    4.469201   4.469162   6.350545   3.190335   5.525754
    43  S    6.350610   4.469147   4.469076   3.190385   3.190267
    44  S    9.002359   6.350581   4.469180   5.525789   3.190316
    45  S    3.129789   4.469174   7.106892   6.380660   8.440772
    46  S    4.469176   3.129711   4.469125   5.525868   6.380657
    47  S    7.106907   4.469182   3.129769   6.380652   5.525789
    48  Pt   4.002469   2.417296   4.002899   4.002184   5.118323
                   41         42         43         44         45
    41  S    0.000000
    42  S    8.440744   0.000000
    43  S    5.525705   3.190373   0.000000
    44  S    3.190316   6.380592   3.190219   0.000000
    45  S   11.051569   3.190326   5.525864   8.440774   0.000000
    46  S    8.440792   3.190348   3.190390   5.525789   3.190336
    47  S    6.380632   5.525755   3.190267   3.190316   6.380626
    48  Pt   7.532153   2.416423   2.416814   5.118494   4.002162
                   46         47         48
    46  S    0.000000
    47  S    3.190290   0.000000
    48  Pt   2.416812   4.002606   0.000000
 Stoichiometry    Mo15PtS32
 Framework group  C1[X(Mo15PtS32)]
 Deg. of freedom   138
 Full point group                 C1      NOp   1
 Largest Abelian subgroup         C1      NOp   1
 Largest concise Abelian subgroup C1      NOp   1
                         Standard orientation:                         
 ---------------------------------------------------------------------
 Center     Atomic      Atomic             Coordinates (Angstroms)
 Number     Number       Type             X           Y           Z
 ---------------------------------------------------------------------
      1         42           0       -0.759568    4.834659   -0.000011
      2         16           0        1.082355    4.829551    1.564873
      3         16           0        1.082355    4.829534   -1.564896
      4         42           0       -3.526882    3.247181   -0.000002
      5         42           0       -6.294197    1.659703    0.000007
      6         42           0       -9.061512    0.072226    0.000016
      7         16           0       -1.684978    3.242074    1.564872
      8         16           0       -4.452260    1.654621    1.564874
      9         16           0       -7.219589    0.067118    1.564900
     10         16           0       -1.684960    3.242030   -1.564913
     11         16           0       -4.452225    1.654550   -1.564936
     12         16           0       -7.219589    0.067101   -1.564869
     13         42           0        1.998886    3.231833   -0.000002
     14         42           0        4.757339    1.629007    0.000007
     15         42           0        7.515792    0.026181    0.000016
     16         16           0        3.840808    3.226725    1.564882
     17         16           0        6.599262    1.623899    1.564891
     18         16           0        9.357715    0.021074    1.564900
     19         16           0        3.840808    3.226708   -1.564887
     20         16           0        6.599262    1.623882   -1.564878
     21         16           0        9.357715    0.021056   -1.564869
     22         42           0       -0.768511    1.644363   -0.000033
     23         42           0        1.990024    0.041529    0.000016
     24         42           0        4.748478   -1.561297    0.000025
     25         42           0       -3.535902    0.056864    0.000202
     26         42           0        1.981163   -3.148775    0.000034
     27         42           0       -6.303058   -1.530600    0.000025
     28         42           0       -3.544605   -3.133426    0.000034
     29         42           0       -0.786152   -4.736252    0.000043
     30         16           0        1.073486    1.639262    1.564901
     31         16           0        3.831947    0.036422    1.564900
     32         16           0        6.590400   -1.566404    1.564909
     33         16           0       -1.693590    0.051626    1.565029
     34         16           0        1.064616   -1.551084    1.564928
     35         16           0        3.823086   -3.153882    1.564918
     36         16           0       -4.461143   -1.535695    1.564917
     37         16           0       -1.702692   -3.138534    1.564912
     38         16           0        1.055771   -4.741359    1.564927
     39         16           0        1.073528    1.639250   -1.564837
     40         16           0        3.831947    0.036404   -1.564869
     41         16           0        6.590400   -1.566422   -1.564860
     42         16           0       -1.693786    0.051733   -1.564869
     43         16           0        1.064716   -1.551123   -1.564761
     44         16           0        3.823086   -3.153899   -1.564851
     45         16           0       -4.461126   -1.535719   -1.564872
     46         16           0       -1.702682   -3.138602   -1.564799
     47         16           0        1.055771   -4.741377   -1.564842
     48         78           0       -0.777450   -1.545673   -0.000350
 ---------------------------------------------------------------------
 Rotational constants (GHZ):      0.0262996      0.0093459      0.0074015
 Standard basis: VSTO-6G (5D, 7F)
 There are   480 symmetry adapted cartesian basis functions of A   symmetry.
 There are   432 symmetry adapted basis functions of A   symmetry.
   432 basis functions,  2880 primitive gaussians,   480 cartesian basis functions
   146 alpha electrons      146 beta electrons
       nuclear repulsion energy      4102.8779538941 Hartrees.
 Integral buffers will be    262144 words long.
 Regular integral format.
 Two-electron integral symmetry is turned off.
 Do NDO integrals.
 One-electron integrals computed using PRISM.
 NBasis=   432 RedAO= F EigKep=  0.00D+00  NBF=   432
 NBsUse=   432 1.00D-04 EigRej=  0.00D+00 NBFU=   432
 Projected New-EHT guess.
 Enter ItEHT:  IZDO=4 IZDPar=0 Conv= 1.00D-06 N=  272
 It=   1                  EEH= -116.454192744     EQH= 0.000000000000E+00 EH= -116.454192744    
 Keep J ints in memory in canonical form, NReq=6065351.
 Gradient too large for Newton-Raphson or scaled steepest descent --
 use steepest descent instead.
 Gradient too large for Newton-Raphson or scaled steepest descent --
 use steepest descent instead.
     Accept linear search using points  1 and  2.
 Gradient too large for Newton-Raphson or scaled steepest descent --
 use steepest descent instead.
     Minimum is close to point  2 DX=  9.73D-03 DF= -5.63D-01 DXR=  4.64D-02 DFR=  2.16D-03 which will be used.
 Gradient too large for Newton-Raphson or scaled steepest descent --
 use steepest descent instead.
     Minimum is close to point  2 DX=  1.66D-02 DF= -1.14D+00 DXR=  7.68D-02 DFR=  5.93D-03 which will be used.
 Gradient too large for Newton-Raphson or scaled steepest descent --
 use steepest descent instead.
 Gradient too large for Newton-Raphson or scaled steepest descent --
 use steepest descent instead.
     Accept linear search using points  2 and  3.
 Gradient too large for Newton-Raphson or scaled steepest descent --
 use steepest descent instead.
     Minimum is close to point  4 DX=  1.94D-02 DF= -6.62D-02 DXR=  3.74D-02 DFR=  1.19D-03 which will be used.
 Gradient too large for Newton-Raphson -- use scaled steepest descent instead.
     Note:  rotation exceeds Pi/2.
     Minimum is close to point  3 DX=  2.04D-02 DF= -3.25D-02 DXR=  4.86D-02 DFR=  1.14D-03 which will be used.
 Gradient too large for Newton-Raphson -- use scaled steepest descent instead.
     Accept linear search using points  1 and  2.
 Gradient too large for Newton-Raphson -- use scaled steepest descent instead.
 Gradient too large for Newton-Raphson -- use scaled steepest descent instead.
     Accept linear search using points  1 and  2.
 Gradient too large for Newton-Raphson -- use scaled steepest descent instead.
     Accept linear search using points  4 and  5.
 Gradient too large for Newton-Raphson -- use scaled steepest descent instead.
     Accept linear search using points  1 and  2.
 Gradient too large for Newton-Raphson -- use scaled steepest descent instead.
     Accept linear search using points  1 and  2.
 Gradient too large for Newton-Raphson -- use scaled steepest descent instead.
     Minimum is close to point  4 DX=  6.91D-03 DF= -3.24D-04 DXR=  1.36D-02 DFR=  1.62D-04 which will be used.
 Gradient too large for Newton-Raphson -- use scaled steepest descent instead.
     Accept linear search using points  1 and  2.
 Gradient too large for Newton-Raphson -- use scaled steepest descent instead.
     Minimum is close to point  4 DX=  1.15D-01 DF= -1.23D-02 DXR=  8.14D-02 DFR=  5.31D-03 which will be used.
 Gradient too large for Newton-Raphson -- use scaled steepest descent instead.
     Minimum is close to point  3 DX= -1.17D-02 DF= -4.59D-03 DXR=  6.22D-02 DFR=  3.89D-03 which will be used.
 Gradient too large for Newton-Raphson -- use scaled steepest descent instead.
     Accept linear search using points  1 and  2.
 Gradient too large for Newton-Raphson -- use scaled steepest descent instead.
     Accept linear search using points  1 and  2.
 Gradient too large for Newton-Raphson -- use scaled steepest descent instead.
     Minimum is close to point  4 DX=  8.93D-02 DF= -9.73D-04 DXR=  2.56D-02 DFR=  7.16D-04 which will be used.
 Gradient too large for Newton-Raphson -- use scaled steepest descent instead.
     Accept linear search using points  1 and  2.
 Gradient too large for Newton-Raphson -- use scaled steepest descent instead.
     Accept linear search using points  1 and  2.
 Gradient too large for Newton-Raphson -- use scaled steepest descent instead.
     Accept linear search using points  1 and  2.
 Gradient too large for Newton-Raphson -- use scaled steepest descent instead.
 Gradient too large for Newton-Raphson -- use scaled steepest descent instead.
 Gradient too large for Newton-Raphson -- use scaled steepest descent instead.
     Accept linear search using points  2 and  3.
     Minimum is close to point  3 DX= -6.73D-02 DF= -1.24D-04 DXR=  3.31D-02 DFR=  1.10D-03 which will be used.
 Gradient too large for Newton-Raphson -- use scaled steepest descent instead.
     Minimum is close to point  3 DX=  8.41D-04 DF= -4.22D-07 DXR=  2.10D-03 DFR=  4.40D-06 which will be used.
 Gradient too large for Newton-Raphson -- use scaled steepest descent instead.
     Minimum is close to point  3 DX=  8.45D-02 DF= -1.52D-04 DXR=  4.48D-02 DFR=  2.02D-03 which will be used.
 Gradient too large for Newton-Raphson -- use scaled steepest descent instead.
     Minimum is close to point  3 DX=  2.53D-02 DF= -2.10D-04 DXR=  5.95D-02 DFR=  3.55D-03 which will be used.
 Gradient too large for Newton-Raphson -- use scaled steepest descent instead.
 Gradient too large for Newton-Raphson -- use scaled steepest descent instead.
     Minimum is close to point  3 DX= -5.91D-03 DF= -1.31D-05 DXR=  1.50D-02 DFR=  2.25D-04 which will be used.
 Gradient too large for Newton-Raphson -- use scaled steepest descent instead.
     Accept linear search using points  2 and  3.
     Minimum is close to point  3 DX= -1.34D-01 DF= -1.98D-04 DXR=  7.15D-02 DFR=  5.17D-03 which will be used.
 Gradient too large for Newton-Raphson -- use scaled steepest descent instead.
     Minimum is close to point  3 DX=  6.64D-03 DF= -1.00D-05 DXR=  1.63D-02 DFR=  2.67D-04 which will be used.
 Gradient too large for Newton-Raphson -- use scaled steepest descent instead.
 Gradient too large for Newton-Raphson -- use scaled steepest descent instead.
     Minimum is close to point  3 DX=  3.71D-03 DF= -2.59D-06 DXR=  9.19D-03 DFR=  8.45D-05 which will be used.
 Gradient too large for Newton-Raphson -- use scaled steepest descent instead.
 Gradient too large for Newton-Raphson -- use scaled steepest descent instead.
     Minimum is close to point  3 DX=  6.87D-03 DF= -6.87D-06 DXR=  1.69D-02 DFR=  2.85D-04 which will be used.
 Gradient too large for Newton-Raphson -- use scaled steepest descent instead.
 Gradient too large for Newton-Raphson -- use scaled steepest descent instead.
     Minimum is close to point  3 DX=  5.27D-03 DF= -3.44D-06 DXR=  1.30D-02 DFR=  1.69D-04 which will be used.
 Gradient too large for Newton-Raphson -- use scaled steepest descent instead.
 Gradient too large for Newton-Raphson -- use scaled steepest descent instead.
     Minimum is close to point  3 DX=  7.97D-03 DF= -6.30D-06 DXR=  1.95D-02 DFR=  3.82D-04 which will be used.
 Gradient too large for Newton-Raphson -- use scaled steepest descent instead.
 Gradient too large for Newton-Raphson -- use scaled steepest descent instead.
     Minimum is close to point  3 DX=  7.48D-03 DF= -4.74D-06 DXR=  1.84D-02 DFR=  3.37D-04 which will be used.
 Gradient too large for Newton-Raphson -- use scaled steepest descent instead.
 Gradient too large for Newton-Raphson -- use scaled steepest descent instead.
     Minimum is close to point  3 DX=  1.09D-02 DF= -8.22D-06 DXR=  2.65D-02 DFR=  7.05D-04 which will be used.
 Gradient too large for Newton-Raphson -- use scaled steepest descent instead.
 Gradient too large for Newton-Raphson -- use scaled steepest descent instead.
     Minimum is close to point  3 DX=  1.40D-02 DF= -1.14D-05 DXR=  3.38D-02 DFR=  1.15D-03 which will be used.
 Gradient too large for Newton-Raphson -- use scaled steepest descent instead.
 Gradient too large for Newton-Raphson -- use scaled steepest descent instead.
     Minimum is close to point  3 DX=  2.20D-02 DF= -2.25D-05 DXR=  5.21D-02 DFR=  2.72D-03 which will be used.
 Gradient too large for Newton-Raphson -- use scaled steepest descent instead.
 Gradient too large for Newton-Raphson -- use scaled steepest descent instead.
     Minimum is close to point  3 DX=  3.38D-02 DF= -4.22D-05 DXR=  7.79D-02 DFR=  6.10D-03 which will be used.
 Gradient too large for Newton-Raphson -- use scaled steepest descent instead.
 Gradient too large for Newton-Raphson -- use scaled steepest descent instead.
 Gradient too large for Newton-Raphson -- use scaled steepest descent instead.
     Minimum is close to point  2 DX=  7.52D-02 DF= -1.38D-05 DXR=  6.40D-02 DFR=  4.12D-03 which will be used.
 Gradient too large for Newton-Raphson -- use scaled steepest descent instead.
     Accept linear search using points  1 and  2.
 Gradient too large for Newton-Raphson -- use scaled steepest descent instead.
 Gradient too large for Newton-Raphson -- use scaled steepest descent instead.
     Minimum is close to point  3 DX=  2.40D-02 DF= -1.29D-05 DXR=  5.65D-02 DFR=  3.20D-03 which will be used.
 Gradient too large for Newton-Raphson -- use scaled steepest descent instead.
     Minimum is close to point  4 DX=  1.04D-02 DF= -5.17D-08 DXR=  2.80D-03 DFR=  7.89D-06 which will be used.
 Gradient too large for Newton-Raphson -- use scaled steepest descent instead.
 Gradient too large for Newton-Raphson -- use scaled steepest descent instead.
 Gradient too large for Newton-Raphson -- use scaled steepest descent instead.
     Minimum is close to point  3 DX= -4.30D-03 DF= -5.56D-07 DXR=  1.09D-02 DFR=  1.18D-04 which will be used.
 Gradient too large for Newton-Raphson -- use scaled steepest descent instead.
     Accept linear search using points  2 and  3.
     Minimum is close to point  3 DX= -3.93D-02 DF= -1.15D-06 DXR=  1.74D-02 DFR=  3.52D-04 which will be used.
 Gradient too large for Newton-Raphson -- use scaled steepest descent instead.
     Minimum is close to point  3 DX=  2.22D-02 DF= -8.76D-06 DXR=  5.25D-02 DFR=  2.76D-03 which will be used.
 Gradient too large for Newton-Raphson -- use scaled steepest descent instead.
     Accept linear search using points  3 and  4.
 Gradient too large for Newton-Raphson -- use scaled steepest descent instead.
     Minimum is close to point  3 DX=  2.50D-03 DF= -1.72D-07 DXR=  6.21D-03 DFR=  3.85D-05 which will be used.
 Gradient too large for Newton-Raphson -- use scaled steepest descent instead.
     Accept linear search using points  2 and  3.
 Gradient too large for Newton-Raphson -- use scaled steepest descent instead.
     Accept linear search using points  1 and  2.
 Gradient too large for Newton-Raphson -- use scaled steepest descent instead.
 Gradient too large for Newton-Raphson -- use scaled steepest descent instead.
     Accept linear search using points  1 and  2.
 Gradient too large for Newton-Raphson -- use scaled steepest descent instead.
     Minimum is close to point  3 DX=  1.26D-01 DF= -1.19D-05 DXR=  7.32D-02 DFR=  5.40D-03 which will be used.
 Gradient too large for Newton-Raphson -- use scaled steepest descent instead.
     Accept linear search using points  1 and  2.
 Gradient too large for Newton-Raphson -- use scaled steepest descent instead.
     Accept linear search using points  2 and  3.
 Gradient too large for Newton-Raphson -- use scaled steepest descent instead.
     Accept linear search using points  1 and  2.
 Gradient too large for Newton-Raphson -- use scaled steepest descent instead.
 Gradient too large for Newton-Raphson -- use scaled steepest descent instead.
     Minimum is close to point  3 DX=  2.77D-02 DF= -9.52D-06 DXR=  6.47D-02 DFR=  4.21D-03 which will be used.
 Gradient too large for Newton-Raphson -- use scaled steepest descent instead.
 Gradient too large for Newton-Raphson -- use scaled steepest descent instead.
 Gradient too large for Newton-Raphson -- use scaled steepest descent instead.
     Accept linear search using points  3 and  4.
     Minimum is close to point  4 DX= -3.53D-01 DF= -2.72D-05 DXR=  7.60D-02 DFR=  7.14D-03 which will be used.
 Gradient too large for Newton-Raphson -- use scaled steepest descent instead.
 Gradient too large for Newton-Raphson -- use scaled steepest descent instead.
     Minimum is close to point  4 DX=  3.89D-01 DF= -2.25D-05 DXR=  6.85D-02 DFR=  4.74D-03 which will be used.
 Gradient too large for Newton-Raphson -- use scaled steepest descent instead.
 Gradient too large for Newton-Raphson -- use scaled steepest descent instead.
     Minimum is close to point  3 DX=  2.61D-01 DF= -1.65D-05 DXR=  8.26D-02 DFR=  6.87D-03 which will be used.
 Gradient too large for Newton-Raphson -- use scaled steepest descent instead.
     Minimum is close to point  3 DX=  3.14D-02 DF= -9.74D-06 DXR=  7.27D-02 DFR=  5.32D-03 which will be used.
 Gradient too large for Newton-Raphson -- use scaled steepest descent instead.
     Minimum is close to point  3 DX=  2.14D-01 DF= -1.32D-05 DXR=  8.50D-02 DFR=  7.28D-03 which will be used.
 Gradient too large for Newton-Raphson -- use scaled steepest descent instead.
     Minimum is close to point  3 DX= -2.91D-02 DF= -5.17D-06 DXR=  6.17D-02 DFR=  3.82D-03 which will be used.
 Gradient too large for Newton-Raphson -- use scaled steepest descent instead.
     Accept linear search using points  1 and  2.
 Gradient too large for Newton-Raphson -- use scaled steepest descent instead.
     Accept linear search using points  1 and  2.
 Gradient too large for Newton-Raphson -- use scaled steepest descent instead.
 Gradient too large for Newton-Raphson -- use scaled steepest descent instead.
     Minimum is close to point  3 DX=  3.10D-02 DF= -5.69D-06 DXR=  7.19D-02 DFR=  5.20D-03 which will be used.
 Gradient too large for Newton-Raphson -- use scaled steepest descent instead.
 Gradient too large for Newton-Raphson -- use scaled steepest descent instead.
 Gradient too large for Newton-Raphson -- use scaled steepest descent instead.
     Accept linear search using points  3 and  4.
     Minimum is close to point  4 DX= -4.41D-01 DF= -1.61D-05 DXR=  9.67D-02 DFR=  9.84D-03 which will be used.
 Gradient too large for Newton-Raphson -- use scaled steepest descent instead.
 Gradient too large for Newton-Raphson -- use scaled steepest descent instead.
     Minimum is close to point  4 DX=  1.91D-02 DF= -2.29D-08 DXR=  3.65D-03 DFR=  1.33D-05 which will be used.
 Gradient too large for Newton-Raphson -- use scaled steepest descent instead.
 Gradient too large for Newton-Raphson -- use scaled steepest descent instead.
 Gradient too large for Newton-Raphson -- use scaled steepest descent instead.
     Accept linear search using points  1 and  2.
 Gradient too large for Newton-Raphson -- use scaled steepest descent instead.
 Gradient too large for Newton-Raphson -- use scaled steepest descent instead.
     Accept linear search using points  1 and  2.
 Gradient too large for Newton-Raphson -- use scaled steepest descent instead.
     Accept linear search using points  3 and  4.
     Minimum is close to point  4 DX= -2.12D-01 DF= -4.63D-06 DXR=  8.17D-02 DFR=  8.20D-03 which will be used.
 Gradient too large for Newton-Raphson -- use scaled steepest descent instead.
     Minimum is close to point  3 DX= -7.54D-03 DF= -2.48D-07 DXR=  1.92D-02 DFR=  3.69D-04 which will be used.
 Gradient too large for Newton-Raphson -- use scaled steepest descent instead.
 Gradient too large for Newton-Raphson -- use scaled steepest descent instead.
     Minimum is close to point  3 DX=  1.24D-02 DF= -4.04D-07 DXR=  3.00D-02 DFR=  8.98D-04 which will be used.
 LinEq1:  Iter=  0 NonCon=     1 RMS=1.81D-04 Max=1.53D-02 NDo=     1
 AX will form     1 AO Fock derivatives at one time.
 LinEq1:  Iter=  1 NonCon=     1 RMS=1.16D-04 Max=2.23D-03 NDo=     1
 LinEq1:  Iter=  2 NonCon=     1 RMS=6.62D-05 Max=2.42D-03 NDo=     1
 LinEq1:  Iter=  3 NonCon=     1 RMS=4.66D-05 Max=1.67D-03 NDo=     1
 LinEq1:  Iter=  4 NonCon=     1 RMS=4.47D-05 Max=1.40D-03 NDo=     1
 LinEq1:  Iter=  5 NonCon=     1 RMS=4.77D-05 Max=1.53D-03 NDo=     1
 LinEq1:  Iter=  6 NonCon=     1 RMS=3.69D-05 Max=8.61D-04 NDo=     1
 LinEq1:  Iter=  7 NonCon=     1 RMS=3.65D-05 Max=1.01D-03 NDo=     1
 LinEq1:  Iter=  8 NonCon=     1 RMS=3.20D-05 Max=9.36D-04 NDo=     1
 LinEq1:  Iter=  9 NonCon=     1 RMS=2.54D-05 Max=9.01D-04 NDo=     1
 LinEq1:  Iter= 10 NonCon=     1 RMS=1.77D-05 Max=5.40D-04 NDo=     1
 LinEq1:  Iter= 11 NonCon=     1 RMS=1.54D-05 Max=3.99D-04 NDo=     1
 LinEq1:  Iter= 12 NonCon=     1 RMS=1.51D-05 Max=3.57D-04 NDo=     1
 LinEq1:  Iter= 13 NonCon=     1 RMS=1.15D-05 Max=2.89D-04 NDo=     1
 LinEq1:  Iter= 14 NonCon=     1 RMS=7.44D-06 Max=2.18D-04 NDo=     1
 LinEq1:  Iter= 15 NonCon=     1 RMS=5.36D-06 Max=1.44D-04 NDo=     1
 LinEq1:  Iter= 16 NonCon=     1 RMS=4.43D-06 Max=1.14D-04 NDo=     1
 LinEq1:  Iter= 17 NonCon=     1 RMS=3.79D-06 Max=6.95D-05 NDo=     1
 LinEq1:  Iter= 18 NonCon=     1 RMS=4.05D-06 Max=1.10D-04 NDo=     1
 LinEq1:  Iter= 19 NonCon=     1 RMS=2.83D-06 Max=1.02D-04 NDo=     1
 LinEq1:  Iter= 20 NonCon=     1 RMS=2.27D-06 Max=7.90D-05 NDo=     1
 LinEq1:  Iter= 21 NonCon=     1 RMS=1.80D-06 Max=1.10D-04 NDo=     1
 LinEq1:  Iter= 22 NonCon=     1 RMS=1.53D-06 Max=6.62D-05 NDo=     1
 LinEq1:  Iter= 23 NonCon=     1 RMS=1.44D-06 Max=1.10D-04 NDo=     1
 LinEq1:  Iter= 24 NonCon=     1 RMS=1.22D-06 Max=6.08D-05 NDo=     1
 LinEq1:  Iter= 25 NonCon=     1 RMS=9.22D-07 Max=5.71D-05 NDo=     1
 LinEq1:  Iter= 26 NonCon=     1 RMS=5.84D-07 Max=2.58D-05 NDo=     1
 LinEq1:  Iter= 27 NonCon=     1 RMS=3.61D-07 Max=1.16D-05 NDo=     1
 LinEq1:  Iter= 28 NonCon=     1 RMS=2.10D-07 Max=5.99D-06 NDo=     1
 LinEq1:  Iter= 29 NonCon=     1 RMS=1.74D-07 Max=5.81D-06 NDo=     1
 LinEq1:  Iter= 30 NonCon=     1 RMS=1.06D-07 Max=4.13D-06 NDo=     1
 LinEq1:  Iter= 31 NonCon=     1 RMS=6.43D-08 Max=2.57D-06 NDo=     1
 LinEq1:  Iter= 32 NonCon=     1 RMS=4.95D-08 Max=1.80D-06 NDo=     1
 LinEq1:  Iter= 33 NonCon=     1 RMS=2.84D-08 Max=9.36D-07 NDo=     1
 LinEq1:  Iter= 34 NonCon=     1 RMS=2.04D-08 Max=5.67D-07 NDo=     1
 LinEq1:  Iter= 35 NonCon=     1 RMS=1.31D-08 Max=4.79D-07 NDo=     1
 LinEq1:  Iter= 36 NonCon=     0 RMS=6.05D-09 Max=1.71D-07 NDo=     1
 Linear equations converged to 2.890D-08 2.890D-07 after    36 iterations.
 Gradient too large for Newton-Raphson -- use scaled steepest descent instead.
     Accept linear search using points  1 and  2.
 LinEq1:  Iter=  0 NonCon=     1 RMS=1.29D-04 Max=6.79D-03 NDo=     1
 LinEq1:  Iter=  1 NonCon=     1 RMS=2.08D-04 Max=1.02D-02 NDo=     1
 LinEq1:  Iter=  2 NonCon=     1 RMS=7.05D-05 Max=1.63D-03 NDo=     1
 LinEq1:  Iter=  3 NonCon=     1 RMS=1.01D-04 Max=2.96D-03 NDo=     1
 LinEq1:  Iter=  4 NonCon=     1 RMS=8.04D-05 Max=2.91D-03 NDo=     1
 LinEq1:  Iter=  5 NonCon=     1 RMS=8.99D-05 Max=3.22D-03 NDo=     1
 LinEq1:  Iter=  6 NonCon=     1 RMS=8.00D-05 Max=2.81D-03 NDo=     1
 LinEq1:  Iter=  7 NonCon=     1 RMS=7.23D-05 Max=1.79D-03 NDo=     1
 LinEq1:  Iter=  8 NonCon=     1 RMS=5.47D-05 Max=1.39D-03 NDo=     1
 LinEq1:  Iter=  9 NonCon=     1 RMS=5.22D-05 Max=1.20D-03 NDo=     1
 LinEq1:  Iter= 10 NonCon=     1 RMS=4.68D-05 Max=1.33D-03 NDo=     1
 LinEq1:  Iter= 11 NonCon=     1 RMS=3.84D-05 Max=9.61D-04 NDo=     1
 LinEq1:  Iter= 12 NonCon=     1 RMS=3.19D-05 Max=9.37D-04 NDo=     1
 LinEq1:  Iter= 13 NonCon=     1 RMS=2.71D-05 Max=7.35D-04 NDo=     1
 LinEq1:  Iter= 14 NonCon=     1 RMS=2.06D-05 Max=6.23D-04 NDo=     1
 LinEq1:  Iter= 15 NonCon=     1 RMS=1.84D-05 Max=4.30D-04 NDo=     1
 LinEq1:  Iter= 16 NonCon=     1 RMS=1.36D-05 Max=3.36D-04 NDo=     1
 LinEq1:  Iter= 17 NonCon=     1 RMS=9.81D-06 Max=3.01D-04 NDo=     1
 LinEq1:  Iter= 18 NonCon=     1 RMS=6.44D-06 Max=3.28D-04 NDo=     1
 LinEq1:  Iter= 19 NonCon=     1 RMS=4.88D-06 Max=2.75D-04 NDo=     1
 LinEq1:  Iter= 20 NonCon=     1 RMS=3.40D-06 Max=2.06D-04 NDo=     1
 LinEq1:  Iter= 21 NonCon=     1 RMS=3.46D-06 Max=2.30D-04 NDo=     1
 LinEq1:  Iter= 22 NonCon=     1 RMS=3.57D-06 Max=2.37D-04 NDo=     1
 LinEq1:  Iter= 23 NonCon=     1 RMS=2.28D-06 Max=1.12D-04 NDo=     1
 LinEq1:  Iter= 24 NonCon=     1 RMS=1.63D-06 Max=6.02D-05 NDo=     1
 LinEq1:  Iter= 25 NonCon=     1 RMS=1.07D-06 Max=2.52D-05 NDo=     1
 LinEq1:  Iter= 26 NonCon=     1 RMS=6.55D-07 Max=1.47D-05 NDo=     1
 LinEq1:  Iter= 27 NonCon=     1 RMS=4.79D-07 Max=1.27D-05 NDo=     1
 LinEq1:  Iter= 28 NonCon=     1 RMS=2.76D-07 Max=6.44D-06 NDo=     1
 LinEq1:  Iter= 29 NonCon=     1 RMS=2.00D-07 Max=3.61D-06 NDo=     1
 LinEq1:  Iter= 30 NonCon=     1 RMS=1.47D-07 Max=3.44D-06 NDo=     1
 LinEq1:  Iter= 31 NonCon=     1 RMS=7.20D-08 Max=1.84D-06 NDo=     1
 LinEq1:  Iter= 32 NonCon=     1 RMS=5.11D-08 Max=1.43D-06 NDo=     1
 LinEq1:  Iter= 33 NonCon=     1 RMS=2.97D-08 Max=7.68D-07 NDo=     1
 LinEq1:  Iter= 34 NonCon=     1 RMS=1.61D-08 Max=4.51D-07 NDo=     1
 LinEq1:  Iter= 35 NonCon=     0 RMS=9.20D-09 Max=1.93D-07 NDo=     1
 Linear equations converged to 2.890D-08 2.890D-07 after    35 iterations.
     Accept linear search using points  1 and  2.
 LinEq1:  Iter=  0 NonCon=     1 RMS=5.87D-05 Max=1.44D-03 NDo=     1
 LinEq1:  Iter=  1 NonCon=     1 RMS=8.04D-05 Max=4.07D-03 NDo=     1
 LinEq1:  Iter=  2 NonCon=     1 RMS=6.57D-05 Max=1.67D-03 NDo=     1
 LinEq1:  Iter=  3 NonCon=     1 RMS=5.81D-05 Max=2.13D-03 NDo=     1
 LinEq1:  Iter=  4 NonCon=     1 RMS=5.12D-05 Max=1.94D-03 NDo=     1
 LinEq1:  Iter=  5 NonCon=     1 RMS=4.28D-05 Max=1.15D-03 NDo=     1
 LinEq1:  Iter=  6 NonCon=     1 RMS=4.23D-05 Max=2.42D-03 NDo=     1
 LinEq1:  Iter=  7 NonCon=     1 RMS=4.26D-05 Max=1.15D-03 NDo=     1
 LinEq1:  Iter=  8 NonCon=     1 RMS=4.97D-05 Max=1.49D-03 NDo=     1
 LinEq1:  Iter=  9 NonCon=     1 RMS=4.19D-05 Max=1.56D-03 NDo=     1
 LinEq1:  Iter= 10 NonCon=     1 RMS=3.70D-05 Max=9.52D-04 NDo=     1
 LinEq1:  Iter= 11 NonCon=     1 RMS=3.01D-05 Max=9.09D-04 NDo=     1
 LinEq1:  Iter= 12 NonCon=     1 RMS=2.68D-05 Max=6.50D-04 NDo=     1
 LinEq1:  Iter= 13 NonCon=     1 RMS=2.37D-05 Max=4.94D-04 NDo=     1
 LinEq1:  Iter= 14 NonCon=     1 RMS=2.18D-05 Max=7.90D-04 NDo=     1
 LinEq1:  Iter= 15 NonCon=     1 RMS=1.82D-05 Max=5.91D-04 NDo=     1
 LinEq1:  Iter= 16 NonCon=     1 RMS=1.86D-05 Max=6.45D-04 NDo=     1
 LinEq1:  Iter= 17 NonCon=     1 RMS=1.38D-05 Max=4.51D-04 NDo=     1
 LinEq1:  Iter= 18 NonCon=     1 RMS=9.68D-06 Max=3.70D-04 NDo=     1
 LinEq1:  Iter= 19 NonCon=     1 RMS=8.36D-06 Max=4.39D-04 NDo=     1
 LinEq1:  Iter= 20 NonCon=     1 RMS=5.26D-06 Max=2.28D-04 NDo=     1
 LinEq1:  Iter= 21 NonCon=     1 RMS=5.10D-06 Max=2.04D-04 NDo=     1
 LinEq1:  Iter= 22 NonCon=     1 RMS=5.02D-06 Max=2.55D-04 NDo=     1
 LinEq1:  Iter= 23 NonCon=     1 RMS=4.40D-06 Max=1.75D-04 NDo=     1
 LinEq1:  Iter= 24 NonCon=     1 RMS=2.95D-06 Max=1.14D-04 NDo=     1
 LinEq1:  Iter= 25 NonCon=     1 RMS=2.03D-06 Max=5.74D-05 NDo=     1
 LinEq1:  Iter= 26 NonCon=     1 RMS=1.53D-06 Max=6.04D-05 NDo=     1
 LinEq1:  Iter= 27 NonCon=     1 RMS=7.72D-07 Max=2.02D-05 NDo=     1
 LinEq1:  Iter= 28 NonCon=     1 RMS=4.74D-07 Max=1.30D-05 NDo=     1
 LinEq1:  Iter= 29 NonCon=     1 RMS=3.54D-07 Max=8.75D-06 NDo=     1
 LinEq1:  Iter= 30 NonCon=     1 RMS=1.94D-07 Max=5.25D-06 NDo=     1
 LinEq1:  Iter= 31 NonCon=     1 RMS=1.26D-07 Max=2.70D-06 NDo=     1
 LinEq1:  Iter= 32 NonCon=     1 RMS=7.99D-08 Max=1.90D-06 NDo=     1
 LinEq1:  Iter= 33 NonCon=     1 RMS=4.45D-08 Max=1.13D-06 NDo=     1
 LinEq1:  Iter= 34 NonCon=     1 RMS=2.66D-08 Max=6.93D-07 NDo=     1
 LinEq1:  Iter= 35 NonCon=     1 RMS=1.59D-08 Max=5.30D-07 NDo=     1
 LinEq1:  Iter= 36 NonCon=     0 RMS=9.92D-09 Max=2.82D-07 NDo=     1
 Linear equations converged to 2.890D-08 2.890D-07 after    36 iterations.
     Minimum is close to point  2 DX=  5.12D-02 DF= -3.07D-07 DXR=  4.87D-02 DFR=  2.38D-03 which will be used.
 LinEq1:  Iter=  0 NonCon=     1 RMS=4.24D-06 Max=1.61D-04 NDo=     1
 LinEq1:  Iter=  1 NonCon=     1 RMS=5.89D-06 Max=3.35D-04 NDo=     1
 LinEq1:  Iter=  2 NonCon=     1 RMS=5.13D-06 Max=1.79D-04 NDo=     1
 LinEq1:  Iter=  3 NonCon=     1 RMS=4.99D-06 Max=2.30D-04 NDo=     1
 LinEq1:  Iter=  4 NonCon=     1 RMS=5.40D-06 Max=1.16D-04 NDo=     1
 LinEq1:  Iter=  5 NonCon=     1 RMS=5.56D-06 Max=2.20D-04 NDo=     1
 LinEq1:  Iter=  6 NonCon=     1 RMS=4.75D-06 Max=1.61D-04 NDo=     1
 LinEq1:  Iter=  7 NonCon=     1 RMS=4.28D-06 Max=1.41D-04 NDo=     1
 LinEq1:  Iter=  8 NonCon=     1 RMS=3.78D-06 Max=1.69D-04 NDo=     1
 LinEq1:  Iter=  9 NonCon=     1 RMS=3.31D-06 Max=1.44D-04 NDo=     1
 LinEq1:  Iter= 10 NonCon=     1 RMS=2.95D-06 Max=1.18D-04 NDo=     1
 LinEq1:  Iter= 11 NonCon=     1 RMS=2.62D-06 Max=9.44D-05 NDo=     1
 LinEq1:  Iter= 12 NonCon=     1 RMS=2.84D-06 Max=9.74D-05 NDo=     1
 LinEq1:  Iter= 13 NonCon=     1 RMS=2.42D-06 Max=7.37D-05 NDo=     1
 LinEq1:  Iter= 14 NonCon=     1 RMS=2.07D-06 Max=4.48D-05 NDo=     1
 LinEq1:  Iter= 15 NonCon=     1 RMS=1.60D-06 Max=4.15D-05 NDo=     1
 LinEq1:  Iter= 16 NonCon=     1 RMS=1.54D-06 Max=3.27D-05 NDo=     1
 LinEq1:  Iter= 17 NonCon=     1 RMS=1.14D-06 Max=3.02D-05 NDo=     1
 LinEq1:  Iter= 18 NonCon=     1 RMS=8.57D-07 Max=2.73D-05 NDo=     1
 LinEq1:  Iter= 19 NonCon=     1 RMS=9.10D-07 Max=2.81D-05 NDo=     1
 LinEq1:  Iter= 20 NonCon=     1 RMS=7.76D-07 Max=2.39D-05 NDo=     1
 LinEq1:  Iter= 21 NonCon=     1 RMS=7.28D-07 Max=3.07D-05 NDo=     1
 LinEq1:  Iter= 22 NonCon=     1 RMS=4.93D-07 Max=2.85D-05 NDo=     1
 LinEq1:  Iter= 23 NonCon=     1 RMS=3.38D-07 Max=1.55D-05 NDo=     1
 LinEq1:  Iter= 24 NonCon=     1 RMS=2.38D-07 Max=9.37D-06 NDo=     1
 LinEq1:  Iter= 25 NonCon=     1 RMS=1.39D-07 Max=4.03D-06 NDo=     1
 LinEq1:  Iter= 26 NonCon=     1 RMS=1.04D-07 Max=2.94D-06 NDo=     1
 LinEq1:  Iter= 27 NonCon=     1 RMS=5.59D-08 Max=1.69D-06 NDo=     1
 LinEq1:  Iter= 28 NonCon=     1 RMS=2.57D-08 Max=8.36D-07 NDo=     1
 LinEq1:  Iter= 29 NonCon=     1 RMS=1.94D-08 Max=5.56D-07 NDo=     1
 LinEq1:  Iter= 30 NonCon=     1 RMS=1.04D-08 Max=3.06D-07 NDo=     1
 LinEq1:  Iter= 31 NonCon=     1 RMS=6.47D-09 Max=1.24D-07 NDo=     1
 LinEq1:  Iter= 32 NonCon=     1 RMS=4.32D-09 Max=7.29D-08 NDo=     1
 LinEq1:  Iter= 33 NonCon=     1 RMS=2.55D-09 Max=4.64D-08 NDo=     1
 LinEq1:  Iter= 34 NonCon=     0 RMS=1.48D-09 Max=3.14D-08 NDo=     1
 Linear equations converged to 4.266D-09 4.266D-08 after    34 iterations.
     Minimum is close to point  2 DX=  6.21D-02 DF= -5.71D-09 DXR=  5.85D-02 DFR=  3.43D-03 which will be used.
 LinEq1:  Iter=  0 NonCon=     1 RMS=3.19D-07 Max=7.59D-06 NDo=     1
 LinEq1:  Iter=  1 NonCon=     1 RMS=3.98D-07 Max=2.11D-05 NDo=     1
 LinEq1:  Iter=  2 NonCon=     1 RMS=3.90D-07 Max=1.11D-05 NDo=     1
 LinEq1:  Iter=  3 NonCon=     1 RMS=2.92D-07 Max=6.06D-06 NDo=     1
 LinEq1:  Iter=  4 NonCon=     1 RMS=3.36D-07 Max=1.00D-05 NDo=     1
 LinEq1:  Iter=  5 NonCon=     1 RMS=3.46D-07 Max=1.14D-05 NDo=     1
 LinEq1:  Iter=  6 NonCon=     1 RMS=3.31D-07 Max=1.04D-05 NDo=     1
 LinEq1:  Iter=  7 NonCon=     1 RMS=3.18D-07 Max=1.67D-05 NDo=     1
 LinEq1:  Iter=  8 NonCon=     1 RMS=3.12D-07 Max=1.24D-05 NDo=     1
 LinEq1:  Iter=  9 NonCon=     1 RMS=2.39D-07 Max=1.35D-05 NDo=     1
 LinEq1:  Iter= 10 NonCon=     1 RMS=2.25D-07 Max=1.10D-05 NDo=     1
 LinEq1:  Iter= 11 NonCon=     1 RMS=2.13D-07 Max=1.11D-05 NDo=     1
 LinEq1:  Iter= 12 NonCon=     1 RMS=2.28D-07 Max=8.40D-06 NDo=     1
 LinEq1:  Iter= 13 NonCon=     1 RMS=1.53D-07 Max=5.73D-06 NDo=     1
 LinEq1:  Iter= 14 NonCon=     1 RMS=1.20D-07 Max=2.97D-06 NDo=     1
 LinEq1:  Iter= 15 NonCon=     1 RMS=8.85D-08 Max=3.19D-06 NDo=     1
 LinEq1:  Iter= 16 NonCon=     1 RMS=6.68D-08 Max=2.16D-06 NDo=     1
 LinEq1:  Iter= 17 NonCon=     1 RMS=6.24D-08 Max=2.54D-06 NDo=     1
 LinEq1:  Iter= 18 NonCon=     1 RMS=4.85D-08 Max=1.33D-06 NDo=     1
 LinEq1:  Iter= 19 NonCon=     1 RMS=3.62D-08 Max=7.69D-07 NDo=     1
 LinEq1:  Iter= 20 NonCon=     1 RMS=2.37D-08 Max=6.84D-07 NDo=     1
 LinEq1:  Iter= 21 NonCon=     1 RMS=1.91D-08 Max=5.27D-07 NDo=     1
 LinEq1:  Iter= 22 NonCon=     1 RMS=1.31D-08 Max=4.04D-07 NDo=     1
 LinEq1:  Iter= 23 NonCon=     1 RMS=7.02D-09 Max=2.53D-07 NDo=     1
 LinEq1:  Iter= 24 NonCon=     1 RMS=5.30D-09 Max=1.98D-07 NDo=     1
 LinEq1:  Iter= 25 NonCon=     1 RMS=4.44D-09 Max=1.62D-07 NDo=     1
 LinEq1:  Iter= 26 NonCon=     1 RMS=4.95D-09 Max=2.32D-07 NDo=     1
 LinEq1:  Iter= 27 NonCon=     1 RMS=4.10D-09 Max=1.51D-07 NDo=     1
 LinEq1:  Iter= 28 NonCon=     1 RMS=3.06D-09 Max=8.18D-08 NDo=     1
 LinEq1:  Iter= 29 NonCon=     1 RMS=2.08D-09 Max=4.66D-08 NDo=     1
 LinEq1:  Iter= 30 NonCon=     1 RMS=1.11D-09 Max=2.23D-08 NDo=     1
 LinEq1:  Iter= 31 NonCon=     1 RMS=6.70D-10 Max=1.23D-08 NDo=     1
 LinEq1:  Iter= 32 NonCon=     1 RMS=4.59D-10 Max=8.52D-09 NDo=     1
 LinEq1:  Iter= 33 NonCon=     1 RMS=2.75D-10 Max=5.99D-09 NDo=     1
 LinEq1:  Iter= 34 NonCon=     1 RMS=1.93D-10 Max=4.59D-09 NDo=     1
 LinEq1:  Iter= 35 NonCon=     0 RMS=9.02D-11 Max=1.59D-09 NDo=     1
 Linear equations converged to 3.410D-10 3.410D-09 after    35 iterations.
 LinEq1:  Iter=  0 NonCon=     1 RMS=3.66D-08 Max=6.46D-07 NDo=     1
 LinEq1:  Iter=  1 NonCon=     1 RMS=3.07D-08 Max=7.53D-07 NDo=     1
 LinEq1:  Iter=  2 NonCon=     1 RMS=2.03D-08 Max=4.61D-07 NDo=     1
 LinEq1:  Iter=  3 NonCon=     1 RMS=2.19D-08 Max=6.07D-07 NDo=     1
 LinEq1:  Iter=  4 NonCon=     1 RMS=2.24D-08 Max=4.69D-07 NDo=     1
 LinEq1:  Iter=  5 NonCon=     1 RMS=1.78D-08 Max=3.16D-07 NDo=     1
 LinEq1:  Iter=  6 NonCon=     1 RMS=1.36D-08 Max=3.13D-07 NDo=     1
 LinEq1:  Iter=  7 NonCon=     1 RMS=1.39D-08 Max=3.35D-07 NDo=     1
 LinEq1:  Iter=  8 NonCon=     1 RMS=1.18D-08 Max=2.80D-07 NDo=     1
 LinEq1:  Iter=  9 NonCon=     1 RMS=9.41D-09 Max=3.68D-07 NDo=     1
 LinEq1:  Iter= 10 NonCon=     1 RMS=9.92D-09 Max=3.95D-07 NDo=     1
 LinEq1:  Iter= 11 NonCon=     1 RMS=8.25D-09 Max=3.59D-07 NDo=     1
 LinEq1:  Iter= 12 NonCon=     1 RMS=6.48D-09 Max=3.58D-07 NDo=     1
 LinEq1:  Iter= 13 NonCon=     1 RMS=7.17D-09 Max=2.79D-07 NDo=     1
 LinEq1:  Iter= 14 NonCon=     1 RMS=6.66D-09 Max=2.41D-07 NDo=     1
 LinEq1:  Iter= 15 NonCon=     1 RMS=5.04D-09 Max=1.22D-07 NDo=     1
 LinEq1:  Iter= 16 NonCon=     1 RMS=4.43D-09 Max=1.21D-07 NDo=     1
 LinEq1:  Iter= 17 NonCon=     1 RMS=4.23D-09 Max=8.78D-08 NDo=     1
 LinEq1:  Iter= 18 NonCon=     1 RMS=3.48D-09 Max=9.49D-08 NDo=     1
 LinEq1:  Iter= 19 NonCon=     1 RMS=2.59D-09 Max=5.19D-08 NDo=     1
 LinEq1:  Iter= 20 NonCon=     1 RMS=2.27D-09 Max=6.85D-08 NDo=     1
 LinEq1:  Iter= 21 NonCon=     1 RMS=2.45D-09 Max=8.03D-08 NDo=     1
 LinEq1:  Iter= 22 NonCon=     1 RMS=1.92D-09 Max=5.86D-08 NDo=     1
 LinEq1:  Iter= 23 NonCon=     1 RMS=1.28D-09 Max=3.21D-08 NDo=     1
 LinEq1:  Iter= 24 NonCon=     1 RMS=1.09D-09 Max=3.29D-08 NDo=     1
 LinEq1:  Iter= 25 NonCon=     1 RMS=7.16D-10 Max=1.99D-08 NDo=     1
 LinEq1:  Iter= 26 NonCon=     1 RMS=5.18D-10 Max=1.44D-08 NDo=     1
 LinEq1:  Iter= 27 NonCon=     1 RMS=3.26D-10 Max=6.56D-09 NDo=     1
 LinEq1:  Iter= 28 NonCon=     1 RMS=2.05D-10 Max=4.50D-09 NDo=     1
 LinEq1:  Iter= 29 NonCon=     1 RMS=1.69D-10 Max=4.71D-09 NDo=     1
 LinEq1:  Iter= 30 NonCon=     1 RMS=9.56D-11 Max=4.11D-09 NDo=     1
 LinEq1:  Iter= 31 NonCon=     1 RMS=5.72D-11 Max=2.22D-09 NDo=     1
 LinEq1:  Iter= 32 NonCon=     1 RMS=4.84D-11 Max=2.84D-09 NDo=     1
 LinEq1:  Iter= 33 NonCon=     1 RMS=2.88D-11 Max=1.64D-09 NDo=     1
 LinEq1:  Iter= 34 NonCon=     1 RMS=1.94D-11 Max=1.11D-09 NDo=     1
 LinEq1:  Iter= 35 NonCon=     1 RMS=1.46D-11 Max=9.52D-10 NDo=     1
 LinEq1:  Iter= 36 NonCon=     0 RMS=6.56D-12 Max=3.00D-10 NDo=     1
 Linear equations converged to 4.646D-11 4.646D-10 after    36 iterations.
 LinEq1:  Iter=  0 NonCon=     1 RMS=4.84D-08 Max=1.96D-06 NDo=     1
 LinEq1:  Iter=  1 NonCon=     1 RMS=3.39D-08 Max=2.07D-06 NDo=     1
 LinEq1:  Iter=  2 NonCon=     1 RMS=2.63D-08 Max=1.51D-06 NDo=     1
 LinEq1:  Iter=  3 NonCon=     1 RMS=2.14D-08 Max=1.51D-06 NDo=     1
 LinEq1:  Iter=  4 NonCon=     1 RMS=2.67D-08 Max=1.27D-06 NDo=     1
 LinEq1:  Iter=  5 NonCon=     1 RMS=2.32D-08 Max=1.32D-06 NDo=     1
 LinEq1:  Iter=  6 NonCon=     1 RMS=2.27D-08 Max=1.12D-06 NDo=     1
 LinEq1:  Iter=  7 NonCon=     1 RMS=2.26D-08 Max=7.56D-07 NDo=     1
 LinEq1:  Iter=  8 NonCon=     1 RMS=2.27D-08 Max=7.19D-07 NDo=     1
 LinEq1:  Iter=  9 NonCon=     1 RMS=1.61D-08 Max=3.18D-07 NDo=     1
 LinEq1:  Iter= 10 NonCon=     1 RMS=1.49D-08 Max=4.30D-07 NDo=     1
 LinEq1:  Iter= 11 NonCon=     1 RMS=1.40D-08 Max=4.16D-07 NDo=     1
 LinEq1:  Iter= 12 NonCon=     1 RMS=1.23D-08 Max=3.39D-07 NDo=     1
 LinEq1:  Iter= 13 NonCon=     1 RMS=1.08D-08 Max=2.34D-07 NDo=     1
 LinEq1:  Iter= 14 NonCon=     1 RMS=9.92D-09 Max=2.37D-07 NDo=     1
 LinEq1:  Iter= 15 NonCon=     1 RMS=8.88D-09 Max=2.30D-07 NDo=     1
 LinEq1:  Iter= 16 NonCon=     1 RMS=6.70D-09 Max=1.67D-07 NDo=     1
 LinEq1:  Iter= 17 NonCon=     1 RMS=5.33D-09 Max=1.05D-07 NDo=     1
 LinEq1:  Iter= 18 NonCon=     1 RMS=5.04D-09 Max=1.12D-07 NDo=     1
 LinEq1:  Iter= 19 NonCon=     1 RMS=4.16D-09 Max=1.41D-07 NDo=     1
 LinEq1:  Iter= 20 NonCon=     1 RMS=3.16D-09 Max=1.55D-07 NDo=     1
 LinEq1:  Iter= 21 NonCon=     1 RMS=3.37D-09 Max=1.67D-07 NDo=     1
 LinEq1:  Iter= 22 NonCon=     1 RMS=2.95D-09 Max=1.30D-07 NDo=     1
 LinEq1:  Iter= 23 NonCon=     1 RMS=2.27D-09 Max=6.48D-08 NDo=     1
 LinEq1:  Iter= 24 NonCon=     1 RMS=1.72D-09 Max=4.56D-08 NDo=     1
 LinEq1:  Iter= 25 NonCon=     1 RMS=1.20D-09 Max=1.85D-08 NDo=     1
 LinEq1:  Iter= 26 NonCon=     1 RMS=8.27D-10 Max=1.52D-08 NDo=     1
 LinEq1:  Iter= 27 NonCon=     1 RMS=5.75D-10 Max=1.00D-08 NDo=     1
 LinEq1:  Iter= 28 NonCon=     1 RMS=3.69D-10 Max=9.83D-09 NDo=     1
 LinEq1:  Iter= 29 NonCon=     1 RMS=2.55D-10 Max=8.12D-09 NDo=     1
 LinEq1:  Iter= 30 NonCon=     1 RMS=1.49D-10 Max=5.35D-09 NDo=     1
 LinEq1:  Iter= 31 NonCon=     1 RMS=1.11D-10 Max=6.38D-09 NDo=     1
 LinEq1:  Iter= 32 NonCon=     1 RMS=7.35D-11 Max=3.39D-09 NDo=     1
 LinEq1:  Iter= 33 NonCon=     1 RMS=5.78D-11 Max=2.00D-09 NDo=     1
 LinEq1:  Iter= 34 NonCon=     1 RMS=3.41D-11 Max=1.34D-09 NDo=     1
 LinEq1:  Iter= 35 NonCon=     0 RMS=1.51D-11 Max=3.77D-10 NDo=     1
 Linear equations converged to 6.371D-11 6.371D-10 after    35 iterations.
 LinEq1:  Iter=  0 NonCon=     1 RMS=2.57D-08 Max=1.05D-06 NDo=     1
 LinEq1:  Iter=  1 NonCon=     1 RMS=1.81D-08 Max=1.09D-06 NDo=     1
 LinEq1:  Iter=  2 NonCon=     1 RMS=1.41D-08 Max=7.90D-07 NDo=     1
 LinEq1:  Iter=  3 NonCon=     1 RMS=1.17D-08 Max=8.17D-07 NDo=     1
 LinEq1:  Iter=  4 NonCon=     1 RMS=1.45D-08 Max=7.00D-07 NDo=     1
 LinEq1:  Iter=  5 NonCon=     1 RMS=1.24D-08 Max=7.09D-07 NDo=     1
 LinEq1:  Iter=  6 NonCon=     1 RMS=1.24D-08 Max=6.07D-07 NDo=     1
 LinEq1:  Iter=  7 NonCon=     1 RMS=1.25D-08 Max=4.35D-07 NDo=     1
 LinEq1:  Iter=  8 NonCon=     1 RMS=1.23D-08 Max=3.97D-07 NDo=     1
 LinEq1:  Iter=  9 NonCon=     1 RMS=8.84D-09 Max=1.83D-07 NDo=     1
 LinEq1:  Iter= 10 NonCon=     1 RMS=8.41D-09 Max=2.52D-07 NDo=     1
 LinEq1:  Iter= 11 NonCon=     1 RMS=7.78D-09 Max=2.36D-07 NDo=     1
 LinEq1:  Iter= 12 NonCon=     1 RMS=6.70D-09 Max=1.85D-07 NDo=     1
 LinEq1:  Iter= 13 NonCon=     1 RMS=5.93D-09 Max=1.47D-07 NDo=     1
 LinEq1:  Iter= 14 NonCon=     1 RMS=5.42D-09 Max=1.25D-07 NDo=     1
 LinEq1:  Iter= 15 NonCon=     1 RMS=4.90D-09 Max=1.31D-07 NDo=     1
 LinEq1:  Iter= 16 NonCon=     1 RMS=3.67D-09 Max=9.49D-08 NDo=     1
 LinEq1:  Iter= 17 NonCon=     1 RMS=2.92D-09 Max=5.83D-08 NDo=     1
 LinEq1:  Iter= 18 NonCon=     1 RMS=2.77D-09 Max=6.09D-08 NDo=     1
 LinEq1:  Iter= 19 NonCon=     1 RMS=2.33D-09 Max=7.06D-08 NDo=     1
 LinEq1:  Iter= 20 NonCon=     1 RMS=1.83D-09 Max=7.21D-08 NDo=     1
 LinEq1:  Iter= 21 NonCon=     1 RMS=1.96D-09 Max=6.58D-08 NDo=     1
 LinEq1:  Iter= 22 NonCon=     1 RMS=1.70D-09 Max=5.36D-08 NDo=     1
 LinEq1:  Iter= 23 NonCon=     1 RMS=1.35D-09 Max=4.42D-08 NDo=     1
 LinEq1:  Iter= 24 NonCon=     1 RMS=1.08D-09 Max=4.23D-08 NDo=     1
 LinEq1:  Iter= 25 NonCon=     1 RMS=8.02D-10 Max=3.02D-08 NDo=     1
 LinEq1:  Iter= 26 NonCon=     1 RMS=5.68D-10 Max=2.20D-08 NDo=     1
 LinEq1:  Iter= 27 NonCon=     1 RMS=4.14D-10 Max=1.38D-08 NDo=     1
 LinEq1:  Iter= 28 NonCon=     1 RMS=2.63D-10 Max=7.97D-09 NDo=     1
 LinEq1:  Iter= 29 NonCon=     1 RMS=1.84D-10 Max=4.18D-09 NDo=     1
 LinEq1:  Iter= 30 NonCon=     1 RMS=1.02D-10 Max=1.74D-09 NDo=     1
 LinEq1:  Iter= 31 NonCon=     1 RMS=7.18D-11 Max=1.41D-09 NDo=     1
 LinEq1:  Iter= 32 NonCon=     1 RMS=4.37D-11 Max=8.14D-10 NDo=     1
 LinEq1:  Iter= 33 NonCon=     1 RMS=3.30D-11 Max=6.96D-10 NDo=     1
 LinEq1:  Iter= 34 NonCon=     1 RMS=1.86D-11 Max=4.18D-10 NDo=     1
 LinEq1:  Iter= 35 NonCon=     0 RMS=7.85D-12 Max=2.29D-10 NDo=     1
 Linear equations converged to 3.379D-11 3.379D-10 after    35 iterations.
 Search did not lower the energy significantly.
 No lower point found -- using Newton-Raphson step.
 SCF Done:  E(RPM6) =  -1.29604088089     a.u. after  114 cycles
            Convg  =    0.2389D-06                   611 Fock formations.
              S**2 =  0.0000                  -V/T =  0.9922
 Range of M.O.s used for correlation:     1   432
 NBasis=   432 NAE=   146 NBE=   146 NFC=     0 NFV=     0
 NROrb=    432 NOA=   146 NOB=   146 NVA=   286 NVB=   286
 Symmetrizing basis deriv contribution to polar:
 IMax=3 JMax=2 DiffMx= 0.00D+00
 G2DrvN: will do    49 centers at a time, making    1 passes.
 Calling FoFCou, ICntrl=  3107 FMM=F I1Cent=   0 AccDes= 0.00D+00.
 End of G2Drv F.D. properties file   721 does not exist.
 End of G2Drv F.D. properties file   722 does not exist.
 End of G2Drv F.D. properties file   788 does not exist.
          IDoAtm=000000000000000001001000000000000000000000000000
          Differentiating once with respect to electric field.
                with respect to dipole field.
          Differentiating once with respect to nuclear coordinates.
          Electric field/nuclear overlap derivatives assumed to be zero.
 Keep J ints in memory in canonical form, NReq=4244937.
          There are     9 degrees of freedom in the 1st order CPHF.  IDoFFX=5 NUNeed=     9.
 LinEq1:  Iter=  0 NonCon=     9 RMS=3.02D-01 Max=1.21D+01 NDo=     9
 AX will form     9 AO Fock derivatives at one time.
 LinEq1:  Iter=  1 NonCon=     9 RMS=3.02D-01 Max=4.79D+00 NDo=     9
 LinEq1:  Iter=  2 NonCon=     9 RMS=2.31D-01 Max=5.23D+00 NDo=     9
 LinEq1:  Iter=  3 NonCon=     9 RMS=2.08D-01 Max=6.55D+00 NDo=     9
 LinEq1:  Iter=  4 NonCon=     9 RMS=2.08D-01 Max=8.04D+00 NDo=     9
 LinEq1:  Iter=  5 NonCon=     9 RMS=2.43D-01 Max=9.72D+00 NDo=     9
 LinEq1:  Iter=  6 NonCon=     9 RMS=1.56D-01 Max=1.10D+01 NDo=     9
 LinEq1:  Iter=  7 NonCon=     9 RMS=1.54D-01 Max=7.64D+00 NDo=     9
 LinEq1:  Iter=  8 NonCon=     9 RMS=1.81D-01 Max=1.02D+01 NDo=     9
 LinEq1:  Iter=  9 NonCon=     9 RMS=1.59D-01 Max=7.06D+00 NDo=     9
 LinEq1:  Iter= 10 NonCon=     9 RMS=1.32D-01 Max=6.17D+00 NDo=     9
 LinEq1:  Iter= 11 NonCon=     9 RMS=1.01D-01 Max=3.57D+00 NDo=     9
 LinEq1:  Iter= 12 NonCon=     9 RMS=9.93D-02 Max=5.27D+00 NDo=     9
 LinEq1:  Iter= 13 NonCon=     9 RMS=8.40D-02 Max=3.61D+00 NDo=     9
 LinEq1:  Iter= 14 NonCon=     9 RMS=8.51D-02 Max=3.78D+00 NDo=     9
 LinEq1:  Iter= 15 NonCon=     9 RMS=6.80D-02 Max=3.06D+00 NDo=     9
 LinEq1:  Iter= 16 NonCon=     9 RMS=7.23D-02 Max=3.40D+00 NDo=     9
 LinEq1:  Iter= 17 NonCon=     9 RMS=4.94D-02 Max=2.32D+00 NDo=     9
 LinEq1:  Iter= 18 NonCon=     9 RMS=3.54D-02 Max=1.25D+00 NDo=     9
 LinEq1:  Iter= 19 NonCon=     9 RMS=2.98D-02 Max=9.75D-01 NDo=     9
 LinEq1:  Iter= 20 NonCon=     9 RMS=1.67D-02 Max=5.36D-01 NDo=     9
 LinEq1:  Iter= 21 NonCon=     9 RMS=1.22D-02 Max=4.11D-01 NDo=     9
 LinEq1:  Iter= 22 NonCon=     9 RMS=7.68D-03 Max=2.55D-01 NDo=     9
 LinEq1:  Iter= 23 NonCon=     9 RMS=5.01D-03 Max=1.44D-01 NDo=     9
 LinEq1:  Iter= 24 NonCon=     9 RMS=4.49D-03 Max=1.15D-01 NDo=     9
 LinEq1:  Iter= 25 NonCon=     9 RMS=3.31D-03 Max=1.02D-01 NDo=     9
 LinEq1:  Iter= 26 NonCon=     9 RMS=2.68D-03 Max=7.48D-02 NDo=     9
 LinEq1:  Iter= 27 NonCon=     9 RMS=1.50D-03 Max=5.55D-02 NDo=     9
 LinEq1:  Iter= 28 NonCon=     9 RMS=1.04D-03 Max=3.18D-02 NDo=     9
 LinEq1:  Iter= 29 NonCon=     9 RMS=9.68D-04 Max=3.72D-02 NDo=     9
 LinEq1:  Iter= 30 NonCon=     9 RMS=4.98D-04 Max=2.01D-02 NDo=     9
 LinEq1:  Iter= 31 NonCon=     9 RMS=3.64D-04 Max=1.49D-02 NDo=     9
 LinEq1:  Iter= 32 NonCon=     9 RMS=2.25D-04 Max=1.11D-02 NDo=     9
 LinEq1:  Iter= 33 NonCon=     9 RMS=1.12D-04 Max=3.19D-03 NDo=     9
 LinEq1:  Iter= 34 NonCon=     9 RMS=7.89D-05 Max=2.81D-03 NDo=     9
 LinEq1:  Iter= 35 NonCon=     9 RMS=5.23D-05 Max=1.32D-03 NDo=     9
 LinEq1:  Iter= 36 NonCon=     9 RMS=2.52D-05 Max=8.51D-04 NDo=     9
 LinEq1:  Iter= 37 NonCon=     9 RMS=1.83D-05 Max=5.01D-04 NDo=     9
 LinEq1:  Iter= 38 NonCon=     9 RMS=1.05D-05 Max=4.32D-04 NDo=     9
 LinEq1:  Iter= 39 NonCon=     9 RMS=4.31D-06 Max=1.70D-04 NDo=     9
 LinEq1:  Iter= 40 NonCon=     7 RMS=1.70D-06 Max=7.47D-05 NDo=     9
 LinEq1:  Iter= 41 NonCon=     5 RMS=6.29D-07 Max=2.96D-05 NDo=     9
 LinEq1:  Iter= 42 NonCon=     3 RMS=2.72D-07 Max=1.29D-05 NDo=     9
 LinEq1:  Iter= 43 NonCon=     3 RMS=1.25D-07 Max=3.87D-06 NDo=     9
 LinEq1:  Iter= 44 NonCon=     3 RMS=7.32D-08 Max=1.93D-06 NDo=     9
 LinEq1:  Iter= 45 NonCon=     3 RMS=3.98D-08 Max=8.90D-07 NDo=     9
 LinEq1:  Iter= 46 NonCon=     2 RMS=2.56D-08 Max=4.96D-07 NDo=     9
 LinEq1:  Iter= 47 NonCon=     2 RMS=1.89D-08 Max=4.14D-07 NDo=     9
 LinEq1:  Iter= 48 NonCon=     2 RMS=9.80D-09 Max=2.19D-07 NDo=     9
 LinEq1:  Iter= 49 NonCon=     1 RMS=5.84D-09 Max=1.19D-07 NDo=     9
 LinEq1:  Iter= 50 NonCon=     0 RMS=3.60D-09 Max=7.31D-08 NDo=     9
 Linear equations converged to 1.000D-08 1.000D-07 after    50 iterations.
 Isotropic polarizability for W=    0.000000     2921.63 Bohr**3.
 End of Minotr F.D. properties file   721 does not exist.
 End of Minotr F.D. properties file   722 does not exist.
 End of Minotr F.D. properties file   788 does not exist.

 **********************************************************************

            Population analysis using the SCF density.

 **********************************************************************

 Orbital symmetries:
       Occupied  (A) (A) (A) (A) (A) (A) (A) (A) (A) (A) (A) (A)
                 (A) (A) (A) (A) (A) (A) (A) (A) (A) (A) (A) (A)
                 (A) (A) (A) (A) (A) (A) (A) (A) (A) (A) (A) (A)
                 (A) (A) (A) (A) (A) (A) (A) (A) (A) (A) (A) (A)
                 (A) (A) (A) (A) (A) (A) (A) (A) (A) (A) (A) (A)
                 (A) (A) (A) (A) (A) (A) (A) (A) (A) (A) (A) (A)
                 (A) (A) (A) (A) (A) (A) (A) (A) (A) (A) (A) (A)
                 (A) (A) (A) (A) (A) (A) (A) (A) (A) (A) (A) (A)
                 (A) (A) (A) (A) (A) (A) (A) (A) (A) (A) (A) (A)
                 (A) (A) (A) (A) (A) (A) (A) (A) (A) (A) (A) (A)
                 (A) (A) (A) (A) (A) (A) (A) (A) (A) (A) (A) (A)
                 (A) (A) (A) (A) (A) (A) (A) (A) (A) (A) (A) (A)
                 (A) (A)
       Virtual   (A) (A) (A) (A) (A) (A) (A) (A) (A) (A) (A) (A)
                 (A) (A) (A) (A) (A) (A) (A) (A) (A) (A) (A) (A)
                 (A) (A) (A) (A) (A) (A) (A) (A) (A) (A) (A) (A)
                 (A) (A) (A) (A) (A) (A) (A) (A) (A) (A) (A) (A)
                 (A) (A) (A) (A) (A) (A) (A) (A) (A) (A) (A) (A)
                 (A) (A) (A) (A) (A) (A) (A) (A) (A) (A) (A) (A)
                 (A) (A) (A) (A) (A) (A) (A) (A) (A) (A) (A) (A)
                 (A) (A) (A) (A) (A) (A) (A) (A) (A) (A) (A) (A)
                 (A) (A) (A) (A) (A) (A) (A) (A) (A) (A) (A) (A)
                 (A) (A) (A) (A) (A) (A) (A) (A) (A) (A) (A) (A)
                 (A) (A) (A) (A) (A) (A) (A) (A) (A) (A) (A) (A)
                 (A) (A) (A) (A) (A) (A) (A) (A) (A) (A) (A) (A)
                 (A) (A) (A) (A) (A) (A) (A) (A) (A) (A) (A) (A)
                 (A) (A) (A) (A) (A) (A) (A) (A) (A) (A) (A) (A)
                 (A) (A) (A) (A) (A) (A) (A) (A) (A) (A) (A) (A)
                 (A) (A) (A) (A) (A) (A) (A) (A) (A) (A) (A) (A)
                 (A) (A) (A) (A) (A) (A) (A) (A) (A) (A) (A) (A)
                 (A) (A) (A) (A) (A) (A) (A) (A) (A) (A) (A) (A)
                 (A) (A) (A) (A) (A) (A) (A) (A) (A) (A) (A) (A)
                 (A) (A) (A) (A) (A) (A) (A) (A) (A) (A) (A) (A)
                 (A) (A) (A) (A) (A) (A) (A) (A) (A) (A) (A) (A)
                 (A) (A) (A) (A) (A) (A) (A) (A) (A) (A) (A) (A)
                 (A) (A) (A) (A) (A) (A) (A) (A) (A) (A) (A) (A)
                 (A) (A) (A) (A) (A) (A) (A) (A) (A) (A)
 The electronic state is 1-A.
 Alpha  occ. eigenvalues --   -1.13189  -1.07901  -1.03889  -1.02257  -1.00301
 Alpha  occ. eigenvalues --   -0.99674  -0.99308  -0.98999  -0.98730  -0.98451
 Alpha  occ. eigenvalues --   -0.97919  -0.97913  -0.97771  -0.97383  -0.97309
 Alpha  occ. eigenvalues --   -0.96676  -0.96235  -0.95888  -0.95650  -0.95232
 Alpha  occ. eigenvalues --   -0.94986  -0.94926  -0.94140  -0.93538  -0.93157
 Alpha  occ. eigenvalues --   -0.92581  -0.92062  -0.92026  -0.91866  -0.91405
 Alpha  occ. eigenvalues --   -0.91204  -0.91049  -0.51110  -0.49576  -0.49315
 Alpha  occ. eigenvalues --   -0.49209  -0.48322  -0.47932  -0.47008  -0.46946
 Alpha  occ. eigenvalues --   -0.46639  -0.46537  -0.45997  -0.45614  -0.45129
 Alpha  occ. eigenvalues --   -0.44604  -0.44149  -0.43820  -0.43660  -0.43617
 Alpha  occ. eigenvalues --   -0.43096  -0.42752  -0.42646  -0.42340  -0.42234
 Alpha  occ. eigenvalues --   -0.41577  -0.41443  -0.41171  -0.40120  -0.39711
 Alpha  occ. eigenvalues --   -0.39472  -0.39369  -0.39081  -0.38745  -0.38319
 Alpha  occ. eigenvalues --   -0.37995  -0.37809  -0.37510  -0.37287  -0.37046
 Alpha  occ. eigenvalues --   -0.36295  -0.35796  -0.35685  -0.35252  -0.35217
 Alpha  occ. eigenvalues --   -0.35016  -0.34884  -0.34763  -0.34663  -0.34409
 Alpha  occ. eigenvalues --   -0.34319  -0.34170  -0.33758  -0.33361  -0.33218
 Alpha  occ. eigenvalues --   -0.33093  -0.32949  -0.32914  -0.32872  -0.32756
 Alpha  occ. eigenvalues --   -0.32436  -0.32173  -0.32005  -0.31646  -0.31599
 Alpha  occ. eigenvalues --   -0.31058  -0.30940  -0.30891  -0.30717  -0.30467
 Alpha  occ. eigenvalues --   -0.30221  -0.29890  -0.29625  -0.29556  -0.29145
 Alpha  occ. eigenvalues --   -0.28860  -0.28657  -0.28330  -0.28172  -0.28116
 Alpha  occ. eigenvalues --   -0.27988  -0.27839  -0.27619  -0.27578  -0.27343
 Alpha  occ. eigenvalues --   -0.27181  -0.27063  -0.26897  -0.26786  -0.26634
 Alpha  occ. eigenvalues --   -0.26428  -0.26352  -0.26296  -0.26151  -0.25982
 Alpha  occ. eigenvalues --   -0.25784  -0.25682  -0.25627  -0.25187  -0.25060
 Alpha  occ. eigenvalues --   -0.24935  -0.24933  -0.24652  -0.24183  -0.24171
 Alpha  occ. eigenvalues --   -0.23998  -0.23377  -0.23358  -0.23066  -0.22828
 Alpha  occ. eigenvalues --   -0.22804  -0.22620  -0.22477  -0.22088  -0.22003
 Alpha  occ. eigenvalues --   -0.20499
 Alpha virt. eigenvalues --   -0.07773  -0.07525  -0.07312  -0.06965  -0.06192
 Alpha virt. eigenvalues --   -0.06033  -0.05573  -0.04795  -0.04620  -0.04240
 Alpha virt. eigenvalues --   -0.04163  -0.03953  -0.03712  -0.02797  -0.02513
 Alpha virt. eigenvalues --   -0.02459  -0.02114  -0.01720  -0.01681  -0.01468
 Alpha virt. eigenvalues --   -0.01270  -0.00799  -0.00515  -0.00315  -0.00178
 Alpha virt. eigenvalues --    0.00148   0.00375   0.00827   0.01062   0.01287
 Alpha virt. eigenvalues --    0.01388   0.01567   0.02015   0.02085   0.02261
 Alpha virt. eigenvalues --    0.02396   0.02424   0.02996   0.03038   0.03384
 Alpha virt. eigenvalues --    0.03425   0.03795   0.03819   0.04161   0.04172
 Alpha virt. eigenvalues --    0.04397   0.04691   0.04949   0.05061   0.05202
 Alpha virt. eigenvalues --    0.05374   0.05462   0.05536   0.05539   0.05682
[...]
 .,0.,0.,0.,0.,0.,0.,0.,0.,0.,0.,0.,0.,0.,0.,0.,0.,0.,0.,0.,0.,0.,0.,0.
 ,0.,0.,0.,0.,0.,0.,0.,0.,0.,0.,0.,0.,0.,0.,0.,0.,0.,0.,0.,0.,0.,0.,0.,
 0.,0.,0.,0.,0.,0.,0.,0.,0.,0.,0.,0.,0.,0.,0.,0.,0.,0.,0.,0.,0.,0.,0.,0
 .,0.,0.,0.,0.,0.,0.,0.,0.,0.,0.,0.,0.,0.,0.,0.,0.,0.,0.,0.,0.,0.,0.,0.
 ,0.,0.,0.,0.,0.,0.,0.,0.,0.,0.,0.,0.,0.,0.,0.,0.,0.,0.,0.,0.,0.,0.,0.,
 0.,0.,0.,0.,0.,0.,0.,0.,0.,0.,0.,0.,0.,0.,0.,0.,0.,0.,0.,0.,0.,0.,0.,0
 .,0.,0.,0.,0.,0.,0.,0.,0.,0.,0.,0.,0.,0.,0.,0.,0.,0.,0.,0.,0.,0.,0.,0.
 ,0.,0.,0.,0.,0.,0.,0.,0.,0.,0.,0.,0.,0.,0.,0.,0.,0.,0.,0.,0.,0.,0.,0.,
 0.,0.,0.,0.,0.,0.,0.,0.,0.,0.,0.,0.,0.,0.,0.,0.,0.,0.,0.,0.,0.,0.,0.,0
 .,0.,0.,0.,0.,0.,0.,0.,0.,0.,0.,0.,0.,0.,0.,0.,0.,0.,0.,0.,0.,0.,0.,0.
 ,0.,0.,0.,0.,0.,0.,0.,0.,0.,0.,0.,0.,0.,0.,0.,0.,0.,0.,0.,0.,0.,0.,0.,
 0.,0.,0.,0.,0.,0.,0.,0.,0.,0.,0.,0.,0.,0.,0.,0.,0.,0.,0.,0.,0.,0.,0.,0
 .,0.,0.,0.,0.,0.,0.,0.,0.,0.,0.,0.,0.,0.,0.,0.,0.,0.,0.,0.,0.,0.,0.,0.
 ,0.,0.,0.,0.,0.,0.,0.,0.,0.,0.,0.,0.,0.,0.,0.,0.,0.,0.,0.,0.,0.,0.,0.,
 0.,0.,0.,0.,0.,0.,0.,0.,0.,0.,0.,0.,0.,0.,0.,0.,0.,0.,0.,0.,0.,0.,0.,0
 .,0.,0.,0.,0.,0.,0.,0.,0.,0.,0.,0.,0.,0.,0.,0.,0.,0.,0.,0.,0.,0.,0.,0.
 ,0.,0.,0.,0.,0.,0.,0.,0.,0.,0.,0.,0.,0.,0.,0.,0.,0.,0.,0.,0.,0.,0.,0.,
 0.,0.,0.,0.,0.,0.,0.,0.,0.,0.,0.,0.,0.,0.,0.,0.,0.,0.,0.,0.,0.,0.,0.,0
 .,0.,0.,0.,0.,0.,0.,0.,0.,0.,0.,0.,0.,0.,0.,0.,0.,0.,0.,0.,0.,0.,0.,0.
 ,0.,0.,0.,0.,0.,0.,0.,0.,0.,0.,0.,0.,0.,0.,0.,0.,0.,0.,0.,0.,0.,0.,0.,
 0.,0.,0.,0.,0.,0.,0.,0.,0.,0.,0.,0.,0.,0.,0.,0.,0.,0.,0.,0.,0.,0.,0.,0
 .,0.,0.,0.,0.,0.,0.,0.,0.,0.,0.,0.,0.,0.,0.,0.,0.,0.,0.,0.,0.,0.,0.,0.
 ,0.,0.,0.,0.,0.,0.,0.,0.,0.,0.,0.,0.,0.,0.,0.,0.,0.,0.,0.,0.,0.,0.,0.,
 0.,0.,0.,0.,0.,0.,0.,0.,0.,0.,0.,0.,0.,0.,0.,0.,0.,0.,0.,0.,0.,0.,0.,0
 .,0.,0.,0.,0.,0.,0.,0.,0.,0.,0.,0.,0.,0.,0.,0.,0.,0.,0.,0.,0.,0.,0.,0.
 ,0.,0.,0.,0.,0.,0.,0.,0.,0.,0.,0.,0.,0.,0.,0.,0.,0.,0.,0.,0.,0.,0.,0.,
 0.,0.,0.,0.,0.,0.,0.,0.,0.,0.,0.,0.,0.,0.,0.,0.,0.,0.,0.,0.,0.,0.,0.,0
 .,0.,0.,0.,0.,0.,0.,0.,0.,0.,0.,0.,0.,0.,0.,0.,0.,0.,0.,0.,0.,0.,0.,0.
 ,0.,0.,0.,0.,0.,0.,0.,0.,0.,0.,0.,0.,0.,0.,0.,0.,0.,0.,0.,0.,0.,0.,0.,
 0.,0.,0.,0.,0.,0.,0.,0.,0.,0.,0.,0.,0.,0.,0.,0.,0.,0.,0.,0.,0.,0.,0.,0
 .,0.,0.,0.,0.,0.,0.,0.,0.,0.,0.,0.,0.,0.,0.,0.,0.,0.,0.,0.,0.,0.,0.,0.
 ,0.,0.,0.,0.,0.,0.,0.,0.,0.,0.,0.,0.,0.,0.,0.,0.,0.,0.,0.,0.,0.,0.,0.,
 0.,0.,0.,0.,0.,0.,0.,0.,0.,0.,0.,0.,0.,0.,0.,0.,0.,0.,0.,0.,0.,0.,0.,0
 .,0.,0.,0.,0.,0.,0.,0.,0.,0.,0.,0.,0.,0.,0.,0.,0.,0.,0.,0.,0.,0.,0.,0.
 ,0.,0.,0.,0.,0.,0.,0.,0.,0.,0.,0.,0.,0.,0.,0.,0.,0.,0.,0.,0.,0.,0.,0.,
 0.,0.,0.,0.,0.,0.,0.,0.,0.,0.,0.,0.,0.,0.,0.,0.,0.,0.,0.,0.,0.,0.,0.,0
 .,0.,0.,0.,0.,0.,0.,0.,0.,0.,0.,0.,0.,0.,0.,0.,0.,0.,0.,0.,0.,0.,0.,0.
 ,0.,0.,0.,0.,0.,0.,0.,0.,0.,0.,0.,0.,0.,0.,0.,0.,0.,0.,0.,0.,0.,0.,0.,
 0.,0.,0.,0.,0.,0.,0.,0.,0.,0.,0.,0.,0.,0.,0.,0.,0.,0.,0.,0.,0.,0.,0.,0
 .,0.,0.,0.,0.,0.,0.,0.,0.,0.,0.,0.,0.,0.,0.,0.,0.,0.,0.,0.,0.,0.,0.,0.
 ,0.,0.,0.,0.,0.,0.,0.,0.,0.,0.,0.,0.,0.,0.,0.,0.,0.,0.,0.,0.,0.,0.,0.,
 0.,0.,0.,0.,0.,0.,0.,0.,0.,0.,0.,0.,0.,0.,0.,0.,0.,0.,0.,0.,0.,0.,0.,0
 .,0.,0.,0.,0.,0.,0.,0.,0.,0.,0.,0.,0.,0.,0.,0.,0.,0.,0.,0.,0.,0.,0.,0.
 ,0.,0.,0.,0.,0.,0.,0.,0.,0.,0.,0.,0.,0.,0.,0.,0.,0.,0.,0.,0.,0.,0.,0.,
 0.,0.,0.,0.,0.,0.,0.,0.,0.,0.,0.,0.,0.,0.,0.,0.,0.,0.,0.,0.,0.,0.,0.,0
 .,0.,0.,0.,0.,0.,0.,0.,0.,0.,0.,0.,0.,0.,0.,0.,0.,0.,0.,0.,0.,0.,0.,0.
 ,0.,0.,0.,0.,0.,0.,0.,0.,0.,0.,0.,0.,0.,0.,0.,0.,0.,0.,0.,0.,0.,0.,0.,
 0.,0.,0.,0.,0.,0.,0.,0.,0.,0.,0.,0.,0.,0.,0.,0.,0.,0.,0.,0.,0.,0.,0.,0
 .,0.,0.,0.,0.,0.,0.,0.,0.,0.,0.,0.,0.,0.,0.,0.,0.,0.,0.,0.,0.,0.,0.,0.
 ,0.,0.,0.,0.,0.,0.,0.,0.,0.,0.,0.,0.,0.,0.,0.,0.,0.,0.,0.,0.,0.,0.,0.,
 0.,0.,0.,0.,0.,0.,0.,0.,0.,0.,0.,0.,0.,0.,0.,0.,0.,0.,0.,0.,0.,0.,0.,0
 .,0.,0.,0.,0.,0.,0.,0.,0.,0.,0.,0.,0.,0.,0.,0.,0.,0.,0.,0.,0.,0.,0.,0.
 ,0.,0.,0.,0.,0.,0.,0.,0.,0.,0.,0.,0.,0.,0.,0.,0.,0.,0.,0.,0.,0.,0.,0.,
 0.,0.,0.,0.,0.,0.,0.,0.,0.,0.,0.,0.,0.,0.,0.,0.,0.,0.,0.,0.,0.,0.,0.,0
 .,0.,0.,0.,0.,0.,0.,0.,0.,0.,0.,0.,0.,0.,0.,0.,0.,0.,0.,0.,0.,0.,0.,0.
 ,0.,0.,0.,0.,0.,0.,0.,0.,0.,0.,0.,0.,0.,0.,0.,0.,0.,0.,0.,0.,0.,0.,0.,
 0.,0.,0.,0.,0.,0.,0.,0.,0.,0.,0.,0.,0.,0.,0.,0.,0.,0.,0.,0.,0.,0.,0.,0
 .,0.,0.,0.,0.,0.,0.,0.,0.,0.,0.,0.,0.,0.,0.,0.,0.,0.,0.,0.,0.,0.,0.,0.
 ,0.,0.,0.,0.,0.,0.,0.,0.,0.,0.,0.,0.,0.,0.,0.,0.,0.,0.,0.,0.,0.,0.,0.,
 0.,0.,0.,0.,0.,0.,0.,0.,0.,0.,0.,0.,0.,0.,0.,0.,0.,0.,0.,0.,0.,0.,0.,0
 .,0.,0.,0.,0.,0.,0.,0.,0.,0.,0.,0.,0.,0.,0.,0.,0.,0.,0.,0.,0.,0.,0.,0.
 ,0.,0.,0.,0.,0.,0.,0.,0.,0.,0.,0.,0.,0.,0.,0.,0.,0.,0.,0.,0.,0.,0.,0.,
 0.,0.,0.,0.,0.,0.,0.,0.,0.,0.,0.,0.,0.,0.,0.,0.,0.,0.,0.,0.,0.,0.,0.,0
 .,0.,0.,0.,0.,0.,0.,0.,0.,0.,0.,0.,0.,0.,0.,0.,0.,0.,0.,0.,0.,0.,0.,0.
 ,0.,0.,0.,0.,0.,0.,0.,0.,0.,0.,0.,0.,0.,0.,0.,0.,0.,0.,0.,0.,0.,0.,0.,
 0.,0.,0.,0.,0.,0.,0.,0.,0.,0.,0.,0.,0.,0.,0.,0.,0.,0.,0.,0.,0.,0.,0.,0
 .,0.,0.,0.,0.,0.,0.,0.,0.,0.,0.,0.,0.,0.,0.,0.,0.,0.,0.,0.,0.,0.,0.,0.
 ,0.,0.,0.,0.,0.,0.,0.,0.,0.,0.,0.,0.,0.,0.,0.,0.,0.,0.,0.,0.,0.,0.,0.,
 0.,0.,0.,0.,0.,0.,0.,0.,0.,0.,0.,0.,0.,0.,0.,0.,0.,0.,0.,0.,0.,0.,0.,0
 .,0.,0.,0.,0.,0.,0.,0.,0.,0.,0.,0.,0.,0.,0.,0.,0.,0.,0.,0.,0.,0.,0.,0.
 ,0.,0.,0.,0.,0.,0.,0.,0.,0.,0.,0.,0.,0.,0.,0.,0.,0.,0.,0.,0.,0.,0.,0.,
 0.,0.,0.,0.,0.,0.,0.,0.,0.,0.,0.,0.,0.,0.,0.,0.,0.,0.,0.,0.,0.,0.,0.,0
 .,0.,0.,0.,0.,0.,0.,0.,0.,0.,0.,0.,0.,0.,0.,0.,0.,0.,0.,0.,0.,0.,0.,0.
 ,0.,0.,0.,0.,0.,0.,0.,0.,0.,0.,0.,0.,0.,0.,0.,0.,0.,0.,0.,0.,0.,0.,0.,
 0.,0.,0.,0.,0.,0.,0.,0.,0.,0.,0.,0.,0.,0.,0.,0.,0.,0.,0.,0.,0.,0.,0.,0
 .,0.,0.,0.,0.,0.,0.,0.,0.,0.,0.,0.,0.,0.,0.,0.,0.,0.,0.,0.,0.,0.,0.,0.
 ,0.,0.,0.,0.,0.,0.,0.,0.,0.,0.,0.,0.,0.,0.,0.,0.,0.,0.,0.,0.,0.,0.,0.,
 0.,0.,0.,0.,0.,0.,0.,0.,0.,0.,0.,0.,0.,0.,0.,0.,0.,0.,0.,0.,0.,0.,0.,0
 .,0.,0.,0.,0.,0.,0.,0.,0.,0.,0.,0.,0.,0.,0.,0.,0.,0.,0.,0.,0.,0.,0.,0.
 ,0.,0.,0.,0.,0.,0.,0.,0.,0.,0.,0.,0.,0.,0.,0.,0.,0.,0.,0.,0.,0.,0.,0.,
 0.,0.,0.,0.,0.,0.,0.,0.,0.,0.,0.,0.,0.,0.,0.,0.,0.,0.,0.,0.,0.,0.,0.,0
 .,0.,0.,0.,0.,0.,0.,0.,0.,0.,0.,0.,0.,0.,0.,0.,0.,0.,0.,0.,0.,0.,0.,0.
 ,0.,0.,0.,0.,0.,0.,0.,0.,0.,0.,0.,0.,0.,0.,0.,0.,0.,0.,0.,0.,0.,0.,0.,
 0.,0.,0.,0.,0.,0.,0.,0.,0.,0.,0.,0.,0.,0.,0.,0.,0.,0.,0.,0.,0.,0.,0.,0
 .,0.,0.,0.,0.,0.,0.,0.,0.,0.,0.,0.,0.,0.,0.,0.,0.,0.,0.,0.,0.,0.,0.,0.
 ,0.,0.,0.,0.,0.,0.,0.,0.,0.,0.,0.,0.,0.,0.,0.,0.,0.,0.,0.,0.,0.,0.,0.,
 0.,0.,0.,0.,0.,0.,0.,0.,0.,0.,0.,0.,0.,0.,0.,0.,0.,0.,0.,0.,0.,0.,0.,0
 .,0.,0.,0.,0.,0.,0.,0.,0.,0.,0.,0.,0.,0.,0.,0.,0.,0.,0.,0.,0.,0.,0.,0.
 ,0.,0.,0.,0.,0.,0.,0.,0.,0.,0.,0.,0.,0.,0.,0.,0.,0.,0.,0.,0.,0.,0.,0.,
 0.,0.,0.,0.,0.,0.,0.,0.,0.,0.,0.,0.,0.,0.,0.,0.,0.,0.,0.,0.,0.,0.,0.,0
 .,0.,0.,0.,0.,0.,0.,0.,0.,0.,0.,0.,0.,0.,0.,0.,0.,0.,0.,0.,0.,0.,0.,0.
 ,0.,0.,0.,0.,0.,0.,0.,0.,0.,0.,0.,0.,0.,0.,0.,0.,0.,0.,0.,0.,0.,0.,0.,
 0.,0.,0.,0.,0.,0.,0.,0.,0.,0.,0.,0.,0.,0.,0.,0.,0.,0.,0.,0.,0.,0.,0.,0
 .,0.,0.,0.,0.,0.,0.,0.,0.,0.,0.,0.,0.,0.,0.,0.,0.,0.,0.,0.,0.,0.,0.,0.
 ,0.,0.,0.,0.,0.,0.,0.,0.,0.,0.,0.,0.,0.,0.,0.,0.,0.,0.,0.,0.,0.,0.,0.,
 0.,0.,0.,0.,0.,0.,0.,0.,0.,0.,0.,0.,0.,0.,0.,0.,0.,0.,0.,0.,0.,0.,0.,0
 .,0.,0.,0.,0.,0.,0.,0.,0.,0.,0.,0.,0.,0.,0.,0.,0.,0.,0.,0.,0.,0.,0.,0.
 ,0.,0.,0.,0.,0.,0.,0.,0.,0.,0.,0.,0.,0.,0.,0.,0.,0.,0.,0.,0.,0.,0.,0.,
 0.,0.,0.,0.,0.,0.,0.,0.,0.,0.,0.,0.,0.,0.,0.,0.,0.,0.,0.,0.,0.,0.,0.,0
 .,0.,0.,0.,0.,0.,0.,0.,0.,0.,0.,0.,0.,0.,0.,0.,0.,0.,0.,0.,0.,0.,0.,0.
 ,0.,0.,0.,0.,0.,0.,0.,0.,0.,0.,0.,0.,0.,0.,0.,0.,0.,0.,0.,0.,0.,0.,0.,
 0.,0.,0.,0.,0.,0.,0.,0.,0.,0.,0.,0.,0.,0.,0.,0.,0.,0.,0.,0.,0.,0.,0.,0
 .,0.,0.,0.,0.,0.,0.,0.,0.,0.,0.,0.,0.,0.,0.,0.,0.,0.,0.,0.,0.,0.,0.,0.
 ,0.,0.,0.,0.,0.,0.,0.,0.,0.,0.,0.,0.,0.,0.,0.,0.,0.,0.,0.,0.,0.,0.,0.,
 0.,0.,0.,0.,0.,0.,0.,0.,0.,0.,0.,0.,0.,0.,0.,0.,0.,0.,0.,0.,0.,0.,0.,0
 .,0.,0.,0.,0.,0.,0.,0.,0.,0.,0.,0.,0.,0.,0.,0.,0.,0.,0.,0.,0.,0.,0.,0.
 ,0.,0.,0.,0.,0.,0.,0.,0.,0.,0.,0.,0.,0.,0.,0.,0.,0.,0.,0.,0.,0.,0.,0.,
 0.,0.,0.,0.,0.,0.,0.,0.,0.,0.,0.,0.,0.,0.,0.,0.,0.,0.,0.,0.,0.,0.,0.,0
 .,0.,0.,0.,0.,0.,0.,0.,0.,0.,0.,0.,0.,0.,0.,0.,0.,0.,0.,0.,0.,0.,0.,0.
 ,0.,0.,0.,0.,0.,0.,0.,0.,0.,0.,0.,0.,0.,0.,0.,0.,0.,0.,0.,0.,0.,0.,0.,
 0.,0.,0.,0.,0.,0.,0.,0.,0.,0.,0.,0.,0.,0.,0.,0.,0.,0.,0.,0.,0.,0.,0.,0
 .,0.,0.,0.,0.,0.,0.,0.,0.,0.,0.,0.,0.,0.,0.,0.,0.,0.,0.,0.,0.,0.,0.,0.
 ,0.,0.,0.,0.,0.,0.,0.,0.,0.,0.,0.,0.,0.,0.,0.,0.,0.,0.,0.,0.,0.,0.,0.,
 0.,0.,0.,0.,0.,0.,0.,0.,0.,0.,0.,0.,0.,0.,0.,0.,0.,0.,0.,0.,0.,0.,0.,0
 .,0.,0.,0.,0.,0.,0.,0.,0.,0.,0.,0.,0.,0.,0.,0.,0.,0.,0.,0.,0.,0.,0.,0.
 ,0.,0.,0.,0.,0.,0.,0.,0.,0.,0.,0.,0.,0.,0.,0.,0.,0.,0.,0.,0.,0.,0.,0.,
 0.,0.,0.,0.,0.,0.,0.,0.,0.,0.,0.,0.,0.,0.,0.,0.,0.,0.,0.,0.,0.,0.,0.,0
 .,0.,0.,0.,0.,0.,0.,0.,0.,0.,0.,0.,0.,0.,0.,0.,0.,0.,0.,0.,0.,0.,0.,0.
 ,0.,0.,0.,0.,0.,0.,0.,0.,0.,0.,0.,0.,0.,0.,0.,0.,0.,0.,0.,0.,0.,0.,0.,
 0.,0.,0.,0.,0.,0.,0.,0.,0.,0.,0.,0.,0.,0.,0.,0.,0.,0.,0.,0.,0.,0.,0.,0
 .,0.,0.,0.,0.,0.,0.,0.,0.,0.,0.,0.,0.,0.,0.,0.,0.,0.,0.,0.,0.,0.,0.,0.
 ,0.,0.,0.,0.,0.,0.,0.,0.,0.,0.,0.,0.,0.,0.,0.,0.,0.,0.,0.,0.,0.,0.,0.,
 0.,0.,0.,0.,0.,0.,0.,0.,0.,0.,0.,0.,0.,0.,0.,0.,0.,0.,0.,0.,0.,0.,0.,0
 .,0.,0.,0.,0.,0.,0.,0.,0.,0.,0.,0.,0.,0.,0.,0.,0.,0.,0.,0.,0.,0.,0.,0.
 ,0.,0.,0.,0.,0.,0.,0.,0.,0.,0.,0.,0.,0.,0.,0.,0.,0.,0.,0.,0.,0.,0.,0.,
 0.,0.,0.,0.,0.,0.,0.,0.,0.,0.,0.,0.,0.,0.,0.,0.,0.,0.,0.,0.,0.,0.,0.,0
 .,0.,0.,0.,0.,0.,0.,0.,0.,0.,0.,0.,0.,0.,0.,0.,0.,0.,0.,0.,0.,0.,0.,0.
 ,0.,0.,0.,0.,0.,0.,0.,0.,0.,0.,0.,0.,0.,0.,0.,0.,0.,0.,0.,0.,0.,0.,0.,
 0.,0.,0.,0.,0.,0.,0.,0.,0.,0.,0.,0.,0.,0.,0.,0.,0.,0.,0.,0.,0.,0.,0.,0
 .,0.,0.,0.,0.,0.,0.,0.,0.,0.,0.,0.,0.,0.,0.,0.,0.,0.,0.,0.,0.,0.,0.,0.
 ,0.,0.,0.,0.,0.,0.,0.,0.,0.,0.,0.,0.,0.,0.,0.,0.,0.,0.,0.,0.,0.,0.,0.,
 0.,0.,0.,0.,0.,0.,0.,0.,0.,0.,0.,0.,0.,0.,0.,0.,0.,0.,0.,0.,0.,0.,0.,0
 .,0.,0.,0.,0.,0.,0.,0.,0.,0.,0.,0.,0.,0.,0.,0.,0.,0.,0.,0.,0.,0.,0.,0.
 ,0.,0.,0.,0.,0.,0.,0.,0.,0.,0.,0.,0.,0.,0.,0.,0.,0.,0.,0.,0.,0.,0.,0.,
 0.,0.,0.,0.,0.,0.,0.,0.,0.,0.,0.,0.,0.,0.,0.,0.,0.,0.,0.,0.,0.,0.,0.,0
 .,0.,0.,0.,0.,0.,0.,0.,0.,0.,0.,0.,0.,0.,0.,0.,0.,0.,0.,0.,0.,0.,0.,0.
 ,0.,0.,0.,0.,0.,0.,0.,0.,0.,0.,0.,0.,0.,0.,0.,0.,0.,0.,0.,0.,0.,0.,0.,
 0.,0.,0.,0.,0.,0.,0.,0.,0.,0.,0.,0.,0.,0.,0.,0.,0.,0.,0.,0.,0.,0.,0.,0
 .,0.,0.,0.,0.,0.,0.,0.,0.,0.,0.,0.,0.,0.,0.,0.,0.,0.,0.,0.,0.,0.,0.,0.
 ,0.,0.,0.,0.,0.,0.,0.,0.,0.,0.,0.,0.,0.,0.,0.,0.,0.,0.,0.,0.,0.,0.,0.,
 0.,0.,0.,0.,0.,0.,0.,0.,0.,0.,0.,0.,0.,0.,0.,0.,0.,0.,0.,0.,0.,0.,0.,0
 .,0.,0.,0.,0.,0.,0.,0.,0.,0.,0.,0.,0.,0.,0.,0.,0.,0.,0.,0.,0.,0.,0.,0.
 ,0.,0.,0.,0.,0.,0.,0.,0.,0.,0.,0.,0.,0.,0.,0.,0.,0.,0.,0.,0.,0.,0.,0.,
 0.,0.,0.,0.,0.,0.,0.,0.,0.,0.,0.,0.,0.,0.,0.,0.,0.,0.,0.,0.,0.,0.,0.,0
 .,0.,0.,0.,0.,0.,0.,0.,0.,0.,0.,0.,0.,0.,0.,0.,0.,0.,0.,0.,0.,0.,0.,0.
 ,0.,0.,0.,0.,0.,0.,0.,0.,0.,0.,0.,0.,0.,0.,0.,0.,0.,0.,0.,0.,0.,0.,0.,
 0.,0.,0.,0.,0.,0.,0.,0.,0.,0.,0.,0.,0.,0.,0.,0.,0.,0.,0.,0.,0.,0.,0.,0
 .,0.,0.,0.,0.,0.,0.,0.,0.,0.,0.,0.,0.,0.,0.,0.,0.,0.,0.,0.,0.,0.,0.,0.
 ,0.,0.,0.,0.,0.,0.,0.,0.,0.,0.,0.,0.,0.,0.,0.,0.,0.,0.,0.,0.,0.,0.,0.,
 0.,0.,0.,0.,0.,0.,0.,0.,0.,0.,0.,0.,0.,0.,0.,0.,0.,0.,0.,0.,0.,0.,0.,0
 .,0.,0.,0.,0.,0.,0.,0.,0.,0.,0.,0.,0.,0.,0.,0.,0.,0.,0.,0.,0.,0.,0.,0.
 ,0.,0.,0.,0.,0.,0.,0.,0.,0.,0.,0.,0.,0.,0.,0.,0.,0.,0.,0.,0.,0.,0.,0.,
 0.,0.,0.,0.,0.,0.,0.,0.,0.,0.,0.,0.,0.,0.,0.,0.,0.,0.,0.,0.,0.,0.,0.,0
 .,0.,0.,0.,0.,0.,0.,0.,0.,0.,0.,0.,0.,0.,0.,0.,0.,0.,0.,0.,0.,0.,0.,0.
 ,0.,0.,0.,0.,0.,0.,0.,0.,0.,0.,0.,0.,0.,0.,0.,0.,0.,0.,0.,0.,0.,0.,0.,
 0.,0.,0.,0.,0.,0.,0.,0.,0.,0.,0.,0.,0.,0.,0.,0.,0.,0.,0.,0.,0.,0.,0.,0
 .,0.,0.,0.,0.,0.,0.,0.,0.,0.,0.,0.,0.,0.,0.,0.,0.,0.,0.,0.,0.,0.,0.,0.
 ,0.,0.,0.,0.,0.,0.,0.,0.,0.,0.,0.,0.,0.,0.,0.,0.,0.,0.,0.,0.,0.,0.,0.,
 0.,0.,0.,0.,0.,0.,0.,0.,0.,0.,0.,0.,0.,0.,0.,0.,0.,0.,0.,0.,0.,0.,0.,0
 .,0.,0.,0.,0.,0.,0.,0.,0.,0.,0.,0.,0.,0.,0.,0.,0.,0.,0.,0.,0.,0.,0.,0.
 ,0.,0.,0.,0.,0.,0.,0.,0.,0.,0.,0.,0.,0.,0.,0.,0.,0.,0.,0.,0.,0.,0.,0.,
 0.,0.,0.,0.,0.,0.,0.,0.,0.,0.,0.,0.,0.,0.,0.,0.,0.,0.,0.,0.,0.,0.,0.,0
 .,0.,0.,0.,0.,0.,0.,0.,0.,0.,0.,0.,0.,0.,0.,0.,0.,0.,0.,0.,0.,0.,0.,0.
 ,0.,0.,0.,0.,0.,0.,0.,0.,0.,0.,0.,0.,0.,0.,0.,0.,0.,0.,0.,0.,0.,0.,0.,
 0.,0.,0.,0.,0.,0.,0.,0.,0.,0.,0.,0.,0.,0.,0.,0.,0.,0.,0.,0.,0.,0.,0.,0
 .,0.,0.,0.,0.,0.,0.,0.,0.,0.,0.,0.,0.,0.,0.,0.,0.,0.,0.,0.,0.,0.,0.,0.
 ,0.,0.,0.,0.,0.,0.,0.,0.,0.,0.,0.,0.,0.,0.,0.,0.,0.,0.,0.,0.,0.,0.,0.,
 0.,0.,0.,0.,0.,0.,0.,0.,0.,0.,0.,0.,0.,0.,0.,0.,0.,0.,0.,0.,0.,0.,0.,0
 .,0.,0.,0.,0.,0.,0.,0.,0.,0.,0.,0.,0.,0.,0.,0.,0.,0.,0.,0.,0.,0.,0.,0.
 ,0.,0.,0.,0.,0.,0.,0.,0.,0.,0.,0.,0.,0.,0.,0.,0.,0.,0.,0.,0.,0.,0.,0.,
 0.,0.,0.,0.,0.,0.,0.,0.,0.,0.,0.,0.,0.,0.,0.,0.,0.,0.,0.,0.,0.,0.,0.,0
 .,0.,0.,0.,0.,0.,0.,0.,0.,0.,0.,0.,0.,0.,0.,0.,0.,0.,0.,0.,0.,0.,0.,0.
 ,0.,0.,0.,0.,0.,0.,0.,0.,0.,0.,0.,0.,0.,0.,0.,0.,0.,0.,0.,0.,0.,0.,0.,
 0.,0.,0.,0.,0.,0.,0.,0.,0.,0.,0.,0.,0.,0.,0.,0.,0.,0.,0.,0.,0.,0.,0.,0
 .,0.,0.,0.,0.,0.,0.,0.,0.,0.,0.,0.,0.,0.,0.,0.,0.,0.,0.,0.,0.,0.,0.,0.
 ,0.,0.,0.,0.,0.,0.,0.,0.,0.,0.,0.,0.,0.,0.,0.,0.,0.,0.,0.,0.,0.,0.,0.,
 0.,0.,0.,0.,0.,0.,0.,0.,0.,0.,0.,0.,0.,0.,0.,0.,0.,0.,0.,0.,0.,0.,0.,0
 .,0.,0.,0.,0.,0.,0.,0.,0.,0.,0.,0.,0.,0.,0.,0.,0.,0.,0.,0.,0.,0.,0.,0.
 ,0.,0.,0.,0.,0.,0.,0.,0.,0.,0.,0.,0.,0.,0.,0.,0.,0.,0.,0.,0.,0.,0.,0.,
 0.,0.,0.,0.,0.,0.,0.,0.,0.,0.,0.,0.,0.,0.,0.,0.,0.,0.,0.,0.,0.,0.,0.,0
 .,0.,0.,0.,0.,0.,0.,0.,0.,0.,0.,0.,0.,0.,0.,0.,0.,0.,0.,0.,0.,0.,0.,0.
 ,0.,0.,0.,0.,0.,0.,0.,0.,0.,0.,0.,0.,0.,0.,0.,0.,0.,0.,0.,0.,0.,0.,0.,
 0.,0.,0.,0.,0.,0.,0.,0.,0.,0.,0.,0.,0.,0.,0.,0.,0.,0.,0.,0.,0.,0.,0.,0
 .,0.,0.,0.,0.,0.,0.,0.,0.,0.,0.,0.,0.,0.,0.,0.,0.,0.,0.,0.,0.,0.,0.,0.
 ,0.,0.,0.,0.,0.,0.,0.,0.,0.,0.,0.,0.,0.,0.,0.,0.,0.,0.,0.,0.,0.,0.,0.,
 0.,0.,0.,0.,0.,0.,0.,0.,0.,0.,0.,0.,0.,0.,0.,0.,0.,0.,0.,0.,0.,0.,0.,0
 .,0.,0.,0.,0.,0.,0.,0.,0.,0.,0.,0.,0.,0.,0.,0.,0.,0.,0.,0.,0.,0.,0.,0.
 ,0.,0.,0.,0.,0.,0.,0.,0.,0.,0.,0.,0.,0.,0.,0.,0.,0.,0.,0.,0.,0.,0.,0.,
 0.,0.,0.,0.,0.,0.,0.,0.,0.,0.,0.,0.,0.,0.,0.,0.,0.,0.,0.,0.,0.,0.,0.,0
 .,0.,0.,0.,0.,0.,0.,0.,0.,0.,0.,0.,0.,0.,0.,0.,0.,0.,0.,0.,0.,0.,0.,0.
 ,0.,0.,0.,0.,0.,0.,0.,0.,0.,0.,0.,0.,0.,0.,0.,0.,0.,0.,0.,0.,0.,0.,0.,
 0.,0.,0.,0.,0.,0.,0.,0.,0.,0.,0.,0.,0.,0.,0.,0.,0.,0.,0.,0.,0.,0.,0.,0
 .,0.,0.,0.,0.,0.,0.,0.,0.,0.,0.,0.,0.,0.,0.,0.,0.,0.,0.,0.,0.,0.,0.,0.
 ,0.,0.,0.,0.,0.,0.,0.,0.,0.,0.,0.,0.,0.,0.,0.,0.,0.,0.,0.,0.,0.,0.,0.,
 0.,0.,0.,0.,0.,0.,0.,0.,0.,0.,0.,0.,0.,0.,0.,0.,0.,0.,0.,0.,0.,0.,0.,0
 .,0.,0.,0.,0.,0.,0.,0.,0.,0.,0.,0.,0.,0.,0.,0.,0.,0.,0.,0.,0.,0.,0.,0.
 ,0.,0.,0.,0.,0.,0.,0.,0.,0.,0.,0.,0.,0.,0.,0.,0.,0.,0.,0.,0.,0.,0.,0.,
 0.,0.,0.,0.,0.,0.,0.,0.,0.,0.,0.,0.,0.,0.,0.,0.,0.,0.,0.,0.,0.,0.,0.,0
 .,0.,0.,0.,0.,0.,0.,0.,0.,0.,0.,0.,0.,0.,0.,0.,0.,0.,0.,0.,0.,0.,0.,0.
 ,0.,0.,0.,0.,0.,0.,0.,0.,0.,0.,0.,0.,0.,0.,0.,0.,0.,0.,0.,0.,0.,0.,0.,
 0.,0.,0.,0.,0.,0.,0.,0.,0.,0.,0.,0.,0.,0.,0.,0.,0.,0.,0.,0.,0.,0.,0.,0
 .,0.,0.,0.,0.,0.,0.,0.,0.,0.,0.,0.,0.,0.,0.,0.,0.,0.,0.,0.,0.,0.,0.,0.
 ,0.,0.,0.,0.,0.,0.,0.,0.,0.,0.,0.,0.,0.,0.,0.,0.,0.,0.,0.,0.,0.,0.,0.,
 0.,0.,0.,0.,0.,0.,0.,0.,0.,0.,0.,0.,0.,0.,0.,0.,0.,0.,0.,0.,0.,0.,0.,0
 .,0.,0.,0.,0.,0.,0.,0.,0.,0.,0.,0.,0.,0.,0.,0.,0.,0.,0.,0.,0.,0.,0.,0.
 ,0.,0.,0.,0.,0.,0.,0.,0.,0.,0.,0.,0.,0.,0.,0.,0.,0.,0.,0.,0.,0.,0.,0.,
 0.,0.,0.,0.,0.,0.,0.,0.,0.,0.,0.,0.,0.,0.,0.,0.,0.,0.,0.,0.,0.,0.,0.,0
 .,0.,0.,0.,0.,0.,0.,0.,0.,0.,0.,0.,0.,0.,0.,0.,0.,0.,0.,0.,0.,0.,0.,0.
 ,0.,0.,0.,0.,0.,0.,0.,0.,0.,0.,0.,0.,0.,0.,0.,0.,0.,0.,0.,0.,0.,0.,0.,
 0.,0.,0.,0.,0.,0.,0.,0.,0.,0.,0.,0.,0.,0.,0.,0.,0.,0.,0.,0.,0.,0.,0.,0
 .,0.,0.,0.,0.,0.,0.,0.,0.,0.,0.,0.,0.,0.,0.,0.,0.,0.,0.,0.,0.,0.,0.,0.
 ,0.,0.,0.,0.,0.,0.,0.,0.,0.,0.,0.,0.,0.,0.,0.,0.,0.,0.,0.,0.,0.,0.,0.,
 0.,0.,0.,0.,0.,0.,0.,0.,0.,0.,0.,0.,0.,0.,0.,0.,0.,0.,0.,0.,0.,0.,0.,0
 .,0.,0.,0.,0.,0.,0.,0.,0.,0.,0.,0.,0.,0.,0.,0.,0.,0.,0.,0.,0.,0.,0.,0.
 ,0.,0.,0.,0.,0.,0.,0.,0.,0.,0.,0.,0.,0.,0.,0.,0.,0.,0.,0.,0.,0.,0.,0.,
 0.,0.,0.,0.,0.,0.,0.,0.,0.,0.,0.,0.,0.,0.,0.,0.,0.,0.,0.,0.,0.,0.,0.,0
 .,0.,0.,0.,0.,0.,0.,0.,0.,0.,0.,0.,0.,0.,0.,0.,0.,0.,0.,0.,0.,0.,0.,0.
 ,0.,0.,0.,0.,0.,0.,0.,0.,0.,0.,0.,0.,0.,0.,0.,0.,0.,0.,0.,0.,0.,0.,0.,
 0.,0.,0.,0.,0.,0.,0.,0.,0.,0.,0.,0.,0.,0.,0.,0.,0.,0.,0.,0.,0.,0.,0.,0
 .,0.,0.,0.,0.,0.,0.,0.,0.,0.,0.,0.,0.,0.,0.,0.,0.,0.,0.,0.,0.,0.,0.,0.
 ,0.,0.,0.,0.,0.,0.,0.,0.,0.,0.,0.,0.,0.,0.,0.,0.,0.,0.,0.,0.,0.,0.,0.,
 0.,0.,0.,0.,0.,0.,0.,0.,0.,0.,0.,0.,0.,0.,0.,0.,0.,0.,0.,0.,0.,0.,0.,0
 .,0.,0.,0.,0.,0.,0.,0.,0.,0.,0.,0.,0.,0.,0.,0.,0.,0.,0.,0.,0.,0.,0.,0.
 ,0.,0.,0.,0.,0.,0.,0.,0.,0.,0.,0.,0.,0.,0.,0.,0.,0.,0.,0.,0.,0.,0.,0.,
 0.,0.,0.,0.,0.,0.,0.,0.,0.,0.,0.,0.,0.,0.,0.,0.,0.,0.,0.,0.,0.,0.,0.,0
 .,0.,0.,0.,0.,0.,0.,0.,0.,0.,0.,0.,0.,0.,0.,0.,0.,0.,0.,0.,0.,0.,0.,0.
 ,0.,0.,0.,0.,0.,0.,0.,0.,0.,0.,0.,0.,0.,0.,0.,0.,0.,0.,0.,0.,0.,0.,0.,
 0.,0.,0.,0.,0.,0.,0.,0.,0.,0.,0.,0.,0.,0.,0.,0.,0.,0.,0.,0.,0.,0.,0.,0
 .,0.,0.,0.,0.,0.,0.,0.,0.,0.,0.,0.,0.,0.,0.,0.,0.,0.,0.,0.,0.,0.,0.,0.
 ,0.,0.,0.,0.,0.,0.,0.,0.,0.,0.,0.,0.,0.,0.,0.,0.,0.,0.,0.,0.,0.,0.,0.,
 0.,0.,0.,0.,0.,0.,0.,0.,0.,0.,0.,0.,0.,0.,0.,0.,0.,0.,0.,0.,0.,0.,0.,0
 .,0.,0.,0.,0.,0.,0.,0.,0.,0.,0.,0.,0.,0.,0.,0.,0.,0.,0.,0.,0.,0.,0.,0.
 ,0.,0.,0.,0.,0.,0.,0.,0.,0.,0.,0.,0.,0.,0.,0.,0.,0.,0.,0.,0.,0.,0.,0.,
 0.,0.,0.,0.,0.,0.,0.,0.,0.,0.,0.,0.,0.,0.,0.,0.,0.,0.,0.,0.,0.,0.,0.,0
 .,0.,0.,0.,0.,0.,0.,0.,0.,0.,0.,0.,0.,0.,0.,0.,0.,0.,0.,0.,0.,0.,0.,0.
 ,0.,0.,0.,0.,0.,0.,0.,0.,0.,0.,0.,0.,0.,0.,0.,0.,0.,0.,0.,0.,0.,0.,0.,
 0.,0.,0.,0.,0.,0.,0.,0.,0.,0.,0.,0.,0.,0.,0.,0.,0.,0.,0.,0.,0.,0.,0.,0
 .,0.,0.,0.,0.,0.,0.,0.,0.,0.,0.,0.,0.,0.,0.,0.,0.,0.,0.,0.,0.,0.,0.,0.
 ,0.,0.,0.,0.,0.,0.,0.,0.,0.,0.,0.,0.,0.,0.,0.,0.,0.,0.,0.,0.,0.,0.,0.,
 0.,0.,0.,0.,0.,0.,0.,0.,0.,0.,0.,0.,0.,0.,0.,0.,0.,0.,0.,0.,0.,0.,0.,0
 .,0.,0.,0.,0.,0.,0.,0.,0.,0.,0.,0.,0.,0.,0.,0.,0.,0.,0.,0.,0.,0.,0.,0.
 ,0.,0.,0.,0.,0.,0.,0.,0.,0.,0.,0.,0.,0.,0.,0.,0.,0.,0.,0.,0.,0.,0.,0.,
 0.,0.,0.,0.,0.,0.,0.,0.,0.,0.,0.,0.,0.,0.,0.,0.,0.,0.,0.,0.,0.,0.,0.,0
 .,0.,0.,0.,0.,0.,0.,0.,0.,0.,0.,0.,0.,0.,0.,0.,0.,0.,0.,0.,0.,0.,0.,0.
 ,0.,0.,0.,0.,0.,0.,0.,0.,0.,0.,0.,0.,0.,0.,0.,0.,0.,0.,0.,0.,0.,0.,0.,
 0.,0.,0.,0.,0.,0.,0.,0.,0.,0.,0.,0.,0.,0.,0.,0.,0.,0.,0.,0.,0.,0.,0.,0
 .,0.,0.,0.,0.,0.,0.,0.,0.,0.,0.,0.,0.,0.,0.,0.,0.,0.,0.,0.,0.,0.,0.,0.
 ,0.,0.,0.,0.,0.,0.,0.,0.,0.,0.,0.,0.,0.,0.,0.,0.,0.,0.,0.,0.,0.,0.,0.,
 0.,0.,0.,0.,0.,0.,0.,0.,0.,0.,0.,0.,0.,0.,0.,0.,0.,0.,0.,0.,0.,0.,0.,0
 .,0.,0.,0.,0.,0.,0.,0.,0.,0.,0.,0.,0.,0.,0.,0.,0.,0.,0.,0.,0.,0.,0.,0.
 ,0.,0.,0.,0.,0.,0.,0.,0.,0.,0.,0.,0.,0.,0.,0.,0.,0.,0.,0.,0.,0.,0.,0.,
 0.,0.,0.,0.,0.,0.,0.,0.,0.,0.,0.,0.,0.,0.,0.,0.,0.,0.,0.,0.,0.,0.,0.,0
 .,0.,0.,0.,0.,0.,0.,0.,0.,0.,0.,0.,0.,0.,0.,0.,0.,0.,0.,0.,0.,0.,0.,0.
 ,0.,0.,0.,0.,0.,0.,0.,0.,0.,0.,0.,0.,0.,0.,0.,0.,0.,0.,0.,0.,0.,0.,0.,
 0.,0.,0.,0.,0.,0.,0.,0.,0.,0.,0.,0.,0.,0.,0.,0.,0.,0.,0.,0.,0.,0.,0.,0
 .,0.,0.,0.,0.,0.,0.,0.,0.,0.,0.,0.,0.,0.,0.,0.,0.,0.,0.,0.,0.,0.,0.,0.
 ,0.,0.,0.,0.,0.,0.,0.,0.,0.,0.,0.,0.,0.,0.,0.,0.,0.,0.,0.,0.,0.,0.,0.,
 0.,0.,0.,0.,0.,0.,0.,0.,0.,0.,0.,0.,0.,0.,0.,0.,0.,0.,0.,0.,0.,0.,0.,0
 .,0.||0.,0.,0.,0.,0.,0.,0.,0.,0.,0.,0.,0.,0.,0.,0.,0.,0.,0.,0.,0.,0.,0
 .,0.,0.,0.,0.,0.,0.,0.,0.,0.,0.,0.,0.,0.,0.,0.,0.,0.,0.,0.,0.,0.,0.,0.
 ,0.,0.,0.,0.,0.,0.,0.02461029,0.00078670,0.05491944,0.,0.,0.,0.,0.,0.,
 0.02458254,-0.00199573,-0.05490147,0.,0.,0.,0.,0.,0.,0.,0.,0.,0.,0.,0.
 ,0.,0.,0.,0.,0.,0.,0.,0.,0.,0.,0.,0.,0.,0.,0.,0.,0.,0.,0.,0.,0.,0.,0.,
 0.,0.,0.,0.,0.,0.,0.,0.,0.,0.,0.,0.,0.,0.,0.,0.,0.,0.,0.,0.,0.,0.,0.,0
 .,0.,0.,0.,0.,0.,0.,0.,0.,0.,0.,0.,0.,0.,0.,0.,0.,0.,0.,0.,0.,0.,0.|||
 @


 I MET A TRAVELLER FROM AN ANTIQUE LAND
 WHO SAID... TWO VAST AND TRUNKLESS LEGS OF STONE
 STAND IN THE DESERT..... NEAR THEM,  ON THE SAND,
 HALF SUNK,  A SHATTERED VISAGE LIES,  WHOSE FROWN,
 AND WRINKLED LIP,  AND SNEER OF COLD COMMAND
 TELL THAT ITS SCULPTOR WELL THOSE PASSIONS READ
 WHICH YET SURVIVE,  STAMPED ON THESE LIFELESS THINGS
 THE HAND THAT MOCKED THEM,  AND THE HEART THAT FED-
 AND ON THE PEDESTAL THESE WORDS APPEAR 
 MY NAME IS OZYMANDIAS, KING OF KINGS--   
 LOOK ON MY WORKS YE MIGHTY AND DESPAIR. 
 NOTHING BESIDE REMAINS,  ROUND THE DECAY 
 OF THAT COLOSSAL WRECK,  BOUNDLESS AND BARE
 THE LONE AND LEVEL SANDS STRETCH FAR AWAY.
                                    SHELLEY
 Job cpu time:       0 days  0 hours  3 minutes 46.0 seconds.
 File lengths (MBytes):  RWF=   1039 Int=      0 D2E=      0 Chk=     11 Scr=      1
 Normal termination of Gaussian 09 at Tue Mar 10 00:01:32 2026.
