 Entering Link 1 = C:\G09W\l1.exe PID=     11608.
  
 Copyright (c) 1988,1990,1992,1993,1995,1998,2003,2009,2013,
            Gaussian, Inc.  All Rights Reserved.
  
 This is part of the Gaussian(R) 09 program.  It is based on
 the Gaussian(R) 03 system (copyright 2003, Gaussian, Inc.),
 the Gaussian(R) 98 system (copyright 1998, Gaussian, Inc.),
 the Gaussian(R) 94 system (copyright 1995, Gaussian, Inc.),
 the Gaussian 92(TM) system (copyright 1992, Gaussian, Inc.),
 the Gaussian 90(TM) system (copyright 1990, Gaussian, Inc.),
 the Gaussian 88(TM) system (copyright 1988, Gaussian, Inc.),
 the Gaussian 86(TM) system (copyright 1986, Carnegie Mellon
 University), and the Gaussian 82(TM) system (copyright 1983,
 Carnegie Mellon University). Gaussian is a federally registered
 trademark of Gaussian, Inc.
  
 This software contains proprietary and confidential information,
 including trade secrets, belonging to Gaussian, Inc.
  
 This software is provided under written license and may be
 used, copied, transmitted, or stored only in accord with that
 written license.
  
 The following legend is applicable only to US Government
 contracts under FAR:
  
                    RESTRICTED RIGHTS LEGEND
  
 Use, reproduction and disclosure by the US Government is
 subject to restrictions as set forth in subparagraphs (a)
 and (c) of the Commercial Computer Software - Restricted
 Rights clause in FAR 52.227-19.
  
 Gaussian, Inc.
 340 Quinnipiac St., Bldg. 40, Wallingford CT 06492
  
  
 ---------------------------------------------------------------
 Warning -- This program may not be used in any manner that
 competes with the business of Gaussian, Inc. or will provide
 assistance to any competitor of Gaussian, Inc.  The licensee
 of this program is prohibited from giving any competitor of
 Gaussian, Inc. access to this program.  By using this program,
 the user acknowledges that Gaussian, Inc. is engaged in the
 business of creating and licensing software in the field of
 computational chemistry and represents and warrants to the
 licensee that it is not a competitor of Gaussian, Inc. and that
 it will not use this program in any manner prohibited above.
 ---------------------------------------------------------------
  

 Cite this work as:
 Gaussian 09, Revision D.01,
 M. J. Frisch, G. W. Trucks, H. B. Schlegel, G. E. Scuseria, 
 M. A. Robb, J. R. Cheeseman, G. Scalmani, V. Barone, B. Mennucci, 
 G. A. Petersson, H. Nakatsuji, M. Caricato, X. Li, H. P. Hratchian, 
 A. F. Izmaylov, J. Bloino, G. Zheng, J. L. Sonnenberg, M. Hada, 
 M. Ehara, K. Toyota, R. Fukuda, J. Hasegawa, M. Ishida, T. Nakajima, 
 Y. Honda, O. Kitao, H. Nakai, T. Vreven, J. A. Montgomery, Jr., 
 J. E. Peralta, F. Ogliaro, M. Bearpark, J. J. Heyd, E. Brothers, 
 K. N. Kudin, V. N. Staroverov, T. Keith, R. Kobayashi, J. Normand, 
 K. Raghavachari, A. Rendell, J. C. Burant, S. S. Iyengar, J. Tomasi, 
 M. Cossi, N. Rega, J. M. Millam, M. Klene, J. E. Knox, J. B. Cross, 
 V. Bakken, C. Adamo, J. Jaramillo, R. Gomperts, R. E. Stratmann, 
 O. Yazyev, A. J. Austin, R. Cammi, C. Pomelli, J. W. Ochterski, 
 R. L. Martin, K. Morokuma, V. G. Zakrzewski, G. A. Voth, 
 P. Salvador, J. J. Dannenberg, S. Dapprich, A. D. Daniels, 
 O. Farkas, J. B. Foresman, J. V. Ortiz, J. Cioslowski, 
 and D. J. Fox, Gaussian, Inc., Wallingford CT, 2013.
 
 ******************************************
 Gaussian 09:  IA32W-G09RevD.01 24-Apr-2013
                05-Jan-2025 
 ******************************************
 %nprocshared=2
 Will use up to    2 processors via shared memory.
 %mem=1GB
 %chk=C:\Users\Yash Shaw\Desktop\GaussView Work\New work\Rh doped MoS2\Pt doped M
 oS2.chk
 ------------------------------------------------
 # freq pm6 guess=huckel scf=qc geom=connectivity
 ------------------------------------------------
 1/10=4,30=1,38=1,57=2/1,3;
 2/12=2,17=6,18=5,40=1/2;
 3/5=2,16=1,25=1,41=3900000,71=2,140=1/1,2,3;
 4/11=4,35=1/1;
 5/5=2,8=3,35=1,38=5,98=1/8;
 8/6=4,10=90,11=11/1;
 11/6=1,8=1,9=11,15=111,16=1/1,2,10;
 10/6=1/2;
 6/7=2,8=2,9=2,10=2,18=1,28=1/1;
 7/8=1,10=1,25=1/1,2,3,16;
 1/10=4,30=1/3;
 99//99;
 ----------------
 Pt-doped MoS2+CO
 ----------------
 Symbolic Z-matrix:
 Charge =  0 Multiplicity = 1
 Mo                   -1   -1.55176   0.25838   1.0043 
 S                    -1   -2.8823    1.30794   2.72757 
 S                    -1   -3.53749   0.75227  -0.28198 
 Mo                   -1    1.54451   0.52124   0.2817 
 Mo                   -1    4.64077   0.78411  -0.44089 
 Mo                   -1    7.73704   1.04697  -1.16349 
 S                    -1    0.21397   1.5708    2.00497 
 S                    -1    3.31023   1.83366   1.28238 
 S                    -1    6.4065    2.09652   0.55978 
 S                    -1   -0.44122   1.01513  -1.00458 
 S                    -1    2.65505   1.27799  -1.72718 
 S                    -1    5.75131   1.54085  -2.44978 
 Mo                   -1   -3.4299    2.8364    0.93718 
 Mo                   -1   -5.30804   5.41443   0.87006 
 Mo                   -1   -7.18618   7.99245   0.80294 
 S                    -1   -4.76044   3.88596   2.66045 
 S                    -1   -6.63858   6.46398   2.59333 
 S                    -1   -8.51672   9.04201   2.52621 
 S                    -1   -5.41563   3.33029  -0.3491 
 S                    -1   -7.29377   5.90831  -0.41622 
 S                    -1   -9.17191   8.48633  -0.48334 
 Mo                   -1   -0.33363   3.09927   0.21458 
 Mo                   -1   -2.21177   5.67729   0.14746 
 Mo                   -1   -4.08991   8.25531   0.08034 
 Mo                   -1    2.76263   3.36213  -0.50801 
 Mo                   -1   -0.99364   8.51817  -0.64226 
 Mo                   -1    5.8589    3.62499  -1.23061 
 Mo                   -1    3.98076   6.20301  -1.29773 
 Mo                   -1    2.10262   8.78104  -1.36485 
 S                    -1   -1.66417   4.14882   1.93785 
 S                    -1   -3.54231   6.72685   1.87073 
 S                    -1   -5.42045   9.30487   1.80361 
 S                    -1    1.43209   4.41168   1.21525 
 S                    -1   -0.44605   6.98971   1.14813 
 S                    -1   -2.32419   9.56773   1.08101 
 S                    -1    4.52836   4.67455   0.49266 
 S                    -1    2.65022   7.25257   0.42554 
 S                    -1    0.77208   9.83059   0.35842 
 S                    -1   -2.31936   3.59315  -1.0717 
 S                    -1   -4.1975    6.17117  -1.13882 
 S                    -1   -6.07564   8.7492   -1.20594 
 S                    -1    0.77691   3.85601  -1.7943 
 S                    -1   -1.10123   6.43404  -1.86142 
 S                    -1   -2.97937   9.01206  -1.92854 
 S                    -1    3.87317   4.11887  -2.5169 
 S                    -1    1.99503   6.6969   -2.58402 
 S                    -1    0.11689   9.27492  -2.65114 
 Pt                   -1    0.8845    5.94015  -0.57514 
 C                    0     0.80267   5.21666   3.01082 
 O                    0     1.83221   4.76199   2.93529 
 

 GradGradGradGradGradGradGradGradGradGradGradGradGradGradGradGradGradGrad
 Berny optimization.
 Initialization pass.
 Trust Radius=3.00D-01 FncErr=1.00D-07 GrdErr=1.00D-07
 Number of steps in this run=      2 maximum allowed number of steps=      2.
 GradGradGradGradGradGradGradGradGradGradGradGradGradGradGradGradGradGrad

                          Input orientation:                          
 ---------------------------------------------------------------------
 Center     Atomic      Atomic             Coordinates (Angstroms)
 Number     Number       Type             X           Y           Z
 ---------------------------------------------------------------------
      1         42           0       -1.551760    0.258382    1.004302
      2         16           0       -2.882302    1.307938    2.727571
      3         16           0       -3.537488    0.752266   -0.281982
      4         42           0        1.544508    0.521244    0.281704
      5         42           0        4.640775    0.784106   -0.440894
      6         42           0        7.737042    1.046968   -1.163492
      7         16           0        0.213965    1.570800    2.004973
      8         16           0        3.310232    1.833662    1.282375
      9         16           0        6.406499    2.096524    0.559777
     10         16           0       -0.441221    1.015128   -1.004580
     11         16           0        2.655046    1.277990   -1.727178
     12         16           0        5.751313    1.540852   -2.449776
     13         42           0       -3.429899    2.836405    0.937182
     14         42           0       -5.308039    5.414427    0.870061
     15         42           0       -7.186179    7.992450    0.802941
     16         16           0       -4.760442    3.885961    2.660451
     17         16           0       -6.638581    6.463983    2.593330
     18         16           0       -8.516721    9.042006    2.526210
     19         16           0       -5.415628    3.330289   -0.349103
     20         16           0       -7.293768    5.908311   -0.416223
     21         16           0       -9.171908    8.486334   -0.483343
     22         42           0       -0.333632    3.099266    0.214584
     23         42           0       -2.211772    5.677289    0.147463
     24         42           0       -4.089912    8.255312    0.080343
     25         42           0        2.762635    3.362128   -0.508015
     26         42           0       -0.993644    8.518173   -0.642256
     27         42           0        5.858902    3.624990   -1.230613
     28         42           0        3.980762    6.203013   -1.297733
     29         42           0        2.102623    8.781035   -1.364854
     30         16           0       -1.664174    4.148823    1.937853
     31         16           0       -3.542314    6.726845    1.870732
     32         16           0       -5.420454    9.304868    1.803612
     33         16           0        1.432093    4.411685    1.215255
     34         16           0       -0.446047    6.989707    1.148134
     35         16           0       -2.324187    9.567730    1.081014
     36         16           0        4.528360    4.674546    0.492657
     37         16           0        2.650220    7.252569    0.425536
     38         16           0        0.772080    9.830592    0.358416
     39         16           0       -2.319361    3.593151   -1.071701
     40         16           0       -4.197501    6.171173   -1.138821
     41         16           0       -6.075640    8.749196   -1.205942
     42         16           0        0.776906    3.856013   -1.794299
     43         16           0       -1.101234    6.434035   -1.861419
     44         16           0       -2.979373    9.012058   -1.928540
     45         16           0        3.873173    4.118875   -2.516897
     46         16           0        1.995033    6.696897   -2.584017
     47         16           0        0.116894    9.274920   -2.651138
     48         78           0        0.884495    5.940151   -0.575135
     49          6           0        0.802672    5.216657    3.010824
     50          8           0        1.832214    4.761992    2.935289
 ---------------------------------------------------------------------
                    Distance matrix (angstroms):
                    1          2          3          4          5
     1  Mo   0.000000
     2  S    2.416934   0.000000
     3  S    2.416934   3.129769   0.000000
     4  Mo   3.190316   5.118378   5.118378   0.000000
     5  Mo   6.380631   8.179869   8.179869   3.190316   0.000000
     6  Mo   9.570947  11.312778  11.312778   6.380631   3.190316
     7  S    2.416934   3.190316   4.469180   2.416934   5.118378
     8  S    5.118378   6.380631   7.106892   2.416934   2.416934
     9  S    8.179869   9.570947  10.069681   5.118378   2.416934
    10  S    2.416934   4.469180   3.190316   2.416934   5.118378
    11  S    5.118378   7.106892   6.380631   2.416934   2.416934
    12  S    8.179869  10.069681   9.570947   5.118378   2.416934
    13  Mo   3.190316   2.416934   2.416934   5.525789   8.440782
    14  Mo   6.380631   5.118378   5.118378   8.440782  11.051578
    15  Mo   9.570947   8.179869   8.179869  11.502847  13.906264
    16  S    5.118378   3.190316   4.469180   7.532074  10.374137
    17  S    8.179869   6.380631   7.106892  10.374137  12.988125
    18  S   11.312778   9.570947  10.069681  13.374211  15.815066
    19  S    5.118378   4.469180   3.190316   7.532074  10.374137
    20  S    8.179869   7.106892   6.380631  10.374137  12.988125
    21  S   11.312778  10.069681   9.570947  13.374211  15.815066
    22  Mo   3.190316   4.002460   4.002460   3.190316   5.525789
    23  Mo   5.525789   5.118378   5.118378   6.380631   8.440782
    24  Mo   8.440782   7.532074   7.532074   9.570947  11.502847
    25  Mo   5.525789   6.823051   6.823051   3.190316   3.190316
    26  Mo   8.440782   8.179869   8.179869   8.440782   9.570947
    27  Mo   8.440782   9.871403   9.871403   5.525789   3.190316
    28  Mo   8.440782   9.341653   9.341653   6.380631   5.525789
    29  Mo   9.570947   9.871403   9.871403   8.440782   8.440782
    30  S    4.002460   3.190316   4.469180   5.118378   7.532074
    31  S    6.823051   5.525789   6.350574   8.179869  10.374137
    32  S    9.871403   8.440782   9.002347  11.312778  13.374211
    33  S    5.118378   5.525789   6.350574   4.002460   5.118378
    34  S    6.823051   6.380631   7.106892   6.823051   8.179869
    35  S    9.341653   8.440782   9.002347   9.871403  11.312778
    36  S    7.532074   8.440782   9.002347   5.118378   4.002460
    37  S    8.179869   8.440782   9.002347   6.823051   6.823051
    38  S    9.871403   9.570947  10.069681   9.341653   9.871403
    39  S    4.002460   4.469180   3.190316   5.118378   7.532074
    40  S    6.823051   6.350574   5.525789   8.179869  10.374137
    41  S    9.871403   9.002347   8.440782  11.312778  13.374211
    42  S    5.118378   6.350574   5.525789   4.002460   5.118378
    43  S    6.823051   7.106892   6.380631   6.823051   8.179869
    44  S    9.341653   9.002347   8.440782   9.871403  11.312778
    45  S    7.532074   9.002347   8.440782   5.118378   4.002460
    46  S    8.179869   9.002347   8.440782   6.823051   6.823051
    47  S    9.871403  10.069681   9.570947   9.341653   9.871403
    48  Pt   6.380631   6.823051   6.823051   5.525789   6.380631
    49  C    5.844140   5.379344   7.043461   5.481361   6.803889
    50  O    5.955039   5.848102   7.433871   5.010811   5.925386
                    6          7          8          9         10
     6  Mo   0.000000
     7  S    8.179869   0.000000
     8  S    5.118378   3.190316   0.000000
     9  S    2.416934   6.380631   3.190316   0.000000
    10  S    8.179869   3.129769   4.469180   7.106892   0.000000
    11  S    5.118378   4.469180   3.129769   4.469180   3.190316
    12  S    2.416934   7.106892   4.469180   3.129769   6.380631
    13  Mo  11.502847   4.002460   6.823051   9.871403   4.002459
    14  Mo  13.906264   6.823051   9.341653  12.179293   6.823051
    15  Mo  16.577367   9.871403  12.179293  14.818298   9.871403
    16  S   13.374211   5.525789   8.440782  11.502847   6.350574
    17  S   15.815066   8.440782  11.051578  13.906264   9.002347
    18  S   18.485652  11.502847  13.906264  16.577367  11.921029
    19  S   13.374211   6.350574   9.002347  11.921029   5.525789
    20  S   15.815066   9.002347  11.486201  14.254109   8.440782
    21  S   18.485652  11.921029  14.254109  16.870226  11.502847
    22  Mo   8.440782   2.416934   4.002460   6.823051   2.416934
    23  Mo  11.051578   5.118378   6.823051   9.341653   5.118378
    24  Mo  13.906264   8.179869   9.871403  12.179293   8.179869
    25  Mo   5.525789   4.002460   2.416934   4.002460   4.002460
    26  Mo  11.502847   7.532074   8.179869   9.871403   7.532074
    27  Mo   3.190316   6.823051   4.002460   2.416934   6.823051
    28  Mo   6.380631   6.823051   5.118378   5.118378   6.823051
    29  Mo   9.570947   8.179869   7.532074   8.179869   8.179869
    30  S   10.374137   3.190316   5.525789   8.440782   4.469180
    31  S   12.988125   6.380631   8.440782  11.051578   7.106892
    32  S   15.815066   9.570947  11.502847  13.906264  10.069681
    33  S    7.532074   3.190316   3.190316   5.525789   4.469180
    34  S   10.374137   5.525789   6.380631   8.440782   6.350574
    35  S   13.374211   8.440782   9.570947  11.502847   9.002347
    36  S    5.118378   5.525789   3.190316   3.190316   6.350574
    37  S    8.179869   6.380631   5.525789   6.380631   7.106892
    38  S   11.312778   8.440782   8.440782   9.570947   9.002347
    39  S   10.374137   4.469180   6.350574   9.002347   3.190316
    40  S   12.988125   7.106892   9.002347  11.486201   6.380631
    41  S   15.815066  10.069681  11.921029  14.254109   9.570947
    42  S    7.532074   4.469180   4.469180   6.350574   3.190316
    43  S   10.374137   6.350574   7.106892   9.002347   5.525789
    44  S   13.374211   9.002347  10.069681  11.921029   8.440782
    45  S    5.118378   6.350574   4.469180   4.469180   5.525789
    46  S    8.179869   7.106892   6.350574   7.106892   6.380631
    47  S   11.312778   9.002347   9.002347  10.069681   8.440782
    48  Pt   8.440782   5.118378   5.118378   6.823051   5.118378
    49  C    9.104763   3.827608   4.551929   6.866276   5.943365
    50  O    8.091255   3.697015   3.673115   5.802746   5.893222
                   11         12         13         14         15
    11  S    0.000000
    12  S    3.190316   0.000000
    13  Mo   6.823051   9.871403   0.000000
    14  Mo   9.341653  12.179293   3.190316   0.000000
    15  Mo  12.179293  14.818298   6.380631   3.190316   0.000000
    16  S    9.002347  11.921029   2.416934   2.416934   5.118378
    17  S   11.486201  14.254109   5.118378   2.416934   2.416934
    18  S   14.254109  16.870226   8.179869   5.118378   2.416934
    19  S    8.440782  11.502847   2.416934   2.416934   5.118378
    20  S   11.051578  13.906264   5.118378   2.416934   2.416934
    21  S   13.906264  16.577367   8.179869   5.118378   2.416934
    22  Mo   4.002460   6.823051   3.190316   5.525789   8.440782
    23  Mo   6.823051   9.341653   3.190316   3.190316   5.525789
    24  Mo   9.871403  12.179293   5.525789   3.190316   3.190316
    25  Mo   2.416934   4.002460   6.380631   8.440782  11.051578
    26  Mo   8.179869   9.871403   6.380631   5.525789   6.380631
    27  Mo   4.002459   2.416934   9.570947  11.502847  13.906264
    28  Mo   5.118378   5.118378   8.440782   9.570947  11.502847
    29  Mo   7.532074   8.179869   8.440782   8.440782   9.570947
    30  S    6.350574   9.002347   2.416934   4.002460   6.823051
    31  S    9.002347  11.486201   4.002460   2.416934   4.002460
    32  S   11.921029  14.254109   6.823051   4.002460   2.416934
    33  S    4.469180   6.350574   5.118378   6.823051   9.341653
    34  S    7.106892   9.002347   5.118378   5.118378   6.823051
    35  S   10.069681  11.921029   6.823051   5.118378   5.118378
    36  S    4.469180   4.469180   8.179869   9.871403  12.179293
    37  S    6.350574   7.106892   7.532074   8.179869   9.871403
    38  S    9.002347  10.069681   8.179869   7.532074   8.179869
    39  S    5.525789   8.440782   2.416934   4.002460   6.823051
    40  S    8.440782  11.051578   4.002460   2.416934   4.002459
    41  S   11.502847  13.906264   6.823051   4.002460   2.416934
    42  S    3.190316   5.525789   5.118378   6.823051   9.341653
    43  S    6.380631   8.440782   5.118378   5.118378   6.823051
    44  S    9.570947  11.502847   6.823051   5.118378   5.118378
    45  S    3.190316   3.190316   8.179869   9.871403  12.179293
    46  S    5.525789   6.380631   7.532074   8.179869   9.871403
    47  S    8.440782   9.570947   8.179869   7.532074   8.179869
    48  Pt   5.118378   6.823051   5.525789   6.380631   8.440782
    49  C    6.433744   8.235214   5.280176   6.477867   8.740795
    50  O    5.878258   7.398243   5.948963   7.461505   9.813979
                   16         17         18         19         20
    16  S    0.000000
    17  S    3.190316   0.000000
    18  S    6.380631   3.190316   0.000000
    19  S    3.129769   4.469180   7.106892   0.000000
    20  S    4.469180   3.129769   4.469180   3.190316   0.000000
    21  S    7.106892   4.469180   3.129769   6.380631   3.190316
    22  Mo   5.118378   7.532074  10.374137   5.118378   7.532074
    23  Mo   4.002460   5.118378   7.532074   4.002459   5.118378
    24  Mo   5.118378   4.002460   5.118378   5.118378   4.002460
    25  Mo   8.179869  10.374137  12.988125   8.179869  10.374137
    26  Mo   6.823051   6.823051   8.179869   6.823051   6.823051
    27  Mo  11.312778  13.374211  15.815066  11.312778  13.374211
    28  Mo   9.871403  11.312778  13.374211   9.871403  11.312778
    29  Mo   9.341653   9.871403  11.312778   9.341653   9.871403
    30  S    3.190316   5.525789   8.440782   4.469180   6.350574
    31  S    3.190316   3.190316   5.525789   4.469180   4.469180
    32  S    5.525789   3.190316   3.190316   6.350574   4.469180
    33  S    6.380631   8.440782  11.051578   7.106892   9.002347
    34  S    5.525789   6.380631   8.440782   6.350574   7.106892
    35  S    6.380631   5.525789   6.380631   7.106892   6.350574
    36  S    9.570947  11.502847  13.906264  10.069681  11.921029
    37  S    8.440782   9.570947  11.502847   9.002347  10.069681
    38  S    8.440782   8.440782   9.570947   9.002347   9.002347
    39  S    4.469180   6.350574   9.002347   3.190316   5.525789
    40  S    4.469180   4.469180   6.350574   3.190316   3.190316
    41  S    6.350574   4.469180   4.469180   5.525789   3.190316
    42  S    7.106892   9.002347  11.486201   6.380631   8.440782
    43  S    6.350574   7.106892   9.002347   5.525789   6.380631
    44  S    7.106892   6.350574   7.106892   6.380631   5.525789
    45  S   10.069681  11.921029  14.254109   9.570947  11.502847
    46  S    9.002347  10.069681  11.921029   8.440782   9.570947
    47  S    9.002347   9.002347  10.069681   8.440782   8.440782
    48  Pt   6.823051   8.179869  10.374137   6.823051   8.179869
    49  C    5.730772   7.556611  10.085595   7.315377   8.819035
    50  O    6.656281   8.646854  11.206531   8.085062   9.789292
                   21         22         23         24         25
    21  S    0.000000
    22  Mo  10.374137   0.000000
    23  Mo   7.532074   3.190316   0.000000
    24  Mo   5.118378   6.380631   3.190316   0.000000
    25  Mo  12.988125   3.190316   5.525789   8.440782   0.000000
    26  Mo   8.179869   5.525789   3.190316   3.190316   6.380631
    27  Mo  15.815066   6.380631   8.440782  11.051578   3.190316
    28  Mo  13.374211   5.525789   6.380631   8.440782   3.190316
    29  Mo  11.312778   6.380631   5.525789   6.380631   5.525789
    30  S    9.002347   2.416934   2.416934   5.118378   5.118378
    31  S    6.350574   5.118378   2.416934   2.416934   7.532074
    32  S    4.469180   8.179869   5.118378   2.416934  10.374137
    33  S   11.486201   2.416934   4.002460   6.823051   2.416934
    34  S    9.002347   4.002460   2.416934   4.002460   5.118378
    35  S    7.106892   6.823051   4.002460   2.416934   8.179869
    36  S   14.254109   5.118378   6.823051   9.341653   2.416934
    37  S   11.921029   5.118378   5.118378   6.823051   4.002460
    38  S   10.069681   6.823051   5.118378   5.118378   6.823051
    39  S    8.440782   2.416934   2.416934   5.118378   5.118378
    40  S    5.525789   5.118378   2.416934   2.416934   7.532074
    41  S    3.190316   8.179869   5.118378   2.416934  10.374137
    42  S   11.051578   2.416934   4.002460   6.823051   2.416934
    43  S    8.440782   4.002460   2.416934   4.002460   5.118378
    44  S    6.380631   6.823051   4.002460   2.416934   8.179869
    45  S   13.906264   5.118378   6.823051   9.341653   2.416934
    46  S   11.502847   5.118378   5.118378   6.823051   4.002460
    47  S    9.570947   6.823051   5.118378   5.118378   6.823051
    48  Pt  10.374137   3.190316   3.190316   5.525789   3.190316
    49  C   11.063102   3.686935   4.183048   6.462083   4.434294
    50  O   12.109850   3.854580   4.996355   7.444836   3.831663
                   26         27         28         29         30
    26  Mo   0.000000
    27  Mo   8.440782   0.000000
    28  Mo   5.525789   3.190316   0.000000
    29  Mo   3.190316   6.380631   3.190316   0.000000
    30  S    5.118378   8.179869   6.823051   6.823051   0.000000
    31  S    4.002460  10.374137   8.179869   6.823051   3.190316
    32  S    5.118378  12.988125  10.374137   8.179869   6.380631
    33  S    5.118378   5.118378   4.002460   5.118378   3.190316
    34  S    2.416934   7.532074   5.118378   4.002460   3.190316
    35  S    2.416934  10.374137   7.532074   5.118378   5.525789
    36  S    6.823051   2.416934   2.416934   5.118378   6.380631
    37  S    4.002460   5.118378   2.416934   2.416934   5.525789
    38  S    2.416934   8.179869   5.118378   2.416934   6.380631
    39  S    5.118378   8.179869   6.823051   6.823051   3.129769
    40  S    4.002460  10.374137   8.179869   6.823051   4.469180
    41  S    5.118378  12.988125  10.374137   8.179869   7.106892
    42  S    5.118378   5.118378   4.002459   5.118378   4.469180
    43  S    2.416934   7.532074   5.118378   4.002460   4.469180
    44  S    2.416934  10.374137   7.532074   5.118378   6.350574
    45  S    6.823051   2.416934   2.416934   5.118378   7.106892
    46  S    4.002460   5.118378   2.416934   2.416934   6.350574
    47  S    2.416934   8.179869   5.118378   2.416934   7.106892
    48  Pt   3.190316   5.525789   3.190316   3.190316   4.002459
    49  C    5.241350   6.788863   5.443971   5.791478   2.894282
    50  O    5.907047   5.904382   4.960976   5.892119   3.687220
                   31         32         33         34         35
    31  S    0.000000
    32  S    3.190316   0.000000
    33  S    5.525789   8.440782   0.000000
    34  S    3.190316   5.525789   3.190316   0.000000
    35  S    3.190316   3.190316   6.380631   3.190316   0.000000
    36  S    8.440782  11.051578   3.190316   5.525789   8.440782
    37  S    6.380631   8.440782   3.190316   3.190316   5.525789
    38  S    5.525789   6.380631   5.525789   3.190316   3.190316
    39  S    4.469180   7.106892   4.469180   4.469180   6.350574
    40  S    3.129769   4.469180   6.350574   4.469180   4.469180
    41  S    4.469180   3.129769   9.002347   6.350574   4.469180
    42  S    6.350574   9.002347   3.129769   4.469180   7.106892
    43  S    4.469180   6.350574   4.469180   3.129769   4.469180
    44  S    4.469180   4.469180   7.106892   4.469180   3.129769
    45  S    9.002347  11.486201   4.469180   6.350574   9.002347
    46  S    7.106892   9.002347   4.469180   4.469180   6.350574
    47  S    6.350574   7.106892   6.350574   4.469180   4.469180
    48  Pt   5.118378   7.532074   2.416934   2.416934   5.118378
    49  C    4.739133   7.543084   2.065968   2.858779   5.695019
    50  O    5.820609   8.632474   1.800370   3.653370   6.618846
                   36         37         38         39         40
    36  S    0.000000
    37  S    3.190316   0.000000
    38  S    6.380631   3.190316   0.000000
    39  S    7.106892   6.350574   7.106892   0.000000
    40  S    9.002347   7.106892   6.350574   3.190316   0.000000
    41  S   11.486201   9.002347   7.106892   6.380631   3.190316
    42  S    4.469180   4.469180   6.350574   3.190316   5.525789
    43  S    6.350574   4.469180   4.469180   3.190316   3.190316
    44  S    9.002347   6.350574   4.469180   5.525789   3.190316
    45  S    3.129769   4.469180   7.106892   6.380631   8.440782
    46  S    4.469180   3.129769   4.469180   5.525789   6.380631
    47  S    7.106892   4.469180   3.129769   6.380631   5.525789
    48  Pt   4.002459   2.416934   4.002460   4.002460   5.118378
    49  C    4.529437   3.773869   5.322086   5.389793   6.567525
    50  O    3.639135   3.629183   5.784018   5.887082   7.412262
                   41         42         43         44         45
    41  S    0.000000
    42  S    8.440782   0.000000
    43  S    5.525789   3.190316   0.000000
    44  S    3.190316   6.380631   3.190316   0.000000
    45  S   11.051578   3.190316   5.525789   8.440782   0.000000
    46  S    8.440782   3.190316   3.190316   5.525789   3.190316
    47  S    6.380631   5.525789   3.190316   3.190316   6.380631
    48  Pt   7.532074   2.416934   2.416934   5.118378   4.002459
    49  C    8.807447   4.994119   5.370812   7.287403   6.417851
    50  O    9.776592   4.929856   5.865941   8.054270   5.857085
                   46         47         48         49         50
    46  S    0.000000
    47  S    3.190316   0.000000
    48  Pt   2.416934   4.002460   0.000000
    49  C    5.908899   6.999829   3.659131   0.000000
    50  O    5.850907   7.383564   3.822213   1.128000   0.000000
 Stoichiometry    CMo15OPtS32
 Framework group  C1[X(CMo15OPtS32)]
 Deg. of freedom   144
 Full point group                 C1      NOp   1
 Largest Abelian subgroup         C1      NOp   1
 Largest concise Abelian subgroup C1      NOp   1
                         Standard orientation:                         
 ---------------------------------------------------------------------
 Center     Atomic      Atomic             Coordinates (Angstroms)
 Number     Number       Type             X           Y           Z
 ---------------------------------------------------------------------
      1         42           0       -0.745704    4.834493   -0.040293
      2         16           0        1.092223    4.829572    1.529282
      3         16           0        1.100201    4.829236   -1.600477
      4         42           0       -3.512987    3.246974   -0.047176
      5         42           0       -6.280269    1.659455   -0.054059
      6         42           0       -9.047551    0.071936   -0.060942
      7         16           0       -1.675059    3.242053    1.522399
      8         16           0       -4.442341    1.654534    1.515516
      9         16           0       -7.209623    0.067015    1.508633
     10         16           0       -1.667081    3.241717   -1.607360
     11         16           0       -4.434363    1.654198   -1.614242
     12         16           0       -7.201645    0.066679   -1.621125
     13         42           0        2.012763    3.231708   -0.033089
     14         42           0        4.771231    1.628923   -0.025886
     15         42           0        7.529699    0.026139   -0.018682
     16         16           0        3.850691    3.226788    1.536485
     17         16           0        6.609159    1.624003    1.543689
     18         16           0        9.367627    0.021219    1.550892
     19         16           0        3.858669    3.226451   -1.593273
     20         16           0        6.617136    1.623667   -1.586070
     21         16           0        9.375604    0.020882   -1.578866
     22         42           0       -0.754519    1.644189   -0.039972
     23         42           0        2.003949    0.041405   -0.032769
     24         42           0        4.762417   -1.561380   -0.025565
     25         42           0       -3.521801    0.056670   -0.046855
     26         42           0        1.995134   -3.148899   -0.032448
     27         42           0       -6.289083   -1.530849   -0.053738
     28         42           0       -3.530615   -3.133633   -0.046535
     29         42           0       -0.772148   -4.736418   -0.039331
     30         16           0        1.083409    1.639269    1.529602
     31         16           0        3.841877    0.036484    1.536806
     32         16           0        6.600344   -1.566300    1.544009
     33         16           0       -1.683873    0.051750    1.522719
     34         16           0        1.074595   -1.551035    1.529923
     35         16           0        3.833062   -3.153819    1.537126
     36         16           0       -4.451155   -1.535769    1.515837
     37         16           0       -1.692688   -3.138554    1.523040
     38         16           0        1.065780   -4.741338    1.530243
     39         16           0        1.091387    1.638932   -1.600156
     40         16           0        3.849854    0.036148   -1.592953
     41         16           0        6.608322   -1.566637   -1.585749
     42         16           0       -1.675896    0.051413   -1.607039
     43         16           0        1.082572   -1.551371   -1.599836
     44         16           0        3.841040   -3.154156   -1.592632
     45         16           0       -4.443178   -1.536106   -1.613922
     46         16           0       -1.684710   -3.138890   -1.606719
     47         16           0        1.073758   -4.741675   -1.599515
     48         78           0       -0.763333   -1.546114   -0.039652
     49          6           0       -0.571528    0.016840    3.263320
     50          8           0       -1.697962    0.013027    3.322618
 ---------------------------------------------------------------------
 Rotational constants (GHZ):      0.0258838      0.0092851      0.0073966
 Standard basis: VSTO-6G (5D, 7F)
 There are   488 symmetry adapted cartesian basis functions of A   symmetry.
 There are   440 symmetry adapted basis functions of A   symmetry.
   440 basis functions,  2928 primitive gaussians,   488 cartesian basis functions
   151 alpha electrons      151 beta electrons
       nuclear repulsion energy      4397.4486523827 Hartrees.
 Integral buffers will be    262144 words long.
 Regular integral format.
 Two-electron integral symmetry is turned off.
 Do NDO integrals.
 One-electron integrals computed using PRISM.
 NBasis=   440 RedAO= F EigKep=  0.00D+00  NBF=   440
 NBsUse=   440 1.00D-04 EigRej=  0.00D+00 NBFU=   440
 Projected New-EHT guess.
 Enter ItEHT:  IZDO=4 IZDPar=0 Conv= 1.00D-06 N=  280
 It=   1                  EEH=  96.4362134630     EQH= 0.000000000000E+00 EH=  96.4362134630    
 Keep J ints in memory in canonical form, NReq=6172560.
 Gradient too large for Newton-Raphson or scaled steepest descent --
 use steepest descent instead.
     Note:  rotation exceeds Pi/2.
     Note:  rotation exceeds Pi/2.
     Note:  rotation exceeds Pi/2.
     Note:  rotation exceeds Pi/2.
     Note:  rotation exceeds Pi/2.
     Note:  rotation exceeds Pi/2.
     Note:  rotation exceeds Pi/2.
     Accept linear search using points  9 and 10.
 Gradient too large for Newton-Raphson or scaled steepest descent --
 use steepest descent instead.
     Accept linear search using points  1 and  2.
 Gradient too large for Newton-Raphson or scaled steepest descent --
 use steepest descent instead.
     Accept linear search using points  1 and  2.
 Gradient too large for Newton-Raphson or scaled steepest descent --
 use steepest descent instead.
 Gradient too large for Newton-Raphson or scaled steepest descent --
 use steepest descent instead.
     Minimum is close to point  4 DX=  3.27D-03 DF= -1.52D-03 DXR=  5.43D-03 DFR=  2.59D-05 which will be used.
 Gradient too large for Newton-Raphson -- use scaled steepest descent instead.
     Accept linear search using points  1 and  2.
 Gradient too large for Newton-Raphson -- use scaled steepest descent instead.
     Accept linear search using points  1 and  2.
 Gradient too large for Newton-Raphson -- use scaled steepest descent instead.
     Accept linear search using points  1 and  2.
 Gradient too large for Newton-Raphson -- use scaled steepest descent instead.
     Minimum is close to point  2 DX=  1.61D-02 DF= -1.98D-02 DXR=  5.10D-02 DFR=  2.61D-03 which will be used.
 Gradient too large for Newton-Raphson -- use scaled steepest descent instead.
     Accept linear search using points  1 and  2.
 Gradient too large for Newton-Raphson -- use scaled steepest descent instead.
     Minimum is close to point  5 DX=  8.75D-02 DF= -4.50D-02 DXR=  8.04D-02 DFR=  6.59D-03 which will be used.
 Gradient too large for Newton-Raphson -- use scaled steepest descent instead.
     Accept linear search using points  1 and  2.
 Gradient too large for Newton-Raphson -- use scaled steepest descent instead.
     Accept linear search using points  1 and  2.
 Gradient too large for Newton-Raphson -- use scaled steepest descent instead.
     Accept linear search using points  1 and  2.
 Gradient too large for Newton-Raphson -- use scaled steepest descent instead.
 Gradient too large for Newton-Raphson -- use scaled steepest descent instead.
     Accept linear search using points  1 and  2.
 Gradient too large for Newton-Raphson -- use scaled steepest descent instead.
 Gradient too large for Newton-Raphson -- use scaled steepest descent instead.
     Minimum is close to point  3 DX= -1.81D-04 DF= -2.10D-07 DXR=  6.04D-04 DFR=  3.65D-07 which will be used.
 Gradient too large for Newton-Raphson -- use scaled steepest descent instead.
     Accept linear search using points  1 and  2.
     Minimum is close to point  2 DX= -7.52D-03 DF= -1.92D-05 DXR=  5.40D-03 DFR=  4.97D-05 which will be used.
 Gradient too large for Newton-Raphson -- use scaled steepest descent instead.
     Accept linear search using points  1 and  2.
 Gradient too large for Newton-Raphson -- use scaled steepest descent instead.
     Minimum is close to point  4 DX=  2.50D-01 DF= -3.39D-03 DXR=  8.48D-02 DFR=  7.40D-03 which will be used.
 Gradient too large for Newton-Raphson -- use scaled steepest descent instead.
 Gradient too large for Newton-Raphson -- use scaled steepest descent instead.
     Accept linear search using points  2 and  3.
 Gradient too large for Newton-Raphson -- use scaled steepest descent instead.
     Minimum is close to point  3 DX= -3.79D-03 DF= -1.18D-05 DXR=  9.56D-03 DFR=  9.15D-05 which will be used.
 Gradient too large for Newton-Raphson -- use scaled steepest descent instead.
     Accept linear search using points  2 and  3.
 Gradient too large for Newton-Raphson -- use scaled steepest descent instead.
     Accept linear search using points  1 and  2.
 Gradient too large for Newton-Raphson -- use scaled steepest descent instead.
     Accept linear search using points  3 and  4.
 Gradient too large for Newton-Raphson -- use scaled steepest descent instead.
     Minimum is close to point  3 DX= -1.58D-02 DF= -1.65D-04 DXR=  4.12D-02 DFR=  1.70D-03 which will be used.
 Gradient too large for Newton-Raphson -- use scaled steepest descent instead.
 Gradient too large for Newton-Raphson -- use scaled steepest descent instead.
     Accept linear search using points  1 and  2.
 Gradient too large for Newton-Raphson -- use scaled steepest descent instead.
     Accept linear search using points  3 and  4.
     Minimum is close to point  4 DX= -9.75D-02 DF= -1.34D-04 DXR=  3.36D-02 DFR=  1.81D-03 which will be used.
 Gradient too large for Newton-Raphson -- use scaled steepest descent instead.
     Minimum is close to point  3 DX= -1.68D-02 DF= -1.32D-04 DXR=  4.39D-02 DFR=  1.93D-03 which will be used.
 Gradient too large for Newton-Raphson -- use scaled steepest descent instead.
 Gradient too large for Newton-Raphson -- use scaled steepest descent instead.
     Accept linear search using points  1 and  2.
 Gradient too large for Newton-Raphson -- use scaled steepest descent instead.
 Gradient too large for Newton-Raphson -- use scaled steepest descent instead.
     Minimum is close to point  3 DX=  2.56D-02 DF= -9.94D-05 DXR=  6.02D-02 DFR=  3.64D-03 which will be used.
 Gradient too large for Newton-Raphson -- use scaled steepest descent instead.
     Accept linear search using points  3 and  4.
     Minimum is close to point  4 DX= -1.33D-01 DF= -1.01D-04 DXR=  3.83D-02 DFR=  2.56D-03 which will be used.
 Gradient too large for Newton-Raphson -- use scaled steepest descent instead.
 Gradient too large for Newton-Raphson -- use scaled steepest descent instead.
 Gradient too large for Newton-Raphson -- use scaled steepest descent instead.
     Minimum is close to point  3 DX= -4.66D-03 DF= -3.01D-06 DXR=  1.18D-02 DFR=  1.39D-04 which will be used.
 Gradient too large for Newton-Raphson -- use scaled steepest descent instead.
     Minimum is close to point  3 DX=  8.88D-03 DF= -1.96D-07 DXR=  3.85D-03 DFR=  1.48D-05 which will be used.
 Gradient too large for Newton-Raphson -- use scaled steepest descent instead.
     Minimum is close to point  3 DX=  2.76D-02 DF= -4.73D-05 DXR=  6.45D-02 DFR=  4.17D-03 which will be used.
 Gradient too large for Newton-Raphson -- use scaled steepest descent instead.
     Accept linear search using points  3 and  4.
     Minimum is close to point  4 DX= -1.38D-01 DF= -3.58D-05 DXR=  3.58D-02 DFR=  2.37D-03 which will be used.
 Gradient too large for Newton-Raphson -- use scaled steepest descent instead.
 Gradient too large for Newton-Raphson -- use scaled steepest descent instead.
 Gradient too large for Newton-Raphson -- use scaled steepest descent instead.
     Accept linear search using points  1 and  2.
 Gradient too large for Newton-Raphson -- use scaled steepest descent instead.
     Accept linear search using points  2 and  3.
 Gradient too large for Newton-Raphson -- use scaled steepest descent instead.
     Accept linear search using points  1 and  2.
 Gradient too large for Newton-Raphson -- use scaled steepest descent instead.
 Gradient too large for Newton-Raphson -- use scaled steepest descent instead.
     Minimum is close to point  3 DX=  3.89D-02 DF= -3.75D-05 DXR=  8.87D-02 DFR=  7.93D-03 which will be used.
 Gradient too large for Newton-Raphson -- use scaled steepest descent instead.
     Accept linear search using points  4 and  5.
 Gradient too large for Newton-Raphson -- use scaled steepest descent instead.
 Gradient too large for Newton-Raphson -- use scaled steepest descent instead.
 Gradient too large for Newton-Raphson -- use scaled steepest descent instead.
     Minimum is close to point  3 DX=  2.69D-02 DF= -1.96D-05 DXR=  6.29D-02 DFR=  3.98D-03 which will be used.
 Gradient too large for Newton-Raphson -- use scaled steepest descent instead.
     Accept linear search using points  2 and  3.
     Minimum is close to point  3 DX= -1.71D-01 DF= -2.02D-05 DXR=  7.33D-02 DFR=  6.23D-03 which will be used.
 Gradient too large for Newton-Raphson -- use scaled steepest descent instead.
     Accept linear search using points  1 and  2.
 Gradient too large for Newton-Raphson -- use scaled steepest descent instead.
     Accept linear search using points  1 and  2.
     Minimum is close to point  2 DX= -9.44D-02 DF= -1.63D-05 DXR=  9.39D-02 DFR=  1.03D-02 which will be used.
 Gradient too large for Newton-Raphson -- use scaled steepest descent instead.
     Accept linear search using points  1 and  2.
 Gradient too large for Newton-Raphson -- use scaled steepest descent instead.
     Minimum is close to point  4 DX=  1.54D-01 DF= -8.99D-06 DXR=  5.41D-02 DFR=  2.94D-03 which will be used.
 Gradient too large for Newton-Raphson -- use scaled steepest descent instead.
     Minimum is close to point  3 DX=  1.99D-02 DF= -5.88D-06 DXR=  4.74D-02 DFR=  2.25D-03 which will be used.
 Gradient too large for Newton-Raphson -- use scaled steepest descent instead.
     Minimum is close to point  4 DX=  3.82D-01 DF= -2.79D-05 DXR=  7.98D-02 DFR=  6.44D-03 which will be used.
 Gradient too large for Newton-Raphson -- use scaled steepest descent instead.
 Gradient too large for Newton-Raphson -- use scaled steepest descent instead.
     Minimum is close to point  3 DX=  1.03D-01 DF= -3.05D-06 DXR=  3.54D-02 DFR=  1.25D-03 which will be used.
 Gradient too large for Newton-Raphson -- use scaled steepest descent instead.
     Minimum is close to point  3 DX=  3.51D-02 DF= -1.37D-05 DXR=  8.07D-02 DFR=  6.56D-03 which will be used.
 Gradient too large for Newton-Raphson -- use scaled steepest descent instead.
 Gradient too large for Newton-Raphson -- use scaled steepest descent instead.
 Gradient too large for Newton-Raphson -- use scaled steepest descent instead.
     Accept linear search using points  1 and  2.
     Minimum is close to point  2 DX= -8.38D-02 DF= -7.75D-06 DXR=  6.89D-02 DFR=  7.00D-03 which will be used.
 Gradient too large for Newton-Raphson -- use scaled steepest descent instead.
     Accept linear search using points  1 and  2.
 Gradient too large for Newton-Raphson -- use scaled steepest descent instead.
     Minimum is close to point  4 DX=  1.38D-01 DF= -4.32D-06 DXR=  4.55D-02 DFR=  2.08D-03 which will be used.
 Gradient too large for Newton-Raphson -- use scaled steepest descent instead.
     Minimum is close to point  3 DX=  2.48D-02 DF= -6.26D-06 DXR=  5.84D-02 DFR=  3.43D-03 which will be used.
 Gradient too large for Newton-Raphson -- use scaled steepest descent instead.
     Minimum is close to point  4 DX= -4.56D-02 DF= -2.94D-07 DXR=  1.02D-02 DFR=  1.05D-04 which will be used.
 Gradient too large for Newton-Raphson -- use scaled steepest descent instead.
 Gradient too large for Newton-Raphson -- use scaled steepest descent instead.
     Minimum is close to point  2 DX=  1.28D-01 DF= -7.95D-06 DXR=  8.35D-02 DFR=  7.02D-03 which will be used.
 Gradient too large for Newton-Raphson -- use scaled steepest descent instead.
     Accept linear search using points  1 and  2.
 Gradient too large for Newton-Raphson -- use scaled steepest descent instead.
     Accept linear search using points  2 and  3.
 Gradient too large for Newton-Raphson -- use scaled steepest descent instead.
     Accept linear search using points  1 and  2.
 Gradient too large for Newton-Raphson -- use scaled steepest descent instead.
     Accept linear search using points  2 and  3.
 Gradient too large for Newton-Raphson -- use scaled steepest descent instead.
     Accept linear search using points  1 and  2.
 Gradient too large for Newton-Raphson -- use scaled steepest descent instead.
 Gradient too large for Newton-Raphson -- use scaled steepest descent instead.
     Minimum is close to point  3 DX=  3.98D-02 DF= -9.36D-06 DXR=  9.04D-02 DFR=  8.24D-03 which will be used.
 Gradient too large for Newton-Raphson -- use scaled steepest descent instead.
     Minimum is close to point  5 DX= -3.23D-01 DF= -6.77D-06 DXR=  4.43D-02 DFR=  1.98D-03 which will be used.
 Gradient too large for Newton-Raphson -- use scaled steepest descent instead.
 Gradient too large for Newton-Raphson -- use scaled steepest descent instead.
 Gradient too large for Newton-Raphson -- use scaled steepest descent instead.
 Gradient too large for Newton-Raphson -- use scaled steepest descent instead.
     Minimum is close to point  3 DX= -1.34D-01 DF= -1.61D-06 DXR=  4.12D-02 DFR=  1.70D-03 which will be used.
 Gradient too large for Newton-Raphson -- use scaled steepest descent instead.
     Minimum is close to point  3 DX= -2.75D-02 DF= -2.83D-06 DXR=  5.82D-02 DFR=  3.40D-03 which will be used.
 Gradient too large for Newton-Raphson -- use scaled steepest descent instead.
     Accept linear search using points  1 and  2.
 Gradient too large for Newton-Raphson -- use scaled steepest descent instead.
     Accept linear search using points  1 and  2.
 Gradient too large for Newton-Raphson -- use scaled steepest descent instead.
     Accept linear search using points  2 and  3.
     Minimum is close to point  3 DX= -5.22D-03 DF= -1.86D-09 DXR=  3.74D-03 DFR=  5.01D-06 which will be used.
 Gradient too large for Newton-Raphson -- use scaled steepest descent instead.
     Accept linear search using points  1 and  2.
 Gradient too large for Newton-Raphson -- use scaled steepest descent instead.
     Accept linear search using points  2 and  3.
 Gradient too large for Newton-Raphson -- use scaled steepest descent instead.
     Accept linear search using points  1 and  2.
 Gradient too large for Newton-Raphson -- use scaled steepest descent instead.
 Gradient too large for Newton-Raphson -- use scaled steepest descent instead.
     Minimum is close to point  3 DX=  4.20D-02 DF= -3.51D-06 DXR=  9.51D-02 DFR=  9.13D-03 which will be used.
 LinEq1:  Iter=  0 NonCon=     1 RMS=1.89D-04 Max=1.54D-02 NDo=     1
 AX will form     1 AO Fock derivatives at one time.
 LinEq1:  Iter=  1 NonCon=     1 RMS=7.35D-05 Max=1.45D-03 NDo=     1
 LinEq1:  Iter=  2 NonCon=     1 RMS=6.88D-05 Max=3.10D-03 NDo=     1
 LinEq1:  Iter=  3 NonCon=     1 RMS=4.74D-05 Max=1.43D-03 NDo=     1
 LinEq1:  Iter=  4 NonCon=     1 RMS=4.18D-05 Max=1.13D-03 NDo=     1
 LinEq1:  Iter=  5 NonCon=     1 RMS=4.30D-05 Max=2.18D-03 NDo=     1
 LinEq1:  Iter=  6 NonCon=     1 RMS=3.65D-05 Max=8.60D-04 NDo=     1
 LinEq1:  Iter=  7 NonCon=     1 RMS=3.61D-05 Max=1.19D-03 NDo=     1
 LinEq1:  Iter=  8 NonCon=     1 RMS=3.04D-05 Max=1.29D-03 NDo=     1
 LinEq1:  Iter=  9 NonCon=     1 RMS=2.28D-05 Max=9.46D-04 NDo=     1
 LinEq1:  Iter= 10 NonCon=     1 RMS=1.79D-05 Max=7.76D-04 NDo=     1
 LinEq1:  Iter= 11 NonCon=     1 RMS=1.64D-05 Max=3.47D-04 NDo=     1
 LinEq1:  Iter= 12 NonCon=     1 RMS=1.66D-05 Max=6.73D-04 NDo=     1
 LinEq1:  Iter= 13 NonCon=     1 RMS=1.43D-05 Max=4.91D-04 NDo=     1
 LinEq1:  Iter= 14 NonCon=     1 RMS=1.04D-05 Max=3.26D-04 NDo=     1
 LinEq1:  Iter= 15 NonCon=     1 RMS=8.64D-06 Max=1.66D-04 NDo=     1
 LinEq1:  Iter= 16 NonCon=     1 RMS=8.11D-06 Max=1.96D-04 NDo=     1
 LinEq1:  Iter= 17 NonCon=     1 RMS=6.91D-06 Max=1.60D-04 NDo=     1
 LinEq1:  Iter= 18 NonCon=     1 RMS=6.52D-06 Max=1.42D-04 NDo=     1
 LinEq1:  Iter= 19 NonCon=     1 RMS=4.99D-06 Max=9.87D-05 NDo=     1
 LinEq1:  Iter= 20 NonCon=     1 RMS=5.34D-06 Max=1.29D-04 NDo=     1
 LinEq1:  Iter= 21 NonCon=     1 RMS=4.75D-06 Max=7.60D-05 NDo=     1
 LinEq1:  Iter= 22 NonCon=     1 RMS=3.71D-06 Max=6.51D-05 NDo=     1
 LinEq1:  Iter= 23 NonCon=     1 RMS=2.24D-06 Max=5.11D-05 NDo=     1
 LinEq1:  Iter= 24 NonCon=     1 RMS=1.71D-06 Max=3.75D-05 NDo=     1
 LinEq1:  Iter= 25 NonCon=     1 RMS=1.12D-06 Max=2.83D-05 NDo=     1
 LinEq1:  Iter= 26 NonCon=     1 RMS=7.69D-07 Max=1.80D-05 NDo=     1
 LinEq1:  Iter= 27 NonCon=     1 RMS=5.51D-07 Max=1.15D-05 NDo=     1
 LinEq1:  Iter= 28 NonCon=     1 RMS=3.51D-07 Max=7.80D-06 NDo=     1
 LinEq1:  Iter= 29 NonCon=     1 RMS=2.50D-07 Max=6.86D-06 NDo=     1
 LinEq1:  Iter= 30 NonCon=     1 RMS=1.32D-07 Max=3.20D-06 NDo=     1
 LinEq1:  Iter= 31 NonCon=     1 RMS=9.13D-08 Max=1.78D-06 NDo=     1
 LinEq1:  Iter= 32 NonCon=     1 RMS=5.38D-08 Max=1.12D-06 NDo=     1
 LinEq1:  Iter= 33 NonCon=     1 RMS=3.29D-08 Max=8.36D-07 NDo=     1
 LinEq1:  Iter= 34 NonCon=     1 RMS=2.38D-08 Max=6.29D-07 NDo=     1
 LinEq1:  Iter= 35 NonCon=     1 RMS=1.28D-08 Max=4.72D-07 NDo=     1
 LinEq1:  Iter= 36 NonCon=     0 RMS=6.33D-09 Max=2.33D-07 NDo=     1
 Linear equations converged to 2.954D-08 2.954D-07 after    36 iterations.
     Accept linear search using points  1 and  2.
 Gradient too large for Newton-Raphson -- use scaled steepest descent instead.
     Accept linear search using points  1 and  2.
 Gradient too large for Newton-Raphson -- use scaled steepest descent instead.
     Minimum is close to point  2 DX=  4.46D-02 DF= -1.09D-06 DXR=  8.19D-02 DFR=  6.76D-03 which will be used.
 LinEq1:  Iter=  0 NonCon=     1 RMS=8.87D-05 Max=2.16D-03 NDo=     1
 LinEq1:  Iter=  1 NonCon=     1 RMS=1.42D-04 Max=5.09D-03 NDo=     1
 LinEq1:  Iter=  2 NonCon=     1 RMS=5.41D-05 Max=2.27D-03 NDo=     1
 LinEq1:  Iter=  3 NonCon=     1 RMS=6.17D-05 Max=1.11D-03 NDo=     1
 LinEq1:  Iter=  4 NonCon=     1 RMS=4.43D-05 Max=8.93D-04 NDo=     1
 LinEq1:  Iter=  5 NonCon=     1 RMS=4.19D-05 Max=9.36D-04 NDo=     1
 LinEq1:  Iter=  6 NonCon=     1 RMS=3.87D-05 Max=9.48D-04 NDo=     1
 LinEq1:  Iter=  7 NonCon=     1 RMS=3.70D-05 Max=8.67D-04 NDo=     1
 LinEq1:  Iter=  8 NonCon=     1 RMS=3.54D-05 Max=1.16D-03 NDo=     1
 LinEq1:  Iter=  9 NonCon=     1 RMS=2.79D-05 Max=6.62D-04 NDo=     1
 LinEq1:  Iter= 10 NonCon=     1 RMS=2.65D-05 Max=6.36D-04 NDo=     1
 LinEq1:  Iter= 11 NonCon=     1 RMS=1.80D-05 Max=5.55D-04 NDo=     1
 LinEq1:  Iter= 12 NonCon=     1 RMS=2.00D-05 Max=5.31D-04 NDo=     1
 LinEq1:  Iter= 13 NonCon=     1 RMS=1.58D-05 Max=5.52D-04 NDo=     1
 LinEq1:  Iter= 14 NonCon=     1 RMS=1.67D-05 Max=3.60D-04 NDo=     1
 LinEq1:  Iter= 15 NonCon=     1 RMS=1.13D-05 Max=3.55D-04 NDo=     1
 LinEq1:  Iter= 16 NonCon=     1 RMS=1.11D-05 Max=2.67D-04 NDo=     1
 LinEq1:  Iter= 17 NonCon=     1 RMS=9.23D-06 Max=3.95D-04 NDo=     1
 LinEq1:  Iter= 18 NonCon=     1 RMS=7.45D-06 Max=1.85D-04 NDo=     1
 LinEq1:  Iter= 19 NonCon=     1 RMS=5.67D-06 Max=1.40D-04 NDo=     1
 LinEq1:  Iter= 20 NonCon=     1 RMS=4.19D-06 Max=1.08D-04 NDo=     1
 LinEq1:  Iter= 21 NonCon=     1 RMS=2.68D-06 Max=6.05D-05 NDo=     1
 LinEq1:  Iter= 22 NonCon=     1 RMS=1.97D-06 Max=3.44D-05 NDo=     1
 LinEq1:  Iter= 23 NonCon=     1 RMS=1.29D-06 Max=2.28D-05 NDo=     1
 LinEq1:  Iter= 24 NonCon=     1 RMS=9.29D-07 Max=1.54D-05 NDo=     1
 LinEq1:  Iter= 25 NonCon=     1 RMS=5.93D-07 Max=9.46D-06 NDo=     1
 LinEq1:  Iter= 26 NonCon=     1 RMS=3.34D-07 Max=5.46D-06 NDo=     1
 LinEq1:  Iter= 27 NonCon=     1 RMS=2.32D-07 Max=4.07D-06 NDo=     1
 LinEq1:  Iter= 28 NonCon=     1 RMS=1.42D-07 Max=2.43D-06 NDo=     1
 LinEq1:  Iter= 29 NonCon=     1 RMS=7.74D-08 Max=1.55D-06 NDo=     1
 LinEq1:  Iter= 30 NonCon=     1 RMS=5.56D-08 Max=8.68D-07 NDo=     1
 LinEq1:  Iter= 31 NonCon=     1 RMS=3.34D-08 Max=8.69D-07 NDo=     1
 LinEq1:  Iter= 32 NonCon=     1 RMS=1.95D-08 Max=3.58D-07 NDo=     1
 LinEq1:  Iter= 33 NonCon=     0 RMS=1.20D-08 Max=2.19D-07 NDo=     1
 Linear equations converged to 2.954D-08 2.954D-07 after    33 iterations.
     Accept linear search using points  1 and  2.
 Gradient too large for Newton-Raphson -- use scaled steepest descent instead.
     Accept linear search using points  1 and  2.
 LinEq1:  Iter=  0 NonCon=     1 RMS=4.93D-05 Max=1.25D-03 NDo=     1
 LinEq1:  Iter=  1 NonCon=     1 RMS=3.73D-05 Max=8.45D-04 NDo=     1
 LinEq1:  Iter=  2 NonCon=     1 RMS=4.13D-05 Max=1.03D-03 NDo=     1
 LinEq1:  Iter=  3 NonCon=     1 RMS=3.98D-05 Max=8.92D-04 NDo=     1
 LinEq1:  Iter=  4 NonCon=     1 RMS=3.37D-05 Max=8.43D-04 NDo=     1
 LinEq1:  Iter=  5 NonCon=     1 RMS=2.87D-05 Max=6.88D-04 NDo=     1
 LinEq1:  Iter=  6 NonCon=     1 RMS=3.50D-05 Max=7.80D-04 NDo=     1
 LinEq1:  Iter=  7 NonCon=     1 RMS=2.98D-05 Max=5.65D-04 NDo=     1
 LinEq1:  Iter=  8 NonCon=     1 RMS=2.22D-05 Max=3.42D-04 NDo=     1
 LinEq1:  Iter=  9 NonCon=     1 RMS=2.31D-05 Max=6.41D-04 NDo=     1
 LinEq1:  Iter= 10 NonCon=     1 RMS=2.15D-05 Max=5.05D-04 NDo=     1
 LinEq1:  Iter= 11 NonCon=     1 RMS=2.06D-05 Max=4.27D-04 NDo=     1
 LinEq1:  Iter= 12 NonCon=     1 RMS=1.37D-05 Max=3.99D-04 NDo=     1
 LinEq1:  Iter= 13 NonCon=     1 RMS=1.19D-05 Max=3.19D-04 NDo=     1
 LinEq1:  Iter= 14 NonCon=     1 RMS=9.90D-06 Max=3.74D-04 NDo=     1
 LinEq1:  Iter= 15 NonCon=     1 RMS=1.11D-05 Max=2.66D-04 NDo=     1
 LinEq1:  Iter= 16 NonCon=     1 RMS=8.12D-06 Max=3.31D-04 NDo=     1
 LinEq1:  Iter= 17 NonCon=     1 RMS=7.67D-06 Max=1.50D-04 NDo=     1
 LinEq1:  Iter= 18 NonCon=     1 RMS=7.01D-06 Max=2.57D-04 NDo=     1
 LinEq1:  Iter= 19 NonCon=     1 RMS=6.67D-06 Max=1.22D-04 NDo=     1
 LinEq1:  Iter= 20 NonCon=     1 RMS=4.32D-06 Max=1.07D-04 NDo=     1
 LinEq1:  Iter= 21 NonCon=     1 RMS=2.71D-06 Max=5.49D-05 NDo=     1
 LinEq1:  Iter= 22 NonCon=     1 RMS=1.92D-06 Max=3.51D-05 NDo=     1
 LinEq1:  Iter= 23 NonCon=     1 RMS=1.48D-06 Max=3.44D-05 NDo=     1
 LinEq1:  Iter= 24 NonCon=     1 RMS=1.37D-06 Max=2.19D-05 NDo=     1
 LinEq1:  Iter= 25 NonCon=     1 RMS=8.68D-07 Max=1.58D-05 NDo=     1
 LinEq1:  Iter= 26 NonCon=     1 RMS=6.23D-07 Max=1.06D-05 NDo=     1
 LinEq1:  Iter= 27 NonCon=     1 RMS=3.79D-07 Max=6.41D-06 NDo=     1
 LinEq1:  Iter= 28 NonCon=     1 RMS=2.65D-07 Max=5.66D-06 NDo=     1
 LinEq1:  Iter= 29 NonCon=     1 RMS=1.57D-07 Max=3.15D-06 NDo=     1
 LinEq1:  Iter= 30 NonCon=     1 RMS=1.02D-07 Max=1.64D-06 NDo=     1
 LinEq1:  Iter= 31 NonCon=     1 RMS=8.58D-08 Max=1.34D-06 NDo=     1
 LinEq1:  Iter= 32 NonCon=     1 RMS=4.10D-08 Max=7.16D-07 NDo=     1
 LinEq1:  Iter= 33 NonCon=     1 RMS=2.34D-08 Max=4.31D-07 NDo=     1
 LinEq1:  Iter= 34 NonCon=     1 RMS=1.78D-08 Max=4.14D-07 NDo=     1
 LinEq1:  Iter= 35 NonCon=     0 RMS=9.60D-09 Max=2.25D-07 NDo=     1
 Linear equations converged to 2.954D-08 2.954D-07 after    35 iterations.
 LinEq1:  Iter=  0 NonCon=     1 RMS=2.66D-05 Max=7.32D-04 NDo=     1
 LinEq1:  Iter=  1 NonCon=     1 RMS=2.96D-05 Max=7.81D-04 NDo=     1
 LinEq1:  Iter=  2 NonCon=     1 RMS=2.77D-05 Max=7.53D-04 NDo=     1
 LinEq1:  Iter=  3 NonCon=     1 RMS=2.49D-05 Max=5.57D-04 NDo=     1
 LinEq1:  Iter=  4 NonCon=     1 RMS=2.27D-05 Max=4.87D-04 NDo=     1
 LinEq1:  Iter=  5 NonCon=     1 RMS=2.32D-05 Max=4.18D-04 NDo=     1
 LinEq1:  Iter=  6 NonCon=     1 RMS=2.05D-05 Max=5.72D-04 NDo=     1
 LinEq1:  Iter=  7 NonCon=     1 RMS=2.35D-05 Max=4.51D-04 NDo=     1
 LinEq1:  Iter=  8 NonCon=     1 RMS=2.17D-05 Max=6.45D-04 NDo=     1
 LinEq1:  Iter=  9 NonCon=     1 RMS=1.64D-05 Max=3.98D-04 NDo=     1
 LinEq1:  Iter= 10 NonCon=     1 RMS=1.41D-05 Max=2.70D-04 NDo=     1
 LinEq1:  Iter= 11 NonCon=     1 RMS=1.16D-05 Max=2.91D-04 NDo=     1
 LinEq1:  Iter= 12 NonCon=     1 RMS=1.24D-05 Max=2.78D-04 NDo=     1
 LinEq1:  Iter= 13 NonCon=     1 RMS=9.36D-06 Max=1.62D-04 NDo=     1
 LinEq1:  Iter= 14 NonCon=     1 RMS=7.57D-06 Max=1.98D-04 NDo=     1
 LinEq1:  Iter= 15 NonCon=     1 RMS=4.56D-06 Max=1.12D-04 NDo=     1
 LinEq1:  Iter= 16 NonCon=     1 RMS=3.86D-06 Max=9.69D-05 NDo=     1
 LinEq1:  Iter= 17 NonCon=     1 RMS=3.07D-06 Max=5.74D-05 NDo=     1
 LinEq1:  Iter= 18 NonCon=     1 RMS=2.90D-06 Max=7.90D-05 NDo=     1
 LinEq1:  Iter= 19 NonCon=     1 RMS=2.27D-06 Max=6.15D-05 NDo=     1
 LinEq1:  Iter= 20 NonCon=     1 RMS=2.46D-06 Max=1.00D-04 NDo=     1
 LinEq1:  Iter= 21 NonCon=     1 RMS=2.25D-06 Max=7.14D-05 NDo=     1
 LinEq1:  Iter= 22 NonCon=     1 RMS=1.56D-06 Max=5.06D-05 NDo=     1
 LinEq1:  Iter= 23 NonCon=     1 RMS=1.06D-06 Max=3.08D-05 NDo=     1
 LinEq1:  Iter= 24 NonCon=     1 RMS=5.13D-07 Max=1.08D-05 NDo=     1
 LinEq1:  Iter= 25 NonCon=     1 RMS=4.19D-07 Max=8.54D-06 NDo=     1
 LinEq1:  Iter= 26 NonCon=     1 RMS=2.75D-07 Max=6.73D-06 NDo=     1
 LinEq1:  Iter= 27 NonCon=     1 RMS=1.80D-07 Max=3.34D-06 NDo=     1
 LinEq1:  Iter= 28 NonCon=     1 RMS=1.27D-07 Max=2.65D-06 NDo=     1
 LinEq1:  Iter= 29 NonCon=     1 RMS=8.54D-08 Max=1.58D-06 NDo=     1
 LinEq1:  Iter= 30 NonCon=     1 RMS=5.60D-08 Max=1.10D-06 NDo=     1
 LinEq1:  Iter= 31 NonCon=     1 RMS=2.71D-08 Max=6.41D-07 NDo=     1
 LinEq1:  Iter= 32 NonCon=     0 RMS=1.22D-08 Max=2.69D-07 NDo=     1
 Linear equations converged to 2.954D-08 2.954D-07 after    32 iterations.
     Minimum is close to point  2 DX=  8.65D-02 DF= -1.10D-07 DXR=  7.96D-02 DFR=  6.37D-03 which will be used.
 LinEq1:  Iter=  0 NonCon=     1 RMS=1.18D-06 Max=2.50D-05 NDo=     1
 LinEq1:  Iter=  1 NonCon=     1 RMS=1.45D-06 Max=4.24D-05 NDo=     1
 LinEq1:  Iter=  2 NonCon=     1 RMS=1.53D-06 Max=4.39D-05 NDo=     1
 LinEq1:  Iter=  3 NonCon=     1 RMS=1.32D-06 Max=2.24D-05 NDo=     1
 LinEq1:  Iter=  4 NonCon=     1 RMS=1.12D-06 Max=2.29D-05 NDo=     1
 LinEq1:  Iter=  5 NonCon=     1 RMS=1.14D-06 Max=1.87D-05 NDo=     1
 LinEq1:  Iter=  6 NonCon=     1 RMS=9.79D-07 Max=1.76D-05 NDo=     1
 LinEq1:  Iter=  7 NonCon=     1 RMS=9.29D-07 Max=2.08D-05 NDo=     1
 LinEq1:  Iter=  8 NonCon=     1 RMS=1.06D-06 Max=2.77D-05 NDo=     1
 LinEq1:  Iter=  9 NonCon=     1 RMS=8.75D-07 Max=1.80D-05 NDo=     1
 LinEq1:  Iter= 10 NonCon=     1 RMS=7.53D-07 Max=2.13D-05 NDo=     1
 LinEq1:  Iter= 11 NonCon=     1 RMS=6.29D-07 Max=1.30D-05 NDo=     1
 LinEq1:  Iter= 12 NonCon=     1 RMS=6.07D-07 Max=2.62D-05 NDo=     1
 LinEq1:  Iter= 13 NonCon=     1 RMS=6.03D-07 Max=1.84D-05 NDo=     1
 LinEq1:  Iter= 14 NonCon=     1 RMS=5.18D-07 Max=1.95D-05 NDo=     1
 LinEq1:  Iter= 15 NonCon=     1 RMS=3.55D-07 Max=1.10D-05 NDo=     1
 LinEq1:  Iter= 16 NonCon=     1 RMS=2.76D-07 Max=6.49D-06 NDo=     1
 LinEq1:  Iter= 17 NonCon=     1 RMS=2.68D-07 Max=5.50D-06 NDo=     1
 LinEq1:  Iter= 18 NonCon=     1 RMS=2.43D-07 Max=6.23D-06 NDo=     1
 LinEq1:  Iter= 19 NonCon=     1 RMS=2.57D-07 Max=5.96D-06 NDo=     1
 LinEq1:  Iter= 20 NonCon=     1 RMS=1.86D-07 Max=3.87D-06 NDo=     1
 LinEq1:  Iter= 21 NonCon=     1 RMS=1.67D-07 Max=3.97D-06 NDo=     1
 LinEq1:  Iter= 22 NonCon=     1 RMS=9.99D-08 Max=2.84D-06 NDo=     1
 LinEq1:  Iter= 23 NonCon=     1 RMS=8.30D-08 Max=2.54D-06 NDo=     1
 LinEq1:  Iter= 24 NonCon=     1 RMS=4.97D-08 Max=1.57D-06 NDo=     1
 LinEq1:  Iter= 25 NonCon=     1 RMS=3.74D-08 Max=1.15D-06 NDo=     1
 LinEq1:  Iter= 26 NonCon=     1 RMS=2.40D-08 Max=8.22D-07 NDo=     1
 LinEq1:  Iter= 27 NonCon=     1 RMS=1.49D-08 Max=4.25D-07 NDo=     1
 LinEq1:  Iter= 28 NonCon=     1 RMS=1.13D-08 Max=3.60D-07 NDo=     1
 LinEq1:  Iter= 29 NonCon=     1 RMS=6.64D-09 Max=2.17D-07 NDo=     1
 LinEq1:  Iter= 30 NonCon=     1 RMS=4.75D-09 Max=1.36D-07 NDo=     1
 LinEq1:  Iter= 31 NonCon=     1 RMS=2.52D-09 Max=7.18D-08 NDo=     1
 LinEq1:  Iter= 32 NonCon=     1 RMS=1.57D-09 Max=3.55D-08 NDo=     1
 LinEq1:  Iter= 33 NonCon=     1 RMS=1.10D-09 Max=3.03D-08 NDo=     1
 LinEq1:  Iter= 34 NonCon=     1 RMS=6.60D-10 Max=1.66D-08 NDo=     1
 LinEq1:  Iter= 35 NonCon=     0 RMS=4.33D-10 Max=9.92D-09 NDo=     1
 Linear equations converged to 1.410D-09 1.410D-08 after    35 iterations.
 LinEq1:  Iter=  0 NonCon=     1 RMS=7.87D-07 Max=1.74D-05 NDo=     1
 LinEq1:  Iter=  1 NonCon=     1 RMS=7.39D-07 Max=2.36D-05 NDo=     1
 LinEq1:  Iter=  2 NonCon=     1 RMS=4.06D-07 Max=1.46D-05 NDo=     1
 LinEq1:  Iter=  3 NonCon=     1 RMS=3.47D-07 Max=6.70D-06 NDo=     1
 LinEq1:  Iter=  4 NonCon=     1 RMS=3.56D-07 Max=9.64D-06 NDo=     1
 LinEq1:  Iter=  5 NonCon=     1 RMS=3.78D-07 Max=1.22D-05 NDo=     1
 LinEq1:  Iter=  6 NonCon=     1 RMS=2.71D-07 Max=6.96D-06 NDo=     1
 LinEq1:  Iter=  7 NonCon=     1 RMS=3.45D-07 Max=8.46D-06 NDo=     1
 LinEq1:  Iter=  8 NonCon=     1 RMS=2.88D-07 Max=7.22D-06 NDo=     1
 LinEq1:  Iter=  9 NonCon=     1 RMS=2.66D-07 Max=8.36D-06 NDo=     1
 LinEq1:  Iter= 10 NonCon=     1 RMS=2.49D-07 Max=6.93D-06 NDo=     1
 LinEq1:  Iter= 11 NonCon=     1 RMS=1.87D-07 Max=7.25D-06 NDo=     1
 LinEq1:  Iter= 12 NonCon=     1 RMS=1.42D-07 Max=3.81D-06 NDo=     1
 LinEq1:  Iter= 13 NonCon=     1 RMS=1.60D-07 Max=4.85D-06 NDo=     1
 LinEq1:  Iter= 14 NonCon=     1 RMS=1.42D-07 Max=3.65D-06 NDo=     1
 LinEq1:  Iter= 15 NonCon=     1 RMS=1.16D-07 Max=3.76D-06 NDo=     1
 LinEq1:  Iter= 16 NonCon=     1 RMS=8.55D-08 Max=1.62D-06 NDo=     1
 LinEq1:  Iter= 17 NonCon=     1 RMS=9.75D-08 Max=2.73D-06 NDo=     1
 LinEq1:  Iter= 18 NonCon=     1 RMS=8.76D-08 Max=2.00D-06 NDo=     1
 LinEq1:  Iter= 19 NonCon=     1 RMS=6.79D-08 Max=1.79D-06 NDo=     1
 LinEq1:  Iter= 20 NonCon=     1 RMS=5.42D-08 Max=9.08D-07 NDo=     1
 LinEq1:  Iter= 21 NonCon=     1 RMS=5.25D-08 Max=9.73D-07 NDo=     1
 LinEq1:  Iter= 22 NonCon=     1 RMS=4.00D-08 Max=8.10D-07 NDo=     1
 LinEq1:  Iter= 23 NonCon=     1 RMS=3.55D-08 Max=1.17D-06 NDo=     1
 LinEq1:  Iter= 24 NonCon=     1 RMS=2.56D-08 Max=8.79D-07 NDo=     1
 LinEq1:  Iter= 25 NonCon=     1 RMS=2.05D-08 Max=6.69D-07 NDo=     1
 LinEq1:  Iter= 26 NonCon=     1 RMS=1.35D-08 Max=5.42D-07 NDo=     1
 LinEq1:  Iter= 27 NonCon=     1 RMS=8.98D-09 Max=3.03D-07 NDo=     1
 LinEq1:  Iter= 28 NonCon=     1 RMS=5.59D-09 Max=1.70D-07 NDo=     1
 LinEq1:  Iter= 29 NonCon=     1 RMS=3.71D-09 Max=8.49D-08 NDo=     1
 LinEq1:  Iter= 30 NonCon=     1 RMS=2.35D-09 Max=6.74D-08 NDo=     1
 LinEq1:  Iter= 31 NonCon=     1 RMS=1.36D-09 Max=2.78D-08 NDo=     1
 LinEq1:  Iter= 32 NonCon=     1 RMS=1.05D-09 Max=1.89D-08 NDo=     1
 LinEq1:  Iter= 33 NonCon=     1 RMS=6.78D-10 Max=1.50D-08 NDo=     1
 LinEq1:  Iter= 34 NonCon=     0 RMS=4.08D-10 Max=8.63D-09 NDo=     1
 Linear equations converged to 9.728D-10 9.728D-09 after    34 iterations.
 LinEq1:  Iter=  0 NonCon=     1 RMS=3.99D-07 Max=8.56D-06 NDo=     1
 LinEq1:  Iter=  1 NonCon=     1 RMS=4.26D-07 Max=1.19D-05 NDo=     1
 LinEq1:  Iter=  2 NonCon=     1 RMS=2.26D-07 Max=5.00D-06 NDo=     1
 LinEq1:  Iter=  3 NonCon=     1 RMS=1.84D-07 Max=3.45D-06 NDo=     1
 LinEq1:  Iter=  4 NonCon=     1 RMS=1.64D-07 Max=2.78D-06 NDo=     1
 LinEq1:  Iter=  5 NonCon=     1 RMS=2.08D-07 Max=3.81D-06 NDo=     1
 LinEq1:  Iter=  6 NonCon=     1 RMS=1.56D-07 Max=3.56D-06 NDo=     1
 LinEq1:  Iter=  7 NonCon=     1 RMS=1.44D-07 Max=3.08D-06 NDo=     1
 LinEq1:  Iter=  8 NonCon=     1 RMS=1.38D-07 Max=2.91D-06 NDo=     1
 LinEq1:  Iter=  9 NonCon=     1 RMS=1.29D-07 Max=2.82D-06 NDo=     1
 LinEq1:  Iter= 10 NonCon=     1 RMS=1.11D-07 Max=2.67D-06 NDo=     1
 LinEq1:  Iter= 11 NonCon=     1 RMS=1.22D-07 Max=3.33D-06 NDo=     1
 LinEq1:  Iter= 12 NonCon=     1 RMS=1.02D-07 Max=2.23D-06 NDo=     1
 LinEq1:  Iter= 13 NonCon=     1 RMS=6.88D-08 Max=1.57D-06 NDo=     1
 LinEq1:  Iter= 14 NonCon=     1 RMS=5.80D-08 Max=1.30D-06 NDo=     1
 LinEq1:  Iter= 15 NonCon=     1 RMS=5.54D-08 Max=9.17D-07 NDo=     1
 LinEq1:  Iter= 16 NonCon=     1 RMS=4.74D-08 Max=1.47D-06 NDo=     1
 LinEq1:  Iter= 17 NonCon=     1 RMS=4.86D-08 Max=9.35D-07 NDo=     1
 LinEq1:  Iter= 18 NonCon=     1 RMS=4.28D-08 Max=1.51D-06 NDo=     1
 LinEq1:  Iter= 19 NonCon=     1 RMS=3.54D-08 Max=1.05D-06 NDo=     1
 LinEq1:  Iter= 20 NonCon=     1 RMS=2.56D-08 Max=8.89D-07 NDo=     1
 LinEq1:  Iter= 21 NonCon=     1 RMS=2.39D-08 Max=6.96D-07 NDo=     1
 LinEq1:  Iter= 22 NonCon=     1 RMS=1.85D-08 Max=4.17D-07 NDo=     1
 LinEq1:  Iter= 23 NonCon=     1 RMS=2.10D-08 Max=6.04D-07 NDo=     1
 LinEq1:  Iter= 24 NonCon=     1 RMS=1.55D-08 Max=3.62D-07 NDo=     1
 LinEq1:  Iter= 25 NonCon=     1 RMS=1.23D-08 Max=3.74D-07 NDo=     1
 LinEq1:  Iter= 26 NonCon=     1 RMS=7.66D-09 Max=2.60D-07 NDo=     1
 LinEq1:  Iter= 27 NonCon=     1 RMS=4.86D-09 Max=1.40D-07 NDo=     1
 LinEq1:  Iter= 28 NonCon=     1 RMS=3.56D-09 Max=1.03D-07 NDo=     1
 LinEq1:  Iter= 29 NonCon=     1 RMS=2.04D-09 Max=8.19D-08 NDo=     1
 LinEq1:  Iter= 30 NonCon=     1 RMS=1.49D-09 Max=5.45D-08 NDo=     1
 LinEq1:  Iter= 31 NonCon=     1 RMS=9.06D-10 Max=3.68D-08 NDo=     1
 LinEq1:  Iter= 32 NonCon=     1 RMS=5.65D-10 Max=1.68D-08 NDo=     1
 LinEq1:  Iter= 33 NonCon=     1 RMS=3.53D-10 Max=1.25D-08 NDo=     1
 LinEq1:  Iter= 34 NonCon=     1 RMS=2.41D-10 Max=5.77D-09 NDo=     1
 LinEq1:  Iter= 35 NonCon=     0 RMS=1.44D-10 Max=3.21D-09 NDo=     1
 Linear equations converged to 4.604D-10 4.604D-09 after    35 iterations.
 LinEq1:  Iter=  0 NonCon=     1 RMS=3.72D-07 Max=8.30D-06 NDo=     1
 LinEq1:  Iter=  1 NonCon=     1 RMS=3.16D-07 Max=6.51D-06 NDo=     1
 LinEq1:  Iter=  2 NonCon=     1 RMS=2.08D-07 Max=5.21D-06 NDo=     1
 LinEq1:  Iter=  3 NonCon=     1 RMS=1.71D-07 Max=4.31D-06 NDo=     1
 LinEq1:  Iter=  4 NonCon=     1 RMS=1.84D-07 Max=5.31D-06 NDo=     1
 LinEq1:  Iter=  5 NonCon=     1 RMS=1.78D-07 Max=4.26D-06 NDo=     1
 LinEq1:  Iter=  6 NonCon=     1 RMS=1.26D-07 Max=3.94D-06 NDo=     1
 LinEq1:  Iter=  7 NonCon=     1 RMS=1.54D-07 Max=3.53D-06 NDo=     1
 LinEq1:  Iter=  8 NonCon=     1 RMS=1.40D-07 Max=3.56D-06 NDo=     1
 LinEq1:  Iter=  9 NonCon=     1 RMS=1.42D-07 Max=3.99D-06 NDo=     1
 LinEq1:  Iter= 10 NonCon=     1 RMS=1.26D-07 Max=2.76D-06 NDo=     1
 LinEq1:  Iter= 11 NonCon=     1 RMS=1.20D-07 Max=3.95D-06 NDo=     1
 LinEq1:  Iter= 12 NonCon=     1 RMS=1.11D-07 Max=1.85D-06 NDo=     1
 LinEq1:  Iter= 13 NonCon=     1 RMS=1.16D-07 Max=3.38D-06 NDo=     1
 LinEq1:  Iter= 14 NonCon=     1 RMS=8.83D-08 Max=2.67D-06 NDo=     1
 LinEq1:  Iter= 15 NonCon=     1 RMS=7.40D-08 Max=1.65D-06 NDo=     1
 LinEq1:  Iter= 16 NonCon=     1 RMS=5.78D-08 Max=1.65D-06 NDo=     1
 LinEq1:  Iter= 17 NonCon=     1 RMS=6.38D-08 Max=1.13D-06 NDo=     1
 LinEq1:  Iter= 18 NonCon=     1 RMS=5.36D-08 Max=1.48D-06 NDo=     1
 LinEq1:  Iter= 19 NonCon=     1 RMS=5.18D-08 Max=1.50D-06 NDo=     1
 LinEq1:  Iter= 20 NonCon=     1 RMS=3.55D-08 Max=9.92D-07 NDo=     1
 LinEq1:  Iter= 21 NonCon=     1 RMS=3.55D-08 Max=7.31D-07 NDo=     1
 LinEq1:  Iter= 22 NonCon=     1 RMS=3.01D-08 Max=5.42D-07 NDo=     1
 LinEq1:  Iter= 23 NonCon=     1 RMS=2.34D-08 Max=4.19D-07 NDo=     1
 LinEq1:  Iter= 24 NonCon=     1 RMS=1.61D-08 Max=4.39D-07 NDo=     1
 LinEq1:  Iter= 25 NonCon=     1 RMS=1.11D-08 Max=2.96D-07 NDo=     1
 LinEq1:  Iter= 26 NonCon=     1 RMS=7.65D-09 Max=2.16D-07 NDo=     1
 LinEq1:  Iter= 27 NonCon=     1 RMS=4.80D-09 Max=1.08D-07 NDo=     1
 LinEq1:  Iter= 28 NonCon=     1 RMS=3.31D-09 Max=6.96D-08 NDo=     1
 LinEq1:  Iter= 29 NonCon=     1 RMS=2.51D-09 Max=5.67D-08 NDo=     1
 LinEq1:  Iter= 30 NonCon=     1 RMS=1.72D-09 Max=4.58D-08 NDo=     1
 LinEq1:  Iter= 31 NonCon=     1 RMS=1.00D-09 Max=2.19D-08 NDo=     1
 LinEq1:  Iter= 32 NonCon=     1 RMS=6.66D-10 Max=1.51D-08 NDo=     1
 LinEq1:  Iter= 33 NonCon=     1 RMS=4.32D-10 Max=9.16D-09 NDo=     1
 LinEq1:  Iter= 34 NonCon=     0 RMS=2.15D-10 Max=5.08D-09 NDo=     1
 Linear equations converged to 5.133D-10 5.133D-09 after    34 iterations.
 LinEq1:  Iter=  0 NonCon=     1 RMS=1.44D-07 Max=3.42D-06 NDo=     1
 LinEq1:  Iter=  1 NonCon=     1 RMS=1.45D-07 Max=3.61D-06 NDo=     1
 LinEq1:  Iter=  2 NonCon=     1 RMS=9.28D-08 Max=1.93D-06 NDo=     1
 LinEq1:  Iter=  3 NonCon=     1 RMS=6.97D-08 Max=1.51D-06 NDo=     1
 LinEq1:  Iter=  4 NonCon=     1 RMS=8.27D-08 Max=1.97D-06 NDo=     1
 LinEq1:  Iter=  5 NonCon=     1 RMS=6.53D-08 Max=1.36D-06 NDo=     1
 LinEq1:  Iter=  6 NonCon=     1 RMS=6.81D-08 Max=1.46D-06 NDo=     1
 LinEq1:  Iter=  7 NonCon=     1 RMS=7.00D-08 Max=1.87D-06 NDo=     1
 LinEq1:  Iter=  8 NonCon=     1 RMS=5.98D-08 Max=1.26D-06 NDo=     1
 LinEq1:  Iter=  9 NonCon=     1 RMS=6.30D-08 Max=1.45D-06 NDo=     1
 LinEq1:  Iter= 10 NonCon=     1 RMS=5.76D-08 Max=1.23D-06 NDo=     1
 LinEq1:  Iter= 11 NonCon=     1 RMS=4.29D-08 Max=9.62D-07 NDo=     1
 LinEq1:  Iter= 12 NonCon=     1 RMS=4.52D-08 Max=1.11D-06 NDo=     1
 LinEq1:  Iter= 13 NonCon=     1 RMS=3.49D-08 Max=9.28D-07 NDo=     1
 LinEq1:  Iter= 14 NonCon=     1 RMS=3.48D-08 Max=5.69D-07 NDo=     1
 LinEq1:  Iter= 15 NonCon=     1 RMS=2.71D-08 Max=6.44D-07 NDo=     1
 LinEq1:  Iter= 16 NonCon=     1 RMS=2.59D-08 Max=6.75D-07 NDo=     1
 LinEq1:  Iter= 17 NonCon=     1 RMS=2.08D-08 Max=6.04D-07 NDo=     1
 LinEq1:  Iter= 18 NonCon=     1 RMS=1.75D-08 Max=4.75D-07 NDo=     1
 LinEq1:  Iter= 19 NonCon=     1 RMS=1.21D-08 Max=3.59D-07 NDo=     1
 LinEq1:  Iter= 20 NonCon=     1 RMS=1.34D-08 Max=2.84D-07 NDo=     1
 LinEq1:  Iter= 21 NonCon=     1 RMS=1.21D-08 Max=4.46D-07 NDo=     1
 LinEq1:  Iter= 22 NonCon=     1 RMS=1.14D-08 Max=3.60D-07 NDo=     1
 LinEq1:  Iter= 23 NonCon=     1 RMS=7.17D-09 Max=2.67D-07 NDo=     1
 LinEq1:  Iter= 24 NonCon=     1 RMS=5.54D-09 Max=1.74D-07 NDo=     1
 LinEq1:  Iter= 25 NonCon=     1 RMS=3.94D-09 Max=1.45D-07 NDo=     1
 LinEq1:  Iter= 26 NonCon=     1 RMS=2.36D-09 Max=7.62D-08 NDo=     1
 LinEq1:  Iter= 27 NonCon=     1 RMS=1.73D-09 Max=4.46D-08 NDo=     1
 LinEq1:  Iter= 28 NonCon=     1 RMS=1.03D-09 Max=2.88D-08 NDo=     1
 LinEq1:  Iter= 29 NonCon=     1 RMS=6.96D-10 Max=1.73D-08 NDo=     1
 LinEq1:  Iter= 30 NonCon=     1 RMS=4.55D-10 Max=1.45D-08 NDo=     1
 LinEq1:  Iter= 31 NonCon=     1 RMS=2.95D-10 Max=1.06D-08 NDo=     1
 LinEq1:  Iter= 32 NonCon=     1 RMS=1.97D-10 Max=8.19D-09 NDo=     1
 LinEq1:  Iter= 33 NonCon=     1 RMS=1.22D-10 Max=3.74D-09 NDo=     1
 LinEq1:  Iter= 34 NonCon=     1 RMS=9.35D-11 Max=2.61D-09 NDo=     1
 LinEq1:  Iter= 35 NonCon=     0 RMS=4.38D-11 Max=1.13D-09 NDo=     1
 Linear equations converged to 1.667D-10 1.667D-09 after    35 iterations.
 LinEq1:  Iter=  0 NonCon=     1 RMS=1.52D-07 Max=3.94D-06 NDo=     1
 LinEq1:  Iter=  1 NonCon=     1 RMS=1.16D-07 Max=2.39D-06 NDo=     1
 LinEq1:  Iter=  2 NonCon=     1 RMS=8.10D-08 Max=2.29D-06 NDo=     1
 LinEq1:  Iter=  3 NonCon=     1 RMS=5.88D-08 Max=2.05D-06 NDo=     1
 LinEq1:  Iter=  4 NonCon=     1 RMS=7.43D-08 Max=2.05D-06 NDo=     1
 LinEq1:  Iter=  5 NonCon=     1 RMS=6.87D-08 Max=2.33D-06 NDo=     1
 LinEq1:  Iter=  6 NonCon=     1 RMS=5.17D-08 Max=1.39D-06 NDo=     1
 LinEq1:  Iter=  7 NonCon=     1 RMS=5.87D-08 Max=1.46D-06 NDo=     1
 LinEq1:  Iter=  8 NonCon=     1 RMS=5.76D-08 Max=1.78D-06 NDo=     1
 LinEq1:  Iter=  9 NonCon=     1 RMS=4.94D-08 Max=1.09D-06 NDo=     1
 LinEq1:  Iter= 10 NonCon=     1 RMS=4.15D-08 Max=1.16D-06 NDo=     1
 LinEq1:  Iter= 11 NonCon=     1 RMS=4.47D-08 Max=1.10D-06 NDo=     1
 LinEq1:  Iter= 12 NonCon=     1 RMS=3.53D-08 Max=1.25D-06 NDo=     1
 LinEq1:  Iter= 13 NonCon=     1 RMS=3.41D-08 Max=9.34D-07 NDo=     1
 LinEq1:  Iter= 14 NonCon=     1 RMS=3.10D-08 Max=1.09D-06 NDo=     1
 LinEq1:  Iter= 15 NonCon=     1 RMS=2.51D-08 Max=8.87D-07 NDo=     1
 LinEq1:  Iter= 16 NonCon=     1 RMS=2.06D-08 Max=5.91D-07 NDo=     1
 LinEq1:  Iter= 17 NonCon=     1 RMS=1.99D-08 Max=6.33D-07 NDo=     1
 LinEq1:  Iter= 18 NonCon=     1 RMS=1.77D-08 Max=3.00D-07 NDo=     1
 LinEq1:  Iter= 19 NonCon=     1 RMS=1.50D-08 Max=4.47D-07 NDo=     1
 LinEq1:  Iter= 20 NonCon=     1 RMS=1.42D-08 Max=2.78D-07 NDo=     1
 LinEq1:  Iter= 21 NonCon=     1 RMS=1.34D-08 Max=3.53D-07 NDo=     1
 LinEq1:  Iter= 22 NonCon=     1 RMS=9.46D-09 Max=2.15D-07 NDo=     1
 LinEq1:  Iter= 23 NonCon=     1 RMS=7.13D-09 Max=1.49D-07 NDo=     1
 LinEq1:  Iter= 24 NonCon=     1 RMS=5.16D-09 Max=1.09D-07 NDo=     1
 LinEq1:  Iter= 25 NonCon=     1 RMS=3.76D-09 Max=8.26D-08 NDo=     1
 LinEq1:  Iter= 26 NonCon=     1 RMS=2.71D-09 Max=5.40D-08 NDo=     1
 LinEq1:  Iter= 27 NonCon=     1 RMS=1.89D-09 Max=4.04D-08 NDo=     1
 LinEq1:  Iter= 28 NonCon=     1 RMS=1.31D-09 Max=3.06D-08 NDo=     1
 LinEq1:  Iter= 29 NonCon=     1 RMS=7.12D-10 Max=1.52D-08 NDo=     1
 LinEq1:  Iter= 30 NonCon=     1 RMS=6.02D-10 Max=1.13D-08 NDo=     1
 LinEq1:  Iter= 31 NonCon=     1 RMS=4.03D-10 Max=8.97D-09 NDo=     1
 LinEq1:  Iter= 32 NonCon=     1 RMS=2.10D-10 Max=3.81D-09 NDo=     1
 LinEq1:  Iter= 33 NonCon=     1 RMS=1.45D-10 Max=2.89D-09 NDo=     1
 LinEq1:  Iter= 34 NonCon=     0 RMS=8.33D-11 Max=1.99D-09 NDo=     1
 Linear equations converged to 2.191D-10 2.191D-09 after    34 iterations.
 LinEq1:  Iter=  0 NonCon=     1 RMS=5.03D-08 Max=1.20D-06 NDo=     1
 LinEq1:  Iter=  1 NonCon=     1 RMS=4.41D-08 Max=1.34D-06 NDo=     1
 LinEq1:  Iter=  2 NonCon=     1 RMS=3.40D-08 Max=7.46D-07 NDo=     1
 LinEq1:  Iter=  3 NonCon=     1 RMS=2.46D-08 Max=7.68D-07 NDo=     1
 LinEq1:  Iter=  4 NonCon=     1 RMS=3.20D-08 Max=5.39D-07 NDo=     1
 LinEq1:  Iter=  5 NonCon=     1 RMS=1.99D-08 Max=4.56D-07 NDo=     1
 LinEq1:  Iter=  6 NonCon=     1 RMS=2.20D-08 Max=4.86D-07 NDo=     1
 LinEq1:  Iter=  7 NonCon=     1 RMS=2.18D-08 Max=5.27D-07 NDo=     1
 LinEq1:  Iter=  8 NonCon=     1 RMS=2.03D-08 Max=7.38D-07 NDo=     1
 LinEq1:  Iter=  9 NonCon=     1 RMS=1.56D-08 Max=4.01D-07 NDo=     1
 LinEq1:  Iter= 10 NonCon=     1 RMS=1.47D-08 Max=3.42D-07 NDo=     1
 LinEq1:  Iter= 11 NonCon=     1 RMS=1.09D-08 Max=2.03D-07 NDo=     1
 LinEq1:  Iter= 12 NonCon=     1 RMS=1.03D-08 Max=2.71D-07 NDo=     1
 LinEq1:  Iter= 13 NonCon=     1 RMS=9.32D-09 Max=2.26D-07 NDo=     1
 LinEq1:  Iter= 14 NonCon=     1 RMS=1.03D-08 Max=3.21D-07 NDo=     1
 LinEq1:  Iter= 15 NonCon=     1 RMS=7.86D-09 Max=1.62D-07 NDo=     1
 LinEq1:  Iter= 16 NonCon=     1 RMS=6.18D-09 Max=1.23D-07 NDo=     1
 LinEq1:  Iter= 17 NonCon=     1 RMS=5.66D-09 Max=1.49D-07 NDo=     1
 LinEq1:  Iter= 18 NonCon=     1 RMS=5.08D-09 Max=1.13D-07 NDo=     1
 LinEq1:  Iter= 19 NonCon=     1 RMS=3.57D-09 Max=1.17D-07 NDo=     1
 LinEq1:  Iter= 20 NonCon=     1 RMS=2.81D-09 Max=7.93D-08 NDo=     1
 LinEq1:  Iter= 21 NonCon=     1 RMS=2.33D-09 Max=8.95D-08 NDo=     1
 LinEq1:  Iter= 22 NonCon=     1 RMS=2.34D-09 Max=4.75D-08 NDo=     1
 LinEq1:  Iter= 23 NonCon=     1 RMS=2.20D-09 Max=7.08D-08 NDo=     1
 LinEq1:  Iter= 24 NonCon=     1 RMS=1.82D-09 Max=6.16D-08 NDo=     1
 LinEq1:  Iter= 25 NonCon=     1 RMS=1.24D-09 Max=3.94D-08 NDo=     1
 LinEq1:  Iter= 26 NonCon=     1 RMS=1.04D-09 Max=3.45D-08 NDo=     1
 LinEq1:  Iter= 27 NonCon=     1 RMS=5.79D-10 Max=2.02D-08 NDo=     1
 LinEq1:  Iter= 28 NonCon=     1 RMS=3.40D-10 Max=9.00D-09 NDo=     1
 LinEq1:  Iter= 29 NonCon=     1 RMS=2.58D-10 Max=6.93D-09 NDo=     1
 LinEq1:  Iter= 30 NonCon=     1 RMS=1.57D-10 Max=5.33D-09 NDo=     1
 LinEq1:  Iter= 31 NonCon=     1 RMS=9.87D-11 Max=3.37D-09 NDo=     1
 LinEq1:  Iter= 32 NonCon=     1 RMS=6.67D-11 Max=2.39D-09 NDo=     1
 LinEq1:  Iter= 33 NonCon=     1 RMS=4.13D-11 Max=1.02D-09 NDo=     1
 LinEq1:  Iter= 34 NonCon=     1 RMS=3.03D-11 Max=7.52D-10 NDo=     1
 LinEq1:  Iter= 35 NonCon=     0 RMS=1.44D-11 Max=2.82D-10 NDo=     1
 Linear equations converged to 5.910D-11 5.910D-10 after    35 iterations.
 LinEq1:  Iter=  0 NonCon=     1 RMS=6.76D-08 Max=1.32D-06 NDo=     1
 LinEq1:  Iter=  1 NonCon=     1 RMS=5.84D-08 Max=1.59D-06 NDo=     1
 LinEq1:  Iter=  2 NonCon=     1 RMS=3.93D-08 Max=1.00D-06 NDo=     1
 LinEq1:  Iter=  3 NonCon=     1 RMS=3.16D-08 Max=7.57D-07 NDo=     1
 LinEq1:  Iter=  4 NonCon=     1 RMS=3.42D-08 Max=1.13D-06 NDo=     1
 LinEq1:  Iter=  5 NonCon=     1 RMS=2.96D-08 Max=9.09D-07 NDo=     1
 LinEq1:  Iter=  6 NonCon=     1 RMS=2.93D-08 Max=9.43D-07 NDo=     1
 LinEq1:  Iter=  7 NonCon=     1 RMS=2.82D-08 Max=5.58D-07 NDo=     1
 LinEq1:  Iter=  8 NonCon=     1 RMS=2.49D-08 Max=9.79D-07 NDo=     1
 LinEq1:  Iter=  9 NonCon=     1 RMS=2.34D-08 Max=5.10D-07 NDo=     1
 LinEq1:  Iter= 10 NonCon=     1 RMS=2.65D-08 Max=8.53D-07 NDo=     1
 LinEq1:  Iter= 11 NonCon=     1 RMS=2.10D-08 Max=6.51D-07 NDo=     1
 LinEq1:  Iter= 12 NonCon=     1 RMS=2.23D-08 Max=6.60D-07 NDo=     1
 LinEq1:  Iter= 13 NonCon=     1 RMS=1.90D-08 Max=6.43D-07 NDo=     1
 LinEq1:  Iter= 14 NonCon=     1 RMS=1.68D-08 Max=4.53D-07 NDo=     1
 LinEq1:  Iter= 15 NonCon=     1 RMS=1.58D-08 Max=4.84D-07 NDo=     1
 LinEq1:  Iter= 16 NonCon=     1 RMS=1.42D-08 Max=3.42D-07 NDo=     1
 LinEq1:  Iter= 17 NonCon=     1 RMS=1.20D-08 Max=3.00D-07 NDo=     1
 LinEq1:  Iter= 18 NonCon=     1 RMS=7.63D-09 Max=2.20D-07 NDo=     1
 LinEq1:  Iter= 19 NonCon=     1 RMS=5.98D-09 Max=1.53D-07 NDo=     1
 LinEq1:  Iter= 20 NonCon=     1 RMS=4.48D-09 Max=9.93D-08 NDo=     1
 LinEq1:  Iter= 21 NonCon=     1 RMS=3.24D-09 Max=7.92D-08 NDo=     1
 LinEq1:  Iter= 22 NonCon=     1 RMS=3.26D-09 Max=5.43D-08 NDo=     1
 LinEq1:  Iter= 23 NonCon=     1 RMS=3.28D-09 Max=8.66D-08 NDo=     1
 LinEq1:  Iter= 24 NonCon=     1 RMS=2.80D-09 Max=9.09D-08 NDo=     1
 LinEq1:  Iter= 25 NonCon=     1 RMS=1.96D-09 Max=4.51D-08 NDo=     1
 LinEq1:  Iter= 26 NonCon=     1 RMS=1.50D-09 Max=3.46D-08 NDo=     1
 LinEq1:  Iter= 27 NonCon=     1 RMS=8.46D-10 Max=2.28D-08 NDo=     1
 LinEq1:  Iter= 28 NonCon=     1 RMS=6.30D-10 Max=1.89D-08 NDo=     1
 LinEq1:  Iter= 29 NonCon=     1 RMS=4.46D-10 Max=1.35D-08 NDo=     1
 LinEq1:  Iter= 30 NonCon=     1 RMS=2.61D-10 Max=5.59D-09 NDo=     1
 LinEq1:  Iter= 31 NonCon=     1 RMS=1.68D-10 Max=3.75D-09 NDo=     1
 LinEq1:  Iter= 32 NonCon=     1 RMS=9.37D-11 Max=1.51D-09 NDo=     1
 LinEq1:  Iter= 33 NonCon=     1 RMS=6.38D-11 Max=1.66D-09 NDo=     1
 LinEq1:  Iter= 34 NonCon=     1 RMS=3.48D-11 Max=9.40D-10 NDo=     1
 LinEq1:  Iter= 35 NonCon=     0 RMS=2.58D-11 Max=6.09D-10 NDo=     1
 Linear equations converged to 9.002D-11 9.002D-10 after    35 iterations.
 LinEq1:  Iter=  0 NonCon=     1 RMS=2.55D-08 Max=6.00D-07 NDo=     1
 LinEq1:  Iter=  1 NonCon=     1 RMS=2.50D-08 Max=7.71D-07 NDo=     1
 LinEq1:  Iter=  2 NonCon=     1 RMS=1.47D-08 Max=4.27D-07 NDo=     1
 LinEq1:  Iter=  3 NonCon=     1 RMS=1.44D-08 Max=3.34D-07 NDo=     1
 LinEq1:  Iter=  4 NonCon=     1 RMS=1.55D-08 Max=2.38D-07 NDo=     1
[...]
 0.,0.,0.,0.,0.,0.,0.,0.,0.,0.,0.,0.,0.,0.,0.,0.,0.,0.,0.,0.,0.,0.,0.,0
 .,0.,0.,0.,0.,0.,0.,0.,0.,0.,0.,0.,0.,0.,0.,0.,0.,0.,0.,0.,0.,0.,0.,0.
 ,0.,0.,0.,0.,0.,0.,0.,0.,0.,0.,0.,0.,0.,0.,0.,0.,0.,0.,0.,0.,0.,0.,0.,
 0.,0.,0.,0.,0.,0.,0.,0.,0.,0.,0.,0.,0.,0.,0.,0.,0.,0.,0.,0.,0.,0.,0.,0
 .,0.,0.,0.,0.,0.,0.,0.,0.,0.,0.,0.,0.,0.,0.,0.,0.,0.,0.,0.,0.,0.,0.,0.
 ,0.,0.,0.,0.,0.,0.,0.,0.,0.,0.,0.,0.,0.,0.,0.,0.,0.,0.,0.,0.,0.,0.,0.,
 0.,0.,0.,0.,0.,0.,0.,0.,0.,0.,0.,0.,0.,0.,0.,0.,0.,0.,0.,0.,0.,0.,0.,0
 .,0.,0.,0.,0.,0.,0.,0.,0.,0.,0.,0.,0.,0.,0.,0.,0.,0.,0.,0.,0.,0.,0.,0.
 ,0.,0.,0.,0.,0.,0.,0.,0.,0.,0.,0.,0.,0.,0.,0.,0.,0.,0.,0.,0.,0.,0.,0.,
 0.,0.,0.,0.,0.,0.,0.,0.,0.,0.,0.,0.,0.,0.,0.,0.,0.,0.,0.,0.,0.,0.,0.,0
 .,0.,0.,0.,0.,0.,0.,0.,0.,0.,0.,0.,0.,0.,0.,0.,0.,0.,0.,0.,0.,0.,0.,0.
 ,0.,0.,0.,0.,0.,0.,0.,0.,0.,0.,0.,0.,0.,0.,0.,0.,0.,0.,0.,0.,0.,0.,0.,
 0.,0.,0.,0.,0.,0.,0.,0.,0.,0.,0.,0.,0.,0.,0.,0.,0.,0.,0.,0.,0.,0.,0.,0
 .,0.,0.,0.,0.,0.,0.,0.,0.,0.,0.,0.,0.,0.,0.,0.,0.,0.,0.,0.,0.,0.,0.,0.
 ,0.,0.,0.,0.,0.,0.,0.,0.,0.,0.,0.,0.,0.,0.,0.,0.,0.,0.,0.,0.,0.,0.,0.,
 0.,0.,0.,0.,0.,0.,0.,0.,0.,0.,0.,0.,0.,0.,0.,0.,0.,0.,0.,0.,0.,0.,0.,0
 .,0.,0.,0.,0.,0.,0.,0.,0.,0.,0.,0.,0.,0.,0.,0.,0.,0.,0.,0.,0.,0.,0.,0.
 ,0.,0.,0.,0.,0.,0.,0.,0.,0.,0.,0.,0.,0.,0.,0.,0.,0.,0.,0.,0.,0.,0.,0.,
 0.,0.,0.,0.,0.,0.,0.,0.,0.,0.,0.,0.,0.,0.,0.,0.,0.,0.,0.,0.,0.,0.,0.,0
 .,0.,0.,0.,0.,0.,0.,0.,0.,0.,0.,0.,0.,0.,0.,0.,0.,0.,0.,0.,0.,0.,0.,0.
 ,0.,0.,0.,0.,0.,0.,0.,0.,0.,0.,0.,0.,0.,0.,0.,0.,0.,0.,0.,0.,0.,0.,0.,
 0.,0.,0.,0.,0.,0.,0.,0.,0.,0.,0.,0.,0.,0.,0.,0.,0.,0.,0.,0.,0.,0.,0.,0
 .,0.,0.,0.,0.,0.,0.,0.,0.,0.,0.,0.,0.,0.,0.,0.,0.,0.,0.,0.,0.,0.,0.,0.
 ,0.,0.,0.,0.,0.,0.,0.,0.,0.,0.,0.,0.,0.,0.,0.,0.,0.,0.,0.,0.,0.,0.,0.,
 0.,0.,0.,0.,0.,0.,0.,0.,0.,0.,0.,0.,0.,0.,0.,0.,0.,0.,0.,0.,0.,0.,0.,0
 .,0.,0.,0.,0.,0.,0.,0.,0.,0.,0.,0.,0.,0.,0.,0.,0.,0.,0.,0.,0.,0.,0.,0.
 ,0.,0.,0.,0.,0.,0.,0.,0.,0.,0.,0.,0.,0.,0.,0.,0.,0.,0.,0.,0.,0.,0.,0.,
 0.,0.,0.,0.,0.,0.,0.,0.,0.,0.,0.,0.,0.,0.,0.,0.,0.,0.,0.,0.,0.,0.,0.,0
 .,0.,0.,0.,0.,0.,0.,0.,0.,0.,0.,0.,0.,0.,0.,0.,0.,0.,0.,0.,0.,0.,0.,0.
 ,0.,0.,0.,0.,0.,0.,0.,0.,0.,0.,0.,0.,0.,0.,0.,0.,0.,0.,0.,0.,0.,0.,0.,
 0.,0.,0.,0.,0.,0.,0.,0.,0.,0.,0.,0.,0.,0.,0.,0.,0.,0.,0.,0.,0.,0.,0.,0
 .,0.,0.,0.,0.,0.,0.,0.,0.,0.,0.,0.,0.,0.,0.,0.,0.,0.,0.,0.,0.,0.,0.,0.
 ,0.,0.,0.,0.,0.,0.,0.,0.,0.,0.,0.,0.,0.,0.,0.,0.,0.,0.,0.,0.,0.,0.,0.,
 0.,0.,0.,0.,0.,0.,0.,0.,0.,0.,0.,0.,0.,0.,0.,0.,0.,0.,0.,0.,0.,0.,0.,0
 .,0.,0.,0.,0.,0.,0.,0.,0.,0.,0.,0.,0.,0.,0.,0.,0.,0.,0.,0.,0.,0.,0.,0.
 ,0.,0.,0.,0.,0.,0.,0.,0.,0.,0.,0.,0.,0.,0.,0.,0.,0.,0.,0.,0.,0.,0.,0.,
 0.,0.,0.,0.,0.,0.,0.,0.,0.,0.,0.,0.,0.,0.,0.,0.,0.,0.,0.,0.,0.,0.,0.,0
 .,0.,0.,0.,0.,0.,0.,0.,0.,0.,0.,0.,0.,0.,0.,0.,0.,0.,0.,0.,0.,0.,0.,0.
 ,0.,0.,0.,0.,0.,0.,0.,0.,0.,0.,0.,0.,0.,0.,0.,0.,0.,0.,0.,0.,0.,0.,0.,
 0.,0.,0.,0.,0.,0.,0.,0.,0.,0.,0.,0.,0.,0.,0.,0.,0.,0.,0.,0.,0.,0.,0.,0
 .,0.,0.,0.,0.,0.,0.,0.,0.,0.,0.,0.,0.,0.,0.,0.,0.,0.,0.,0.,0.,0.,0.,0.
 ,0.,0.,0.,0.,0.,0.,0.,0.,0.,0.,0.,0.,0.,0.,0.,0.,0.,0.,0.,0.,0.,0.,0.,
 0.,0.,0.,0.,0.,0.,0.,0.,0.,0.,0.,0.,0.,0.,0.,0.,0.,0.,0.,0.,0.,0.,0.,0
 .,0.,0.,0.,0.,0.,0.,0.,0.,0.,0.,0.,0.,0.,0.,0.,0.,0.,0.,0.,0.,0.,0.,0.
 ,0.,0.,0.,0.,0.,0.,0.,0.,0.,0.,0.,0.,0.,0.,0.,0.,0.,0.,0.,0.,0.,0.,0.,
 0.,0.,0.,0.,0.,0.,0.,0.,0.,0.,0.,0.,0.,0.,0.,0.,0.,0.,0.,0.,0.,0.,0.,0
 .,0.,0.,0.,0.,0.,0.,0.,0.,0.,0.,0.,0.,0.,0.,0.,0.,0.,0.,0.,0.,0.,0.,0.
 ,0.,0.,0.,0.,0.,0.,0.,0.,0.,0.,0.,0.,0.,0.,0.,0.,0.,0.,0.,0.,0.,0.,0.,
 0.,0.,0.,0.,0.,0.,0.,0.,0.,0.,0.,0.,0.,0.,0.,0.,0.,0.,0.,0.,0.,0.,0.,0
 .,0.,0.,0.,0.,0.,0.,0.,0.,0.,0.,0.,0.,0.,0.,0.,0.,0.,0.,0.,0.,0.,0.,0.
 ,0.,0.,0.,0.,0.,0.,0.,0.,0.,0.,0.,0.,0.,0.,0.,0.,0.,0.,0.,0.,0.,0.,0.,
 0.,0.,0.,0.,0.,0.,0.,0.,0.,0.,0.,0.,0.,0.,0.,0.,0.,0.,0.,0.,0.,0.,0.,0
 .,0.,0.,0.,0.,0.,0.,0.,0.,0.,0.,0.,0.,0.,0.,0.,0.,0.,0.,0.,0.,0.,0.,0.
 ,0.,0.,0.,0.,0.,0.,0.,0.,0.,0.,0.,0.,0.,0.,0.,0.,0.,0.,0.,0.,0.,0.,0.,
 0.,0.,0.,0.,0.,0.,0.,0.,0.,0.,0.,0.,0.,0.,0.,0.,0.,0.,0.,0.,0.,0.,0.,0
 .,0.,0.,0.,0.,0.,0.,0.,0.,0.,0.,0.,0.,0.,0.,0.,0.,0.,0.,0.,0.,0.,0.,0.
 ,0.,0.,0.,0.,0.,0.,0.,0.,0.,0.,0.,0.,0.,0.,0.,0.,0.,0.,0.,0.,0.,0.,0.,
 0.,0.,0.,0.,0.,0.,0.,0.,0.,0.,0.,0.,0.,0.,0.,0.,0.,0.,0.,0.,0.,0.,0.,0
 .,0.,0.,0.,0.,0.,0.,0.,0.,0.,0.,0.,0.,0.,0.,0.,0.,0.,0.,0.,0.,0.,0.,0.
 ,0.,0.,0.,0.,0.,0.,0.,0.,0.,0.,0.,0.,0.,0.,0.,0.,0.,0.,0.,0.,0.,0.,0.,
 0.,0.,0.,0.,0.,0.,0.,0.,0.,0.,0.,0.,0.,0.,0.,0.,0.,0.,0.,0.,0.,0.,0.,0
 .,0.,0.,0.,0.,0.,0.,0.,0.,0.,0.,0.,0.,0.,0.,0.,0.,0.,0.,0.,0.,0.,0.,0.
 ,0.,0.,0.,0.,0.,0.,0.,0.,0.,0.,0.,0.,0.,0.,0.,0.,0.,0.,0.,0.,0.,0.,0.,
 0.,0.,0.,0.,0.,0.,0.,0.,0.,0.,0.,0.,0.,0.,0.,0.,0.,0.,0.,0.,0.,0.,0.,0
 .,0.,0.,0.,0.,0.,0.,0.,0.,0.,0.,0.,0.,0.,0.,0.,0.,0.,0.,0.,0.,0.,0.,0.
 ,0.,0.,0.,0.,0.,0.,0.,0.,0.,0.,0.,0.,0.,0.,0.,0.,0.,0.,0.,0.,0.,0.,0.,
 0.,0.,0.,0.,0.,0.,0.,0.,0.,0.,0.,0.,0.,0.,0.,0.,0.,0.,0.,0.,0.,0.,0.,0
 .,0.,0.,0.,0.,0.,0.,0.,0.,0.,0.,0.,0.,0.,0.,0.,0.,0.,0.,0.,0.,0.,0.,0.
 ,0.,0.,0.,0.,0.,0.,0.,0.,0.,0.,0.,0.,0.,0.,0.,0.,0.,0.,0.,0.,0.,0.,0.,
 0.,0.,0.,0.,0.,0.,0.,0.,0.,0.,0.,0.,0.,0.,0.,0.,0.,0.,0.,0.,0.,0.,0.,0
 .,0.,0.,0.,0.,0.,0.,0.,0.,0.,0.,0.,0.,0.,0.,0.,0.,0.,0.,0.,0.,0.,0.,0.
 ,0.,0.,0.,0.,0.,0.,0.,0.,0.,0.,0.,0.,0.,0.,0.,0.,0.,0.,0.,0.,0.,0.,0.,
 0.,0.,0.,0.,0.,0.,0.,0.,0.,0.,0.,0.,0.,0.,0.,0.,0.,0.,0.,0.,0.,0.,0.,0
 .,0.,0.,0.,0.,0.,0.,0.,0.,0.,0.,0.,0.,0.,0.,0.,0.,0.,0.,0.,0.,0.,0.,0.
 ,0.,0.,0.,0.,0.,0.,0.,0.,0.,0.,0.,0.,0.,0.,0.,0.,0.,0.,0.,0.,0.,0.,0.,
 0.,0.,0.,0.,0.,0.,0.,0.,0.,0.,0.,0.,0.,0.,0.,0.,0.,0.,0.,0.,0.,0.,0.,0
 .,0.,0.,0.,0.,0.,0.,0.,0.,0.,0.,0.,0.,0.,0.,0.,0.,0.,0.,0.,0.,0.,0.,0.
 ,0.,0.,0.,0.,0.,0.,0.,0.,0.,0.,0.,0.,0.,0.,0.,0.,0.,0.,0.,0.,0.,0.,0.,
 0.,0.,0.,0.,0.,0.,0.,0.,0.,0.,0.,0.,0.,0.,0.,0.,0.,0.,0.,0.,0.,0.,0.,0
 .,0.,0.,0.,0.,0.,0.,0.,0.,0.,0.,0.,0.,0.,0.,0.,0.,0.,0.,0.,0.,0.,0.,0.
 ,0.,0.,0.,0.,0.,0.,0.,0.,0.,0.,0.,0.,0.,0.,0.,0.,0.,0.,0.,0.,0.,0.,0.,
 0.,0.,0.,0.,0.,0.,0.,0.,0.,0.,0.,0.,0.,0.,0.,0.,0.,0.,0.,0.,0.,0.,0.,0
 .,0.,0.,0.,0.,0.,0.,0.,0.,0.,0.,0.,0.,0.,0.,0.,0.,0.,0.,0.,0.,0.,0.,0.
 ,0.,0.,0.,0.,0.,0.,0.,0.,0.,0.,0.,0.,0.,0.,0.,0.,0.,0.,0.,0.,0.,0.,0.,
 0.,0.,0.,0.,0.,0.,0.,0.,0.,0.,0.,0.,0.,0.,0.,0.,0.,0.,0.,0.,0.,0.,0.,0
 .,0.,0.,0.,0.,0.,0.,0.,0.,0.,0.,0.,0.,0.,0.,0.,0.,0.,0.,0.,0.,0.,0.,0.
 ,0.,0.,0.,0.,0.,0.,0.,0.,0.,0.,0.,0.,0.,0.,0.,0.,0.,0.,0.,0.,0.,0.,0.,
 0.,0.,0.,0.,0.,0.,0.,0.,0.,0.,0.,0.,0.,0.,0.,0.,0.,0.,0.,0.,0.,0.,0.,0
 .,0.,0.,0.,0.,0.,0.,0.,0.,0.,0.,0.,0.,0.,0.,0.,0.,0.,0.,0.,0.,0.,0.,0.
 ,0.,0.,0.,0.,0.,0.,0.,0.,0.,0.,0.,0.,0.,0.,0.,0.,0.,0.,0.,0.,0.,0.,0.,
 0.,0.,0.,0.,0.,0.,0.,0.,0.,0.,0.,0.,0.,0.,0.,0.,0.,0.,0.,0.,0.,0.,0.,0
 .,0.,0.,0.,0.,0.,0.,0.,0.,0.,0.,0.,0.,0.,0.,0.,0.,0.,0.,0.,0.,0.,0.,0.
 ,0.,0.,0.,0.,0.,0.,0.,0.,0.,0.,0.,0.,0.,0.,0.,0.,0.,0.,0.,0.,0.,0.,0.,
 0.,0.,0.,0.,0.,0.,0.,0.,0.,0.,0.,0.,0.,0.,0.,0.,0.,0.,0.,0.,0.,0.,0.,0
 .,0.,0.,0.,0.,0.,0.,0.,0.,0.,0.,0.,0.,0.,0.,0.,0.,0.,0.,0.,0.,0.,0.,0.
 ,0.,0.,0.,0.,0.,0.,0.,0.,0.,0.,0.,0.,0.,0.,0.,0.,0.,0.,0.,0.,0.,0.,0.,
 0.,0.,0.,0.,0.,0.,0.,0.,0.,0.,0.,0.,0.,0.,0.,0.,0.,0.,0.,0.,0.,0.,0.,0
 .,0.,0.,0.,0.,0.,0.,0.,0.,0.,0.,0.,0.,0.,0.,0.,0.,0.,0.,0.,0.,0.,0.,0.
 ,0.,0.,0.,0.,0.,0.,0.,0.,0.,0.,0.,0.,0.,0.,0.,0.,0.,0.,0.,0.,0.,0.,0.,
 0.,0.,0.,0.,0.,0.,0.,0.,0.,0.,0.,0.,0.,0.,0.,0.,0.,0.,0.,0.,0.,0.,0.,0
 .,0.,0.,0.,0.,0.,0.,0.,0.,0.,0.,0.,0.,0.,0.,0.,0.,0.,0.,0.,0.,0.,0.,0.
 ,0.,0.,0.,0.,0.,0.,0.,0.,0.,0.,0.,0.,0.,0.,0.,0.,0.,0.,0.,0.,0.,0.,0.,
 0.,0.,0.,0.,0.,0.,0.,0.,0.,0.,0.,0.,0.,0.,0.,0.,0.,0.,0.,0.,0.,0.,0.,0
 .,0.,0.,0.,0.,0.,0.,0.,0.,0.,0.,0.,0.,0.,0.,0.,0.,0.,0.,0.,0.,0.,0.,0.
 ,0.,0.,0.,0.,0.,0.,0.,0.,0.,0.,0.,0.,0.,0.,0.,0.,0.,0.,0.,0.,0.,0.,0.,
 0.,0.,0.,0.,0.,0.,0.,0.,0.,0.,0.,0.,0.,0.,0.,0.,0.,0.,0.,0.,0.,0.,0.,0
 .,0.,0.,0.,0.,0.,0.,0.,0.,0.,0.,0.,0.,0.,0.,0.,0.,0.,0.,0.,0.,0.,0.,0.
 ,0.,0.,0.,0.,0.,0.,0.,0.,0.,0.,0.,0.,0.,0.,0.,0.,0.,0.,0.,0.,0.,0.,0.,
 0.,0.,0.,0.,0.,0.,0.,0.,0.,0.,0.,0.,0.,0.,0.,0.,0.,0.,0.,0.,0.,0.,0.,0
 .,0.,0.,0.,0.,0.,0.,0.,0.,0.,0.,0.,0.,0.,0.,0.,0.,0.,0.,0.,0.,0.,0.,0.
 ,0.,0.,0.,0.,0.,0.,0.,0.,0.,0.,0.,0.,0.,0.,0.,0.,0.,0.,0.,0.,0.,0.,0.,
 0.,0.,0.,0.,0.,0.,0.,0.,0.,0.,0.,0.,0.,0.,0.,0.,0.,0.,0.,0.,0.,0.,0.,0
 .,0.,0.,0.,0.,0.,0.,0.,0.,0.,0.,0.,0.,0.,0.,0.,0.,0.,0.,0.,0.,0.,0.,0.
 ,0.,0.,0.,0.,0.,0.,0.,0.,0.,0.,0.,0.,0.,0.,0.,0.,0.,0.,0.,0.,0.,0.,0.,
 0.,0.,0.,0.,0.,0.,0.,0.,0.,0.,0.,0.,0.,0.,0.,0.,0.,0.,0.,0.,0.,0.,0.,0
 .,0.,0.,0.,0.,0.,0.,0.,0.,0.,0.,0.,0.,0.,0.,0.,0.,0.,0.,0.,0.,0.,0.,0.
 ,0.,0.,0.,0.,0.,0.,0.,0.,0.,0.,0.,0.,0.,0.,0.,0.,0.,0.,0.,0.,0.,0.,0.,
 0.,0.,0.,0.,0.,0.,0.,0.,0.,0.,0.,0.,0.,0.,0.,0.,0.,0.,0.,0.,0.,0.,0.,0
 .,0.,0.,0.,0.,0.,0.,0.,0.,0.,0.,0.,0.,0.,0.,0.,0.,0.,0.,0.,0.,0.,0.,0.
 ,0.,0.,0.,0.,0.,0.,0.,0.,0.,0.,0.,0.,0.,0.,0.,0.,0.,0.,0.,0.,0.,0.,0.,
 0.,0.,0.,0.,0.,0.,0.,0.,0.,0.,0.,0.,0.,0.,0.,0.,0.,0.,0.,0.,0.,0.,0.,0
 .,0.,0.,0.,0.,0.,0.,0.,0.,0.,0.,0.,0.,0.,0.,0.,0.,0.,0.,0.,0.,0.,0.,0.
 ,0.,0.,0.,0.,0.,0.,0.,0.,0.,0.,0.,0.,0.,0.,0.,0.,0.,0.,0.,0.,0.,0.,0.,
 0.,0.,0.,0.,0.,0.,0.,0.,0.,0.,0.,0.,0.,0.,0.,0.,0.,0.,0.,0.,0.,0.,0.,0
 .,0.,0.,0.,0.,0.,0.,0.,0.,0.,0.,0.,0.,0.,0.,0.,0.,0.,0.,0.,0.,0.,0.,0.
 ,0.,0.,0.,0.,0.,0.,0.,0.,0.,0.,0.,0.,0.,0.,0.,0.,0.,0.,0.,0.,0.,0.,0.,
 0.,0.,0.,0.,0.,0.,0.,0.,0.,0.,0.,0.,0.,0.,0.,0.,0.,0.,0.,0.,0.,0.,0.,0
 .,0.,0.,0.,0.,0.,0.,0.,0.,0.,0.,0.,0.,0.,0.,0.,0.,0.,0.,0.,0.,0.,0.,0.
 ,0.,0.,0.,0.,0.,0.,0.,0.,0.,0.,0.,0.,0.,0.,0.,0.,0.,0.,0.,0.,0.,0.,0.,
 0.,0.,0.,0.,0.,0.,0.,0.,0.,0.,0.,0.,0.,0.,0.,0.,0.,0.,0.,0.,0.,0.,0.,0
 .,0.,0.,0.,0.,0.,0.,0.,0.,0.,0.,0.,0.,0.,0.,0.,0.,0.,0.,0.,0.,0.,0.,0.
 ,0.,0.,0.,0.,0.,0.,0.,0.,0.,0.,0.,0.,0.,0.,0.,0.,0.,0.,0.,0.,0.,0.,0.,
 0.,0.,0.,0.,0.,0.,0.,0.,0.,0.,0.,0.,0.,0.,0.,0.,0.,0.,0.,0.,0.,0.,0.,0
 .,0.,0.,0.,0.,0.,0.,0.,0.,0.,0.,0.,0.,0.,0.,0.,0.,0.,0.,0.,0.,0.,0.,0.
 ,0.,0.,0.,0.,0.,0.,0.,0.,0.,0.,0.,0.,0.,0.,0.,0.,0.,0.,0.,0.,0.,0.,0.,
 0.,0.,0.,0.,0.,0.,0.,0.,0.,0.,0.,0.,0.,0.,0.,0.,0.,0.,0.,0.,0.,0.,0.,0
 .,0.,0.,0.,0.,0.,0.,0.,0.,0.,0.,0.,0.,0.,0.,0.,0.,0.,0.,0.,0.,0.,0.,0.
 ,0.,0.,0.,0.,0.,0.,0.,0.,0.,0.,0.,0.,0.,0.,0.,0.,0.,0.,0.,0.,0.,0.,0.,
 0.,0.,0.,0.,0.,0.,0.,0.,0.,0.,0.,0.,0.,0.,0.,0.,0.,0.,0.,0.,0.,0.,0.,0
 .,0.,0.,0.,0.,0.,0.,0.,0.,0.,0.,0.,0.,0.,0.,0.,0.,0.,0.,0.,0.,0.,0.,0.
 ,0.,0.,0.,0.,0.,0.,0.,0.,0.,0.,0.,0.,0.,0.,0.,0.,0.,0.,0.,0.,0.,0.,0.,
 0.,0.,0.,0.,0.,0.,0.,0.,0.,0.,0.,0.,0.,0.,0.,0.,0.,0.,0.,0.,0.,0.,0.,0
 .,0.,0.,0.,0.,0.,0.,0.,0.,0.,0.,0.,0.,0.,0.,0.,0.,0.,0.,0.,0.,0.,0.,0.
 ,0.,0.,0.,0.,0.,0.,0.,0.,0.,0.,0.,0.,0.,0.,0.,0.,0.,0.,0.,0.,0.,0.,0.,
 0.,0.,0.,0.,0.,0.,0.,0.,0.,0.,0.,0.,0.,0.,0.,0.,0.,0.,0.,0.,0.,0.,0.,0
 .,0.,0.,0.,0.,0.,0.,0.,0.,0.,0.,0.,0.,0.,0.,0.,0.,0.,0.,0.,0.,0.,0.,0.
 ,0.,0.,0.,0.,0.,0.,0.,0.,0.,0.,0.,0.,0.,0.,0.,0.,0.,0.,0.,0.,0.,0.,0.,
 0.,0.,0.,0.,0.,0.,0.,0.,0.,0.,0.,0.,0.,0.,0.,0.,0.,0.,0.,0.,0.,0.,0.,0
 .,0.,0.,0.,0.,0.,0.,0.,0.,0.,0.,0.,0.,0.,0.,0.,0.,0.,0.,0.,0.,0.,0.,0.
 ,0.,0.,0.,0.,0.,0.,0.,0.,0.,0.,0.,0.,0.,0.,0.,0.,0.,0.,0.,0.,0.,0.,0.,
 0.,0.,0.,0.,0.,0.,0.,0.,0.,0.,0.,0.,0.,0.,0.,0.,0.,0.,0.,0.,0.,0.,0.,0
 .,0.,0.,0.,0.,0.,0.,0.,0.,0.,0.,0.,0.,0.,0.,0.,0.,0.,0.,0.,0.,0.,0.,0.
 ,0.,0.,0.,0.,0.,0.,0.,0.,0.,0.,0.,0.,0.,0.,0.,0.,0.,0.,0.,0.,0.,0.,0.,
 0.,0.,0.,0.,0.,0.,0.,0.,0.,0.,0.,0.,0.,0.,0.,0.,0.,0.,0.,0.,0.,0.,0.,0
 .,0.,0.,0.,0.,0.,0.,0.,0.,0.,0.,0.,0.,0.,0.,0.,0.,0.,0.,0.,0.,0.,0.,0.
 ,0.,0.,0.,0.,0.,0.,0.,0.,0.,0.,0.,0.,0.,0.,0.,0.,0.,0.,0.,0.,0.,0.,0.,
 0.,0.,0.,0.,0.,0.,0.,0.,0.,0.,0.,0.,0.,0.,0.,0.,0.,0.,0.,0.,0.,0.,0.,0
 .,0.,0.,0.,0.,0.,0.,0.,0.,0.,0.,0.,0.,0.,0.,0.,0.,0.,0.,0.,0.,0.,0.,0.
 ,0.,0.,0.,0.,0.,0.,0.,0.,0.,0.,0.,0.,0.,0.,0.,0.,0.,0.,0.,0.,0.,0.,0.,
 0.,0.,0.,0.,0.,0.,0.,0.,0.,0.,0.,0.,0.,0.,0.,0.,0.,0.,0.,0.,0.,0.,0.,0
 .,0.,0.,0.,0.,0.,0.,0.,0.,0.,0.,0.,0.,0.,0.,0.,0.,0.,0.,0.,0.,0.,0.,0.
 ,0.,0.,0.,0.,0.,0.,0.,0.,0.,0.,0.,0.,0.,0.,0.,0.,0.,0.,0.,0.,0.,0.,0.,
 0.,0.,0.,0.,0.,0.,0.,0.,0.,0.,0.,0.,0.,0.,0.,0.,0.,0.,0.,0.,0.,0.,0.,0
 .,0.,0.,0.,0.,0.,0.,0.,0.,0.,0.,0.,0.,0.,0.,0.,0.,0.,0.,0.,0.,0.,0.,0.
 ,0.,0.,0.,0.,0.,0.,0.,0.,0.,0.,0.,0.,0.,0.,0.,0.,0.,0.,0.,0.,0.,0.,0.,
 0.,0.,0.,0.,0.,0.,0.,0.,0.,0.,0.,0.,0.,0.,0.,0.,0.,0.,0.,0.,0.,0.,0.,0
 .,0.,0.,0.,0.,0.,0.,0.,0.,0.,0.,0.,0.,0.,0.,0.,0.,0.,0.,0.,0.,0.,0.,0.
 ,0.,0.,0.,0.,0.,0.,0.,0.,0.,0.,0.,0.,0.,0.,0.,0.,0.,0.,0.,0.,0.,0.,0.,
 0.,0.,0.,0.,0.,0.,0.,0.,0.,0.,0.,0.,0.,0.,0.,0.,0.,0.,0.,0.,0.,0.,0.,0
 .,0.,0.,0.,0.,0.,0.,0.,0.,0.,0.,0.,0.,0.,0.,0.,0.,0.,0.,0.,0.,0.,0.,0.
 ,0.,0.,0.,0.,0.,0.,0.,0.,0.,0.,0.,0.,0.,0.,0.,0.,0.,0.,0.,0.,0.,0.,0.,
 0.,0.,0.,0.,0.,0.,0.,0.,0.,0.,0.,0.,0.,0.,0.,0.,0.,0.,0.,0.,0.,0.,0.,0
 .,0.,0.,0.,0.,0.,0.,0.,0.,0.,0.,0.,0.,0.,0.,0.,0.,0.,0.,0.,0.,0.,0.,0.
 ,0.,0.,0.,0.,0.,0.,0.,0.,0.,0.,0.,0.,0.,0.,0.,0.,0.,0.,0.,0.,0.,0.,0.,
 0.,0.,0.,0.,0.,0.,0.,0.,0.,0.,0.,0.,0.,0.,0.,0.,0.,0.,0.,0.,0.,0.,0.,0
 .,0.,0.,0.,0.,0.,0.,0.,0.,0.,0.,0.,0.,0.,0.,0.,0.,0.,0.,0.,0.,0.,0.,0.
 ,0.,0.,0.,0.,0.,0.,0.,0.,0.,0.,0.,0.,0.,0.,0.,0.,0.,0.,0.,0.,0.,0.,0.,
 0.,0.,0.,0.,0.,0.,0.,0.,0.,0.,0.,0.,0.,0.,0.,0.,0.,0.,0.,0.,0.,0.,0.,0
 .,0.,0.,0.,0.,0.,0.,0.,0.,0.,0.,0.,0.,0.,0.,0.,0.,0.,0.,0.,0.,0.,0.,0.
 ,0.,0.,0.,0.,0.,0.,0.,0.,0.,0.,0.,0.,0.,0.,0.,0.,0.,0.,0.,0.,0.,0.,0.,
 0.,0.,0.,0.,0.,0.,0.,0.,0.,0.,0.,0.,0.,0.,0.,0.,0.,0.,0.,0.,0.,0.,0.,0
 .,0.,0.,0.,0.,0.,0.,0.,0.,0.,0.,0.,0.,0.,0.,0.,0.,0.,0.,0.,0.,0.,0.,0.
 ,0.,0.,0.,0.,0.,0.,0.,0.,0.,0.,0.,0.,0.,0.,0.,0.,0.,0.,0.,0.,0.,0.,0.,
 0.,0.,0.,0.,0.,0.,0.,0.,0.,0.,0.,0.,0.,0.,0.,0.,0.,0.,0.,0.,0.,0.,0.,0
 .,0.,0.,0.,0.,0.,0.,0.,0.,0.,0.,0.,0.,0.,0.,0.,0.,0.,0.,0.,0.,0.,0.,0.
 ,0.,0.,0.,0.,0.,0.,0.,0.,0.,0.,0.,0.,0.,0.,0.,0.,0.,0.,0.,0.,0.,0.,0.,
 0.,0.,0.,0.,0.,0.,0.,0.,0.,0.,0.,0.,0.,0.,0.,0.,0.,0.,0.,0.,0.,0.,0.,0
 .,0.,0.,0.,0.,0.,0.,0.,0.,0.,0.,0.,0.,0.,0.,0.,0.,0.,0.,0.,0.,0.,0.,0.
 ,0.,0.,0.,0.,0.,0.,0.,0.,0.,0.,0.,0.,0.,0.,0.,0.,0.,0.,0.,0.,0.,0.,0.,
 0.,0.,0.,0.,0.,0.,0.,0.,0.,0.,0.,0.,0.,0.,0.,0.,0.,0.,0.,0.,0.,0.,0.,0
 .,0.,0.,0.,0.,0.,0.,0.,0.,0.,0.,0.,0.,0.,0.,0.,0.,0.,0.,0.,0.,0.,0.,0.
 ,0.,0.,0.,0.,0.,0.,0.,0.,0.,0.,0.,0.,0.,0.,0.,0.,0.,0.,0.,0.,0.,0.,0.,
 0.,0.,0.,0.,0.,0.,0.,0.,0.,0.,0.,0.,0.,0.,0.,0.,0.,0.,0.,0.,0.,0.,0.,0
 .,0.,0.,0.,0.,0.,0.,0.,0.,0.,0.,0.,0.,0.,0.,0.,0.,0.,0.,0.,0.,0.,0.,0.
 ,0.,0.,0.,0.,0.,0.,0.,0.,0.,0.,0.,0.,0.,0.,0.,0.,0.,0.,0.,0.,0.,0.,0.,
 0.,0.,0.,0.,0.,0.,0.,0.,0.,0.,0.,0.,0.,0.,0.,0.,0.,0.,0.,0.,0.,0.,0.,0
 .,0.,0.,0.,0.,0.,0.,0.,0.,0.,0.,0.,0.,0.,0.,0.,0.,0.,0.,0.,0.,0.,0.,0.
 ,0.,0.,0.,0.,0.,0.,0.,0.,0.,0.,0.,0.,0.,0.,0.,0.,0.,0.,0.,0.,0.,0.,0.,
 0.,0.,0.,0.,0.,0.,0.,0.,0.,0.,0.,0.,0.,0.,0.,0.,0.,0.,0.,0.,0.,0.,0.,0
 .,0.,0.,0.,0.,0.,0.,0.,0.,0.,0.,0.,0.,0.,0.,0.,0.,0.,0.,0.,0.,0.,0.,0.
 ,0.,0.,0.,0.,0.,0.,0.,0.,0.,0.,0.,0.,0.,0.,0.,0.,0.,0.,0.,0.,0.,0.,0.,
 0.,0.,0.,0.,0.,0.,0.,0.,0.,0.,0.,0.,0.,0.,0.,0.,0.,0.,0.,0.,0.,0.,0.,0
 .,0.,0.,0.,0.,0.,0.,0.,0.,0.,0.,0.,0.,0.,0.,0.,0.,0.,0.,0.,0.,0.,0.,0.
 ,0.,0.,0.,0.,0.,0.,0.,0.,0.,0.,0.,0.,0.,0.,0.,0.,0.,0.,0.,0.,0.,0.,0.,
 0.,0.,0.,0.,0.,0.,0.,0.,0.,0.,0.,0.,0.,0.,0.,0.,0.,0.,0.,0.,0.,0.,0.,0
 .,0.,0.,0.,0.,0.,0.,0.,0.,0.,0.,0.,0.,0.,0.,0.,0.,0.,0.,0.,0.,0.,0.,0.
 ,0.,0.,0.,0.,0.,0.,0.,0.,0.,0.,0.,0.,0.,0.,0.,0.,0.,0.,0.,0.,0.,0.,0.,
 0.,0.,0.,0.,0.,0.,0.,0.,0.,0.,0.,0.,0.,0.,0.,0.,0.,0.,0.,0.,0.,0.,0.,0
 .,0.,0.,0.,0.,0.,0.,0.,0.,0.,0.,0.,0.,0.,0.,0.,0.,0.,0.,0.,0.,0.,0.,0.
 ,0.,0.,0.,0.,0.,0.,0.,0.,0.,0.,0.,0.,0.,0.,0.,0.,0.,0.,0.,0.,0.,0.,0.,
 0.,0.,0.,0.,0.,0.,0.,0.,0.,0.,0.,0.,0.,0.,0.,0.,0.,0.,0.,0.,0.,0.,0.,0
 .,0.,0.,0.,0.,0.,0.,0.,0.,0.,0.,0.,0.,0.,0.,0.,0.,0.,0.,0.,0.,0.,0.,0.
 ,0.,0.,0.,0.,0.,0.,0.,0.,0.,0.,0.,0.,0.,0.,0.,0.,0.,0.,0.,0.,0.,0.,0.,
 0.,0.,0.,0.,0.,0.,0.,0.,0.,0.,0.,0.,0.,0.,0.,0.,0.,0.,0.,0.,0.,0.,0.,0
 .,0.,0.,0.,0.,0.,0.,0.,0.,0.,0.,0.,0.,0.,0.,0.,0.,0.,0.,0.,0.,0.,0.,0.
 ,0.,0.,0.,0.,0.,0.,0.,0.,0.,0.,0.,0.,0.,0.,0.,0.,0.,0.,0.,0.,0.,0.,0.,
 0.,0.,0.,0.,0.,0.,0.,0.,0.,0.,0.,0.,0.,0.,0.,0.,0.,0.,0.,0.,0.,0.,0.,0
 .,0.,0.,0.,0.,0.,0.,0.,0.,0.,0.,0.,0.,0.,0.,0.,0.,0.,0.,0.,0.,0.,0.,0.
 ,0.,0.,0.,0.,0.,0.,0.,0.,0.,0.,0.,0.,0.,0.,0.,0.,0.,0.,0.,0.,0.,0.,0.,
 0.,0.,0.,0.,0.,0.,0.,0.,0.,0.,0.,0.,0.,0.,0.,0.,0.,0.,0.,0.,0.,0.,0.,0
 .,0.,0.,0.,0.,0.,0.,0.,0.,0.,0.,0.,0.,0.,0.,0.,0.,0.,0.,0.,0.,0.,0.,0.
 ,0.,0.,0.,0.,0.,0.,0.,0.,0.,0.,0.,0.,0.,0.,0.,0.,0.,0.,0.,0.,0.,0.,0.,
 0.,0.,0.,0.,0.,0.,0.,0.,0.,0.,0.,0.,0.,0.,0.,0.,0.,0.,0.,0.,0.,0.,0.,0
 .,0.,0.,0.,0.,0.,0.,0.,0.,0.,0.,0.,0.,0.,0.,0.,0.,0.,0.,0.,0.,0.,0.,0.
 ,0.,0.,0.,0.,0.,0.,0.,0.,0.,0.,0.,0.,0.,0.,0.,0.,0.,0.,0.,0.,0.,0.,0.,
 0.,0.,0.,0.,0.,0.,0.,0.,0.,0.,0.,0.,0.,0.,0.,0.,0.,0.,0.,0.,0.,0.,0.,0
 .,0.,0.,0.,0.,0.,0.,0.,0.,0.,0.,0.,0.,0.,0.,0.,0.,0.,0.,0.,0.,0.,0.,0.
 ,0.,0.,0.,0.,0.,0.,0.,0.,0.,0.,0.,0.,0.,0.,0.,0.,0.,0.,0.,0.,0.,0.,0.,
 0.,0.,0.,0.,0.,0.,0.,0.,0.,0.,0.,0.,0.,0.,0.,0.,0.,0.,0.,0.89286840,0.
 ,0.,0.,0.,0.,0.,0.,0.,0.,0.,0.,0.,0.,0.,0.,0.,0.,0.,0.,0.,0.,0.,0.,0.,
 0.,0.,0.,0.,0.,0.,0.,0.,0.,0.,0.,0.,0.,0.,0.,0.,0.,0.,0.,0.,0.,0.,0.,0
 .,0.,0.,0.,0.,0.,0.,0.,0.,0.,0.,0.,0.,0.,0.,0.,0.,0.,0.,0.,0.,0.,0.,0.
 ,0.,0.,0.,0.,0.,0.,0.,0.,0.,0.,0.,0.,0.,0.,0.,0.,0.,0.,0.,0.,0.,0.,0.,
 0.,0.,0.,0.,0.,0.,0.,0.,0.,0.,0.,0.,0.,0.,0.,0.,0.,0.,0.,0.,0.,0.,0.,0
 .,0.,0.,0.,0.,0.,0.,0.,0.,0.,0.,0.,0.,0.,0.,0.,0.,0.,0.,0.,0.,0.,0.,0.
 ,0.,0.,0.,-0.43552898,0.14594078,0.,0.,0.,0.,0.,0.,0.,0.,0.,0.,0.,0.,0
 .,0.,0.,0.,0.,0.,0.,0.,0.,0.,0.,0.,0.,0.,0.,0.,0.,0.,0.,0.,0.,0.,0.,0.
 ,0.,0.,0.,0.,0.,0.,0.,0.,0.,0.,0.,0.,0.,0.,0.,0.,0.,0.,0.,0.,0.,0.,0.,
 0.,0.,0.,0.,0.,0.,0.,0.,0.,0.,0.,0.,0.,0.,0.,0.,0.,0.,0.,0.,0.,0.,0.,0
 .,0.,0.,0.,0.,0.,0.,0.,0.,0.,0.,0.,0.,0.,0.,0.,0.,0.,0.,0.,0.,0.,0.,0.
 ,0.,0.,0.,0.,0.,0.,0.,0.,0.,0.,0.,0.,0.,0.,0.,0.,0.,0.,0.,0.,0.,0.,0.,
 0.,0.,0.,0.,0.,0.,0.,0.,0.,0.,0.,0.,0.,0.,0.,-0.13775810,0.06875239,-0
 .01823940,0.,0.,0.,0.,0.,0.,0.,0.,0.,0.,0.,0.,0.,0.,0.,0.,0.,0.,0.,0.,
 0.,0.,0.,0.,0.,0.,0.,0.,0.,0.,0.,0.,0.,0.,0.,0.,0.,0.,0.,0.,0.,0.,0.,0
 .,0.,0.,0.,0.,0.,0.,0.,0.,0.,0.,0.,0.,0.,0.,0.,0.,0.,0.,0.,0.,0.,0.,0.
 ,0.,0.,0.,0.,0.,0.,0.,0.,0.,0.,0.,0.,0.,0.,0.,0.,0.,0.,0.,0.,0.,0.,0.,
 0.,0.,0.,0.,0.,0.,0.,0.,0.,0.,0.,0.,0.,0.,0.,0.,0.,0.,0.,0.,0.,0.,0.,0
 .,0.,0.,0.,0.,0.,0.,0.,0.,0.,0.,0.,0.,0.,0.,0.,0.,0.,0.,0.,0.,0.,0.,0.
 ,0.,0.,0.,0.,0.,0.,0.,-0.91105977,0.43950716,0.14075593,0.88170389,0.,
 0.,0.,0.,0.,0.,0.,0.,0.,0.,0.,0.,0.,0.,0.,0.,0.,0.,0.,0.,0.,0.,0.,0.,0
 .,0.,0.,0.,0.,0.,0.,0.,0.,0.,0.,0.,0.,0.,0.,0.,0.,0.,0.,0.,0.,0.,0.,0.
 ,0.,0.,0.,0.,0.,0.,0.,0.,0.,0.,0.,0.,0.,0.,0.,0.,0.,0.,0.,0.,0.,0.,0.,
 0.,0.,0.,0.,0.,0.,0.,0.,0.,0.,0.,0.,0.,0.,0.,0.,0.,0.,0.,0.,0.,0.,0.,0
 .,0.,0.,0.,0.,0.,0.,0.,0.,0.,0.,0.,0.,0.,0.,0.,0.,0.,0.,0.,0.,0.,0.,0.
 ,0.,0.,0.,0.,0.,0.,0.,0.,0.,0.,0.,0.,0.,0.,0.,0.,0.,0.,0.,0.,0.,0.,0.,
 0.,0.,0.,0.39373551,-0.13557518,-0.05190733,-0.38990734,0.09522336,0.,
 0.,0.,0.,0.,0.,0.,0.,0.,0.,0.,0.,0.,0.,0.,0.,0.,0.,0.,0.,0.,0.,0.,0.,0
 .,0.,0.,0.,0.,0.,0.,0.,0.,0.,0.,0.,0.,0.,0.,0.,0.,0.,0.,0.,0.,0.,0.,0.
 ,0.,0.,0.,0.,0.,0.,0.,0.,0.,0.,0.,0.,0.,0.,0.,0.,0.,0.,0.,0.,0.,0.,0.,
 0.,0.,0.,0.,0.,0.,0.,0.,0.,0.,0.,0.,0.,0.,0.,0.,0.,0.,0.,0.,0.,0.,0.,0
 .,0.,0.,0.,0.,0.,0.,0.,0.,0.,0.,0.,0.,0.,0.,0.,0.,0.,0.,0.,0.,0.,0.,0.
 ,0.,0.,0.,0.,0.,0.,0.,0.,0.,0.,0.,0.,0.,0.,0.,0.,0.,0.,0.,0.,0.,0.,0.,
 0.,0.,0.,0.00073727,0.00989891,0.07355436,0.00284113,0.02996399,0.0360
 1592||0.,0.,0.,0.,0.,0.,0.,0.,0.,0.,0.,0.,0.,0.,0.,0.,0.,0.,0.,0.,0.,0
 .,0.,0.,0.,0.,0.,0.,0.,0.,0.,0.,0.,0.,0.,0.,0.,0.,0.,0.,0.,0.,0.,0.,0.
 ,0.,0.,0.,0.,0.,0.,0.,0.,0.,0.,0.,0.,0.,0.,0.,0.,0.,0.,0.,0.,0.,0.,0.,
 0.,0.,0.,0.,0.,0.,0.,0.,0.,0.,0.,0.,0.,0.,0.,0.,0.,0.,0.,0.,0.,0.,0.,0
 .,0.,0.,0.,0.,0.,0.,0.,0.,0.,0.,0.,0.,0.,0.,0.,0.,0.,0.,0.,0.,0.,0.,0.
 ,0.,0.,0.,0.,0.,0.,0.,0.,0.,0.,0.,0.,0.,0.,0.,0.,0.,0.,0.,0.,0.,0.,0.,
 0.,0.,0.,0.,0.,0.,0.10564863,-0.05810894,-0.04651338,-0.10646973,0.021
 56290,-0.08466462|||@


 Human beings, who are almost unique in having the
 ability to learn from the experience of others, are
 also remarkable for their apparent disinclination to do so.
                               -- Douglas Adams,
                                Last Chance to See
 Job cpu time:       0 days  0 hours  5 minutes 36.0 seconds.
 File lengths (MBytes):  RWF=   1083 Int=      0 D2E=      0 Chk=     11 Scr=      1
 Normal termination of Gaussian 09 at Sun Jan 05 16:45:33 2025.
