 Entering Link 1 = C:\Gaussian\G09W\l1.exe PID=     44556.
  
 Copyright (c) 1988,1990,1992,1993,1995,1998,2003,2009,2013,
            Gaussian, Inc.  All Rights Reserved.
  
 This is part of the Gaussian(R) 09 program.  It is based on
 the Gaussian(R) 03 system (copyright 2003, Gaussian, Inc.),
 the Gaussian(R) 98 system (copyright 1998, Gaussian, Inc.),
 the Gaussian(R) 94 system (copyright 1995, Gaussian, Inc.),
 the Gaussian 92(TM) system (copyright 1992, Gaussian, Inc.),
 the Gaussian 90(TM) system (copyright 1990, Gaussian, Inc.),
 the Gaussian 88(TM) system (copyright 1988, Gaussian, Inc.),
 the Gaussian 86(TM) system (copyright 1986, Carnegie Mellon
 University), and the Gaussian 82(TM) system (copyright 1983,
 Carnegie Mellon University). Gaussian is a federally registered
 trademark of Gaussian, Inc.
  
 This software contains proprietary and confidential information,
 including trade secrets, belonging to Gaussian, Inc.
  
 This software is provided under written license and may be
 used, copied, transmitted, or stored only in accord with that
 written license.
  
 The following legend is applicable only to US Government
 contracts under FAR:
  
                    RESTRICTED RIGHTS LEGEND
  
 Use, reproduction and disclosure by the US Government is
 subject to restrictions as set forth in subparagraphs (a)
 and (c) of the Commercial Computer Software - Restricted
 Rights clause in FAR 52.227-19.
  
 Gaussian, Inc.
 340 Quinnipiac St., Bldg. 40, Wallingford CT 06492
  
  
 ---------------------------------------------------------------
 Warning -- This program may not be used in any manner that
 competes with the business of Gaussian, Inc. or will provide
 assistance to any competitor of Gaussian, Inc.  The licensee
 of this program is prohibited from giving any competitor of
 Gaussian, Inc. access to this program.  By using this program,
 the user acknowledges that Gaussian, Inc. is engaged in the
 business of creating and licensing software in the field of
 computational chemistry and represents and warrants to the
 licensee that it is not a competitor of Gaussian, Inc. and that
 it will not use this program in any manner prohibited above.
 ---------------------------------------------------------------
  

 Cite this work as:
 Gaussian 09, Revision D.01,
 M. J. Frisch, G. W. Trucks, H. B. Schlegel, G. E. Scuseria, 
 M. A. Robb, J. R. Cheeseman, G. Scalmani, V. Barone, B. Mennucci, 
 G. A. Petersson, H. Nakatsuji, M. Caricato, X. Li, H. P. Hratchian, 
 A. F. Izmaylov, J. Bloino, G. Zheng, J. L. Sonnenberg, M. Hada, 
 M. Ehara, K. Toyota, R. Fukuda, J. Hasegawa, M. Ishida, T. Nakajima, 
 Y. Honda, O. Kitao, H. Nakai, T. Vreven, J. A. Montgomery, Jr., 
 J. E. Peralta, F. Ogliaro, M. Bearpark, J. J. Heyd, E. Brothers, 
 K. N. Kudin, V. N. Staroverov, T. Keith, R. Kobayashi, J. Normand, 
 K. Raghavachari, A. Rendell, J. C. Burant, S. S. Iyengar, J. Tomasi, 
 M. Cossi, N. Rega, J. M. Millam, M. Klene, J. E. Knox, J. B. Cross, 
 V. Bakken, C. Adamo, J. Jaramillo, R. Gomperts, R. E. Stratmann, 
 O. Yazyev, A. J. Austin, R. Cammi, C. Pomelli, J. W. Ochterski, 
 R. L. Martin, K. Morokuma, V. G. Zakrzewski, G. A. Voth, 
 P. Salvador, J. J. Dannenberg, S. Dapprich, A. D. Daniels, 
 O. Farkas, J. B. Foresman, J. V. Ortiz, J. Cioslowski, 
 and D. J. Fox, Gaussian, Inc., Wallingford CT, 2013.
 
 ******************************************
 Gaussian 09:  IA32W-G09RevD.01 24-Apr-2013
                08-Jul-2025 
 ******************************************
 %chk=C:\Gaussian\Pt_ZnO_NT_25.chk
 ----------------------------
 # freq pm6 geom=connectivity
 ----------------------------
 1/10=4,30=1,38=1,57=2/1,3;
 2/12=2,17=6,18=5,40=1/2;
 3/5=2,16=1,25=1,41=3900000,71=2,140=1/1,2,3;
 4/35=1/1;
 5/5=2,35=1,38=5,98=1/2;
 8/6=4,10=90,11=11/1;
 11/6=1,8=1,9=11,15=111,16=1/1,2,10;
 10/6=1/2;
 6/7=2,8=2,9=2,10=2,18=1,28=1/1;
 7/8=1,10=1,25=1/1,2,3,16;
 1/10=4,30=1/3;
 99//99;
 ------------
 Pt_ZnO_NT_25
 ------------
 Symbolic Z-matrix:
 Charge =  0 Multiplicity = 1
 O(Fragment=2)        -1   -12.66772  -4.8902    1.60831 
 O(Fragment=2)        -1   -10.83896  -4.06695   0. 
 Zn(Fragment=2)       -1   -12.55843  -3.25355   0. 
 O(Fragment=2)        -1   -12.66772  -4.8902   -1.60831 
 O(Fragment=2)        -1   -10.83896  -3.27883  -2.42557 
 Zn(Fragment=2)       -1   -12.55843  -2.62078  -1.94747 
 O(Fragment=2)        -1   -12.66772  -2.99951  -4.21062 
 O(Fragment=2)        -1   -10.83896  -1.21552  -3.92466 
 Zn(Fragment=2)       -1   -12.55843  -0.96416  -3.15108 
 O(Fragment=2)        -1   -12.66772   0.05968  -5.20462 
 O(Fragment=2)        -1   -10.83896   1.33488  -3.92466 
 Zn(Fragment=2)       -1   -12.55843   1.08353  -3.15108 
 O(Fragment=2)        -1   -12.66772   3.11888  -4.21062 
 O(Fragment=2)        -1   -10.83896   3.3982   -2.42557 
 Zn(Fragment=2)       -1   -12.55843   2.74015  -1.94747 
 O(Fragment=2)        -1   -12.66772   5.00957  -1.60831 
 O(Fragment=2)        -1   -10.83896   4.18632   0. 
 Zn(Fragment=2)       -1   -12.55843   3.37292   0. 
 O(Fragment=2)        -1   -12.66772   5.00957   1.60831 
 O(Fragment=2)        -1   -10.83896   3.3982    2.42557 
 Zn(Fragment=2)       -1   -12.55843   2.74015   1.94747 
 O(Fragment=2)        -1   -12.66772   3.11888   4.21062 
 O(Fragment=2)        -1   -10.83896   1.33488   3.92466 
 Zn(Fragment=2)       -1   -12.55843   1.08353   3.15108 
 O(Fragment=2)        -1   -12.66772   0.05968   5.20462 
 O(Fragment=2)        -1   -10.83896  -1.21552   3.92466 
 Zn(Fragment=2)       -1   -12.55843  -0.96416   3.15108 
 O(Fragment=2)        -1   -12.66772  -2.99951   4.21062 
 O(Fragment=2)        -1   -10.83896  -3.27883   2.42557 
 Zn(Fragment=2)       -1   -12.55843  -2.62078   1.94747 
 O(Fragment=2)        -1   -7.51774  -4.0823    1.34581 
 Zn(Fragment=2)       -1   -9.33309  -3.5444    1.17104 
 O(Fragment=2)        -1   -4.32125  -4.23098   0. 
 Zn(Fragment=2)       -1   -6.14254  -3.66856   0. 
 O(Fragment=2)        -1   -7.51774  -4.0823   -1.34581 
 Zn(Fragment=2)       -1   -9.33309  -3.5444   -1.17104 
 O(Fragment=2)        -1   -4.32131  -3.41165  -2.52207 
 Zn(Fragment=2)       -1   -6.14254  -2.95653  -2.1914 
 O(Fragment=2)        -1   -7.51774  -2.50021  -3.52339 
 Zn(Fragment=2)       -1   -9.33309  -2.16776  -3.06581 
 O(Fragment=2)        -1   -4.32131  -1.26625  -4.0808 
 Zn(Fragment=2)       -1   -6.14254  -1.09241  -3.54577 
 O(Fragment=2)        -1   -7.51774   0.05968  -4.35514 
 Zn(Fragment=2)       -1   -9.33309   0.05968  -3.78955 
 O(Fragment=2)        -1   -4.32131   1.38561  -4.0808 
 Zn(Fragment=2)       -1   -6.14254   1.21177  -3.54577 
 O(Fragment=2)        -1   -7.51774   2.61957  -3.52339 
 Zn(Fragment=2)       -1   -9.33309   2.28713  -3.06581 
 O(Fragment=2)        -1   -4.32131   3.53102  -2.52207 
 Zn(Fragment=2)       -1   -6.14254   3.07589  -2.1914 
 O(Fragment=2)        -1   -7.51774   4.20167  -1.34581 
 Zn(Fragment=2)       -1   -9.33309   3.66376  -1.17104 
 O(Fragment=2)        -1   -4.32131   4.35049   0. 
 Zn(Fragment=2)       -1   -6.14254   3.78792   0. 
 O(Fragment=2)        -1   -7.51774   4.20167   1.34581 
 Zn(Fragment=2)       -1   -9.33309   3.66376   1.17104 
 O(Fragment=2)        -1   -4.32131   3.53102   2.52207 
 Zn(Fragment=2)       -1   -6.14254   3.07589   2.1914 
 O(Fragment=2)        -1   -7.51774   2.61957   3.52339 
 Zn(Fragment=2)       -1   -9.33309   2.28713   3.06581 
 O(Fragment=2)        -1   -4.32131   1.38561   4.0808 
 Zn(Fragment=2)       -1   -6.14254   1.21177   3.54577 
 O(Fragment=2)        -1   -7.51774   0.05968   4.35514 
 Zn(Fragment=2)       -1   -9.33309   0.05968   3.78955 
 O(Fragment=2)        -1   -4.32131  -1.26625   4.0808 
 Zn(Fragment=2)       -1   -6.14254  -1.09241   3.54577 
 O(Fragment=2)        -1   -7.51774  -2.50021   3.52339 
 Zn(Fragment=2)       -1   -9.33309  -2.16776   3.06581 
 O(Fragment=2)        -1   -4.32131  -3.41165   2.52207 
 Zn(Fragment=2)       -1   -6.14254  -2.95653   2.1914 
 O(Fragment=2)        -1   -1.09568  -4.00127   1.31858 
 Zn(Fragment=2)       -1   -2.90724  -3.4554    1.14224 
 O(Fragment=2)        -1    2.14312  -4.18818   0. 
 O(Fragment=2)        -1   -1.09568  -4.00127  -1.31858 
 Zn(Fragment=2)       -1   -2.90724  -3.4554   -1.14224 
 O(Fragment=2)        -1    2.14448  -3.37612  -2.49613 
 Zn(Fragment=2)       -1    0.33429  -2.92714  -2.17028 
 O(Fragment=2)        -1   -1.09645  -2.45045  -3.45489 
 Zn(Fragment=2)       -1   -2.90713  -2.11257  -2.98985 
 O(Fragment=2)        -1    2.14442  -1.25267  -4.039 
 Zn(Fragment=2)       -1    0.33442  -1.08118  -3.5112 
 O(Fragment=2)        -1   -1.09646   0.05968  -4.27046 
 Zn(Fragment=2)       -1   -2.90713   0.05968  -3.69566 
 O(Fragment=2)        -1    2.14442   1.37203  -4.039 
 Zn(Fragment=2)       -1    0.33442   1.20054  -3.5112 
 O(Fragment=2)        -1   -1.09646   2.5698   -3.45488 
 Zn(Fragment=2)       -1   -2.90713   2.23194  -2.98985 
 O(Fragment=2)        -1    2.14442   3.49546  -2.49624 
 Zn(Fragment=2)       -1    0.33442   3.04649  -2.17004 
 O(Fragment=2)        -1   -1.09646   4.12114  -1.31965 
 Zn(Fragment=2)       -1   -2.90713   3.57447  -1.14202 
 O(Fragment=2)        -1    2.14442   4.30654   0. 
 Zn(Fragment=2)       -1    0.33442   3.75158   0. 
 O(Fragment=2)        -1   -1.09646   4.12114   1.31965 
 Zn(Fragment=2)       -1   -2.90713   3.57447   1.14202 
 O(Fragment=2)        -1    2.14442   3.49546   2.49624 
 Zn(Fragment=2)       -1    0.33442   3.04649   2.17004 
 O(Fragment=2)        -1   -1.09646   2.5698    3.45488 
 Zn(Fragment=2)       -1   -2.90713   2.23194   2.98985 
 O(Fragment=2)        -1    2.14442   1.37203   4.039 
 Zn(Fragment=2)       -1    0.33442   1.20054   3.5112 
 O(Fragment=2)        -1   -1.09646   0.05968   4.27046 
 Zn(Fragment=2)       -1   -2.90713   0.05968   3.69566 
 O(Fragment=2)        -1    2.14442  -1.25267   4.039 
 Zn(Fragment=2)       -1    0.33442  -1.08118   3.5112 
 O(Fragment=2)        -1   -1.09645  -2.45045   3.45489 
 Zn(Fragment=2)       -1   -2.90713  -2.11257   2.98985 
 O(Fragment=2)        -1    2.14448  -3.37612   2.49613 
 Zn(Fragment=2)       -1    0.33429  -2.92714   2.17028 
 O(Fragment=2)        -1    5.38747  -4.00344   1.32018 
 Zn(Fragment=2)       -1    3.5845   -3.44252   1.13783 
 O(Fragment=2)        -1    8.62842  -4.06683   0. 
 Zn(Fragment=2)       -1    6.833    -3.60131   0. 
 O(Fragment=2)        -1    5.38747  -4.00344  -1.32018 
 Zn(Fragment=2)       -1    3.5845   -3.44252  -1.13783 
 O(Fragment=2)        -1    8.62842  -3.27874  -2.4255 
 Zn(Fragment=2)       -1    6.833    -2.90212  -2.15188 
 O(Fragment=2)        -1    5.38746  -2.45147  -3.45631 
 Zn(Fragment=2)       -1    3.58449  -2.10497  -2.97939 
 O(Fragment=2)        -1    8.62842  -1.21548  -3.92455 
 Zn(Fragment=2)       -1    6.833    -1.07163  -3.48181 
 O(Fragment=2)        -1    5.38746   0.05968  -4.27223 
 Zn(Fragment=2)       -1    3.58449   0.05968  -3.68273 
 O(Fragment=2)        -1    8.62842   1.33485  -3.92455 
 Zn(Fragment=2)       -1    6.833     1.19099  -3.48181 
 O(Fragment=2)        -1    5.38746   2.57084  -3.45631 
 Zn(Fragment=2)       -1    3.58449   2.22434  -2.97939 
 O(Fragment=2)        -1    8.62842   3.3981   -2.4255 
 Zn(Fragment=2)       -1    6.833     3.02149  -2.15188 
 O(Fragment=2)        -1    5.38746   4.12282  -1.32019 
 Zn(Fragment=2)       -1    3.58449   3.56216  -1.13803 
 O(Fragment=2)        -1    8.62842   4.1862    0. 
 Zn(Fragment=2)       -1    6.833     3.72067   0. 
 O(Fragment=2)        -1    5.38746   4.12282   1.32019 
 Zn(Fragment=2)       -1    3.58449   3.56216   1.13803 
 O(Fragment=2)        -1    8.62842   3.3981    2.4255 
 Zn(Fragment=2)       -1    6.833     3.02149   2.15188 
 O(Fragment=2)        -1    5.38746   2.57084   3.45631 
 Zn(Fragment=2)       -1    3.58449   2.22434   2.97939 
 O(Fragment=2)        -1    8.62842   1.33485   3.92455 
 Zn(Fragment=2)       -1    6.833     1.19099   3.48181 
 O(Fragment=2)        -1    5.38746   0.05968   4.27223 
 Zn(Fragment=2)       -1    3.58449   0.05968   3.68273 
 O(Fragment=2)        -1    8.62842  -1.21548   3.92455 
 Zn(Fragment=2)       -1    6.833    -1.07163   3.48181 
 O(Fragment=2)        -1    5.38746  -2.45147   3.45631 
 Zn(Fragment=2)       -1    3.58449  -2.10497   2.97939 
 O(Fragment=2)        -1    8.62842  -3.27874   2.4255 
 Zn(Fragment=2)       -1    6.833    -2.90212   2.15188 
 O(Fragment=2)        -1    11.89304  -4.27105   1.40714 
 Zn(Fragment=2)       -1    10.12066  -3.48567   1.15195 
 Zn(Fragment=2)       -1    12.64317  -5.04594   0. 
 O(Fragment=2)        -1    11.89304  -4.27105  -1.40714 
 Zn(Fragment=2)       -1    10.12066  -3.48567  -1.15195 
 Zn(Fragment=2)       -1    12.64317  -4.07086  -3.00101 
 O(Fragment=2)        -1    11.89304  -2.61686  -3.68394 
 Zn(Fragment=2)       -1    10.12066  -2.13146  -3.01586 
 Zn(Fragment=2)       -1    12.64317  -1.51804  -4.85574 
 O(Fragment=2)        -1    11.89304   0.05968  -4.5536 
 Zn(Fragment=2)       -1    10.12066   0.05968  -3.7278 
 Zn(Fragment=2)       -1    12.64317   1.63741  -4.85574 
 O(Fragment=2)        -1    11.89304   2.73622  -3.68394 
 Zn(Fragment=2)       -1    10.12066   2.25083  -3.01586 
 Zn(Fragment=2)       -1    12.64317   4.19022  -3.00101 
 O(Fragment=2)        -1    11.89304   4.39041  -1.40714 
 Zn(Fragment=2)       -1    10.12066   3.60503  -1.15195 
 Zn(Fragment=2)       -1    12.64317   5.16531   0. 
 O(Fragment=2)        -1    11.89304   4.39041   1.40714 
 Zn(Fragment=2)       -1    10.12066   3.60503   1.15195 
 Zn(Fragment=2)       -1    12.64317   4.19022   3.00101 
 O(Fragment=2)        -1    11.89304   2.73622   3.68394 
 Zn(Fragment=2)       -1    10.12066   2.25083   3.01586 
 Zn(Fragment=2)       -1    12.64317   1.63741   4.85574 
 O(Fragment=2)        -1    11.89304   0.05968   4.5536 
 Zn(Fragment=2)       -1    10.12066   0.05968   3.7278 
 Zn(Fragment=2)       -1    12.64317  -1.51804   4.85574 
 O(Fragment=2)        -1    11.89304  -2.61686   3.68394 
 Zn(Fragment=2)       -1    10.12066  -2.13146   3.01586 
 Zn(Fragment=2)       -1    12.64317  -4.07086   3.00101 
 H(Fragment=1)        -1    13.76066  -5.09252   3.7433 
 H(Fragment=1)        -1    13.76066  -1.90829   6.05678 
 H(Fragment=1)        -1    13.76066   2.02765   6.05678 
 H(Fragment=1)        -1    13.76066   5.21189   3.7433 
 H(Fragment=1)        -1    13.76066   6.42816   0. 
 H(Fragment=1)        -1    13.76066   5.21189  -3.7433 
 H(Fragment=1)        -1    13.76066   2.02765  -6.05678 
 H(Fragment=1)        -1    13.76066  -1.90829  -6.05678 
 H(Fragment=1)        -1    13.76066  -5.09252  -3.7433 
 H(Fragment=1)        -1    13.76066  -6.3088    0. 
 H(Fragment=1)        -1   -11.70635   3.33059  -4.50201 
 H(Fragment=1)        -1   -13.2551   3.56819  -4.82905 
 H(Fragment=1)        -1   -11.70635   5.35211  -1.71962 
 H(Fragment=1)        -1   -13.2551   5.73657  -1.84453 
 H(Fragment=1)        -1   -11.70635   5.35211   1.71962 
 H(Fragment=1)        -1   -13.2551   5.73657   1.84453 
 H(Fragment=1)        -1   -11.70635   3.33059   4.50201 
 H(Fragment=1)        -1   -13.2551   3.56819   4.82905 
 H(Fragment=1)        -1   -11.70635   0.05968   5.56479 
 H(Fragment=1)        -1   -13.2551   0.05968   5.96903 
 H(Fragment=1)        -1   -11.70635  -3.21122   4.50201 
 H(Fragment=1)        -1   -13.2551  -3.44883   4.82905 
 H(Fragment=1)        -1   -13.2551  -5.6172    1.84453 
 H(Fragment=1)        -1   -11.70635  -5.23275   1.71962 
 H(Fragment=1)        -1   -11.70635  -5.23275  -1.71962 
 H(Fragment=1)        -1   -13.2551  -5.6172   -1.84453 
 H(Fragment=1)        -1   -11.70635  -3.21122  -4.50201 
 H(Fragment=1)        -1   -13.2551  -3.44883  -4.82905 
 H(Fragment=1)        -1   -11.70635   0.05968  -5.56479 
 H(Fragment=1)        -1   -13.2551   0.05968  -5.96903 
 Pt(Fragment=1)       0     0.26657  -4.0368    0. 
 

 GradGradGradGradGradGradGradGradGradGradGradGradGradGradGradGradGradGrad
 Berny optimization.
 Initialization pass.
 Trust Radius=3.00D-01 FncErr=1.00D-07 GrdErr=1.00D-07
 Number of steps in this run=      2 maximum allowed number of steps=      2.
 GradGradGradGradGradGradGradGradGradGradGradGradGradGradGradGradGradGrad

 Stoichiometry    H30O90PtZn89
 Framework group  CS[SG(H2O8PtZn9),X(H28O82Zn80)]
 Deg. of freedom   322
 Full point group                 CS      NOp   2
 Largest Abelian subgroup         CS      NOp   2
 Largest concise Abelian subgroup CS      NOp   2
                         Standard orientation:                         
 ---------------------------------------------------------------------
 Center     Atomic      Atomic             Coordinates (Angstroms)
 Number     Number       Type             X           Y           Z
 ---------------------------------------------------------------------
      1          8           0      -12.667721   -4.890201    1.608315
      2          8           0      -10.838962   -4.066950    0.000000
      3         30           0      -12.558429   -3.253554    0.000000
      4          8           0      -12.667721   -4.890201   -1.608315
      5          8           0      -10.838962   -3.278833   -2.425574
      6         30           0      -12.558429   -2.620782   -1.947472
      7          8           0      -12.667721   -2.999514   -4.210623
      8          8           0      -10.838962   -1.215517   -3.924661
      9         30           0      -12.558429   -0.964164   -3.151076
     10          8           0      -12.667721    0.059683   -5.204616
     11          8           0      -10.838962    1.334882   -3.924661
     12         30           0      -12.558429    1.083529   -3.151076
     13          8           0      -12.667721    3.118879   -4.210623
     14          8           0      -10.838962    3.398199   -2.425574
     15         30           0      -12.558429    2.740148   -1.947472
     16          8           0      -12.667721    5.009567   -1.608315
     17          8           0      -10.838962    4.186315    0.000000
     18         30           0      -12.558429    3.372920    0.000000
     19          8           0      -12.667721    5.009567    1.608315
     20          8           0      -10.838962    3.398199    2.425574
     21         30           0      -12.558429    2.740148    1.947472
     22          8           0      -12.667721    3.118879    4.210623
     23          8           0      -10.838962    1.334882    3.924661
     24         30           0      -12.558429    1.083529    3.151076
     25          8           0      -12.667721    0.059683    5.204616
     26          8           0      -10.838962   -1.215517    3.924661
     27         30           0      -12.558429   -0.964164    3.151076
     28          8           0      -12.667721   -2.999514    4.210623
     29          8           0      -10.838962   -3.278833    2.425574
     30         30           0      -12.558429   -2.620782    1.947472
     31          8           0       -7.517737   -4.082305    1.345813
     32         30           0       -9.333089   -3.544396    1.171036
     33          8           0       -4.321247   -4.230976    0.000000
     34         30           0       -6.142543   -3.668557    0.000000
     35          8           0       -7.517737   -4.082305   -1.345813
     36         30           0       -9.333089   -3.544396   -1.171036
     37          8           0       -4.321307   -3.411652   -2.522071
     38         30           0       -6.142543   -2.956527   -2.191405
     39          8           0       -7.517737   -2.500206   -3.523385
     40         30           0       -9.333089   -2.167760   -3.065812
     41          8           0       -4.321307   -1.266249   -4.080797
     42         30           0       -6.142543   -1.092407   -3.545767
     43          8           0       -7.517737    0.059683   -4.355143
     44         30           0       -9.333089    0.059683   -3.789552
     45          8           0       -4.321307    1.385614   -4.080797
     46         30           0       -6.142543    1.211772   -3.545767
     47          8           0       -7.517737    2.619572   -3.523385
     48         30           0       -9.333089    2.287126   -3.065812
     49          8           0       -4.321307    3.531016   -2.522071
     50         30           0       -6.142543    3.075892   -2.191405
     51          8           0       -7.517737    4.201670   -1.345813
     52         30           0       -9.333089    3.663761   -1.171036
     53          8           0       -4.321307    4.350487    0.000000
     54         30           0       -6.142543    3.787923    0.000000
     55          8           0       -7.517737    4.201670    1.345813
     56         30           0       -9.333089    3.663761    1.171036
     57          8           0       -4.321307    3.531016    2.522071
     58         30           0       -6.142543    3.075892    2.191405
     59          8           0       -7.517737    2.619572    3.523385
     60         30           0       -9.333089    2.287126    3.065812
     61          8           0       -4.321307    1.385614    4.080797
     62         30           0       -6.142543    1.211772    3.545767
     63          8           0       -7.517737    0.059683    4.355143
     64         30           0       -9.333089    0.059683    3.789552
     65          8           0       -4.321307   -1.266249    4.080797
     66         30           0       -6.142543   -1.092407    3.545767
     67          8           0       -7.517737   -2.500206    3.523385
     68         30           0       -9.333089   -2.167760    3.065812
     69          8           0       -4.321307   -3.411652    2.522071
     70         30           0       -6.142543   -2.956527    2.191405
     71          8           0       -1.095678   -4.001271    1.318577
     72         30           0       -2.907242   -3.455397    1.142243
     73          8           0        2.143124   -4.188182    0.000000
     74          8           0       -1.095678   -4.001271   -1.318577
     75         30           0       -2.907242   -3.455397   -1.142243
     76          8           0        2.144477   -3.376115   -2.496131
     77         30           0        0.334289   -2.927144   -2.170284
     78          8           0       -1.096450   -2.450454   -3.454893
     79         30           0       -2.907131   -2.112573   -2.989853
     80          8           0        2.144420   -1.252668   -4.039002
     81         30           0        0.334418   -1.081175   -3.511200
     82          8           0       -1.096457    0.059683   -4.270464
     83         30           0       -2.907131    0.059683   -3.695662
     84          8           0        2.144420    1.372034   -4.039002
     85         30           0        0.334418    1.200541   -3.511200
     86          8           0       -1.096457    2.569799   -3.454878
     87         30           0       -2.907131    2.231938   -2.989853
     88          8           0        2.144420    3.495463   -2.496240
     89         30           0        0.334418    3.046488   -2.170041
     90          8           0       -1.096457    4.121136   -1.319646
     91         30           0       -2.907131    3.574466   -1.142022
     92          8           0        2.144420    4.306540    0.000000
     93         30           0        0.334418    3.751577    0.000000
     94          8           0       -1.096457    4.121136    1.319646
     95         30           0       -2.907131    3.574466    1.142022
     96          8           0        2.144420    3.495463    2.496240
     97         30           0        0.334418    3.046488    2.170041
     98          8           0       -1.096457    2.569799    3.454878
     99         30           0       -2.907131    2.231938    2.989853
    100          8           0        2.144420    1.372034    4.039002
    101         30           0        0.334418    1.200541    3.511200
    102          8           0       -1.096457    0.059683    4.270464
    103         30           0       -2.907131    0.059683    3.695662
    104          8           0        2.144420   -1.252668    4.039002
    105         30           0        0.334418   -1.081175    3.511200
    106          8           0       -1.096450   -2.450454    3.454893
    107         30           0       -2.907131   -2.112573    2.989853
    108          8           0        2.144477   -3.376115    2.496131
    109         30           0        0.334289   -2.927144    2.170284
    110          8           0        5.387468   -4.003439    1.320178
    111         30           0        3.584503   -3.442521    1.137830
    112          8           0        8.628418   -4.066831    0.000000
    113         30           0        6.833004   -3.601309    0.000000
    114          8           0        5.387468   -4.003439   -1.320178
    115         30           0        3.584503   -3.442521   -1.137830
    116          8           0        8.628418   -3.278737   -2.425504
    117         30           0        6.833004   -2.902122   -2.151877
    118          8           0        5.387463   -2.451472   -3.456308
    119         30           0        3.584493   -2.104970   -2.979389
    120          8           0        8.628418   -1.215480   -3.924547
    121         30           0        6.833004   -1.071626   -3.481810
    122          8           0        5.387463    0.059683   -4.272231
    123         30           0        3.584493    0.059683   -3.682727
    124          8           0        8.628418    1.334845   -3.924547
    125         30           0        6.833004    1.190991   -3.481810
    126          8           0        5.387463    2.570837   -3.456308
    127         30           0        3.584493    2.224335   -2.979389
    128          8           0        8.628418    3.398102   -2.425504
    129         30           0        6.833004    3.021487   -2.151877
    130          8           0        5.387463    4.122816   -1.320192
    131         30           0        3.584493    3.562164   -1.138025
    132          8           0        8.628418    4.186196    0.000000
    133         30           0        6.833004    3.720675    0.000000
    134          8           0        5.387463    4.122816    1.320192
    135         30           0        3.584493    3.562164    1.138025
    136          8           0        8.628418    3.398102    2.425504
    137         30           0        6.833004    3.021487    2.151877
    138          8           0        5.387463    2.570837    3.456308
    139         30           0        3.584493    2.224335    2.979389
    140          8           0        8.628418    1.334845    3.924547
    141         30           0        6.833004    1.190991    3.481810
    142          8           0        5.387463    0.059683    4.272231
    143         30           0        3.584493    0.059683    3.682727
    144          8           0        8.628418   -1.215480    3.924547
    145         30           0        6.833004   -1.071626    3.481810
    146          8           0        5.387463   -2.451472    3.456308
    147         30           0        3.584493   -2.104970    2.979389
    148          8           0        8.628418   -3.278737    2.425504
    149         30           0        6.833004   -2.902122    2.151877
    150          8           0       11.893037   -4.271049    1.407140
    151         30           0       10.120659   -3.485668    1.151954
    152         30           0       12.643171   -5.045943    0.000000
    153          8           0       11.893037   -4.271049   -1.407140
    154         30           0       10.120659   -3.485668   -1.151954
    155         30           0       12.643171   -4.070855   -3.001012
    156          8           0       11.893037   -2.616856   -3.683940
    157         30           0       10.120659   -2.131464   -3.015855
    158         30           0       12.643171   -1.518042   -4.855739
    159          8           0       11.893037    0.059683   -4.553601
    160         30           0       10.120659    0.059683   -3.727802
    161         30           0       12.643171    1.637408   -4.855739
    162          8           0       11.893037    2.736222   -3.683940
    163         30           0       10.120659    2.250830   -3.015855
    164         30           0       12.643171    4.190221   -3.001012
    165          8           0       11.893037    4.390414   -1.407140
    166         30           0       10.120659    3.605033   -1.151954
    167         30           0       12.643171    5.165309    0.000000
    168          8           0       11.893037    4.390414    1.407140
    169         30           0       10.120659    3.605033    1.151954
    170         30           0       12.643171    4.190221    3.001012
    171          8           0       11.893037    2.736222    3.683940
    172         30           0       10.120659    2.250830    3.015855
    173         30           0       12.643171    1.637408    4.855739
    174          8           0       11.893037    0.059683    4.553601
    175         30           0       10.120659    0.059683    3.727802
    176         30           0       12.643171   -1.518042    4.855739
    177          8           0       11.893037   -2.616856    3.683940
    178         30           0       10.120659   -2.131464    3.015855
    179         30           0       12.643171   -4.070855    3.001012
    180          1           0       13.760657   -5.092524    3.743297
    181          1           0       13.760657   -1.908285    6.056782
    182          1           0       13.760657    2.027651    6.056782
    183          1           0       13.760657    5.211889    3.743297
    184          1           0       13.760657    6.428161    0.000000
    185          1           0       13.760657    5.211889   -3.743297
    186          1           0       13.760657    2.027651   -6.056782
    187          1           0       13.760657   -1.908285   -6.056782
    188          1           0       13.760657   -5.092524   -3.743297
    189          1           0       13.760657   -6.308795    0.000000
    190          1           0      -11.706347    3.330585   -4.502011
    191          1           0      -13.255102    3.568191   -4.829048
    192          1           0      -11.706347    5.352115   -1.719615
    193          1           0      -13.255102    5.736569   -1.844532
    194          1           0      -11.706347    5.352115    1.719615
    195          1           0      -13.255102    5.736569    1.844532
    196          1           0      -11.706347    3.330585    4.502011
    197          1           0      -13.255102    3.568191    4.829048
    198          1           0      -11.706347    0.059683    5.564792
    199          1           0      -13.255102    0.059683    5.969031
    200          1           0      -11.706347   -3.211220    4.502011
    201          1           0      -13.255102   -3.448826    4.829048
    202          1           0      -13.255102   -5.617203    1.844532
    203          1           0      -11.706347   -5.232749    1.719615
    204          1           0      -11.706347   -5.232749   -1.719615
    205          1           0      -13.255102   -5.617203   -1.844532
    206          1           0      -11.706347   -3.211220   -4.502011
    207          1           0      -13.255102   -3.448826   -4.829048
    208          1           0      -11.706347    0.059683   -5.564792
    209          1           0      -13.255102    0.059683   -5.969031
    210         78           0        0.266569   -4.036796    0.000000
 ---------------------------------------------------------------------
 Rotational constants (GHZ):      0.0043361      0.0009179      0.0009140
 Standard basis: VSTO-6G (5D, 7F)
 There are   398 symmetry adapted cartesian basis functions of A'  symmetry.
 There are   358 symmetry adapted cartesian basis functions of A"  symmetry.
 There are   397 symmetry adapted basis functions of A'  symmetry.
 There are   358 symmetry adapted basis functions of A"  symmetry.
   755 basis functions,  4536 primitive gaussians,   756 cartesian basis functions
   379 alpha electrons      379 beta electrons
       nuclear repulsion energy     17609.8003930897 Hartrees.
 Integral buffers will be    262144 words long.
 Regular integral format.
 Two-electron integral symmetry is turned off.
 Do NDO integrals.
 One-electron integrals computed using PRISM.
 NBasis=   755 RedAO= T EigKep=  7.07D-01  NBF=   397   358
 NBsUse=   755 1.00D-06 EigRej= -1.00D+00 NBFU=   397   358
 Nonelectrostatic core Hamiltonian diagonalized for initial guess.
 Initial guess orbital symmetries:
       Occupied  (A') (A') (A") (A') (A') (A") (A') (A') (A") (A')
                 (A") (A') (A') (A") (A') (A") (A') (A") (A') (A')
                 (A") (A') (A") (A') (A") (A') (A') (A") (A') (A')
                 (A") (A") (A') (A") (A') (A") (A') (A') (A") (A")
                 (A') (A') (A") (A") (A') (A") (A') (A") (A') (A')
                 (A') (A") (A") (A') (A") (A') (A") (A') (A") (A')
                 (A') (A") (A') (A") (A') (A") (A") (A') (A") (A')
                 (A") (A') (A') (A") (A') (A") (A') (A') (A") (A")
                 (A") (A') (A") (A') (A") (A') (A") (A') (A') (A')
                 (A") (A') (A") (A') (A') (A') (A") (A') (A') (A')
                 (A") (A') (A") (A') (A") (A') (A') (A") (A') (A')
                 (A") (A') (A") (A') (A') (A") (A') (A") (A') (A")
                 (A") (A') (A") (A') (A") (A') (A") (A') (A") (A')
                 (A") (A') (A") (A') (A") (A') (A") (A') (A') (A')
                 (A") (A') (A") (A') (A") (A') (A") (A') (A") (A')
                 (A") (A') (A") (A') (A") (A') (A") (A') (A') (A")
                 (A') (A') (A") (A") (A') (A") (A') (A') (A") (A')
                 (A") (A') (A") (A") (A') (A") (A') (A") (A') (A")
                 (A') (A") (A') (A") (A") (A') (A') (A") (A') (A')
                 (A') (A") (A") (A') (A") (A') (A') (A") (A') (A")
                 (A") (A') (A") (A') (A") (A') (A') (A") (A') (A')
                 (A") (A") (A') (A") (A") (A') (A") (A') (A') (A")
                 (A') (A") (A') (A') (A") (A") (A') (A') (A") (A')
                 (A") (A') (A") (A") (A') (A") (A') (A") (A') (A")
                 (A') (A') (A") (A') (A") (A') (A") (A') (A") (A')
                 (A') (A") (A') (A') (A") (A") (A') (A') (A") (A')
                 (A") (A") (A') (A') (A') (A') (A") (A") (A') (A')
                 (A") (A') (A') (A") (A") (A') (A") (A') (A') (A")
                 (A') (A") (A') (A") (A') (A") (A") (A') (A") (A')
                 (A") (A') (A") (A") (A') (A') (A") (A') (A') (A")
                 (A') (A") (A') (A") (A') (A") (A') (A") (A') (A')
                 (A") (A") (A') (A') (A") (A") (A') (A") (A') (A')
                 (A") (A") (A') (A') (A") (A') (A") (A") (A") (A')
                 (A") (A") (A") (A') (A") (A') (A") (A") (A') (A")
                 (A') (A') (A") (A') (A') (A") (A") (A') (A") (A')
                 (A') (A') (A") (A") (A') (A') (A') (A") (A") (A')
                 (A") (A') (A') (A") (A') (A") (A') (A") (A') (A")
                 (A") (A') (A') (A") (A") (A") (A') (A') (A')
       Virtual   (A') (A") (A') (A') (A") (A") (A') (A") (A') (A")
                 (A") (A') (A") (A') (A") (A') (A') (A') (A") (A')
                 (A") (A') (A") (A") (A') (A") (A') (A") (A') (A")
                 (A") (A") (A') (A") (A") (A') (A") (A') (A") (A')
                 (A") (A') (A") (A") (A') (A') (A") (A") (A') (A")
                 (A") (A') (A") (A') (A") (A") (A') (A") (A') (A')
                 (A") (A') (A") (A') (A") (A") (A") (A') (A") (A')
                 (A") (A') (A") (A') (A") (A') (A') (A") (A') (A")
                 (A") (A') (A') (A") (A") (A') (A") (A') (A") (A")
                 (A') (A') (A") (A') (A") (A') (A") (A") (A') (A")
                 (A') (A") (A') (A') (A") (A') (A") (A') (A") (A')
                 (A") (A') (A") (A') (A") (A') (A') (A") (A") (A")
                 (A") (A') (A") (A') (A") (A') (A") (A') (A") (A')
                 (A") (A') (A") (A') (A") (A') (A') (A") (A') (A')
                 (A") (A') (A') (A") (A') (A") (A") (A') (A') (A')
                 (A") (A") (A') (A') (A") (A') (A") (A') (A") (A")
                 (A') (A') (A') (A") (A") (A') (A") (A') (A") (A')
                 (A") (A') (A') (A") (A") (A') (A") (A') (A") (A')
                 (A') (A') (A") (A') (A") (A') (A") (A') (A") (A')
                 (A') (A") (A') (A") (A") (A') (A') (A") (A") (A")
                 (A') (A') (A") (A') (A') (A") (A') (A') (A") (A')
                 (A") (A') (A") (A') (A') (A") (A') (A") (A") (A')
                 (A') (A") (A") (A') (A") (A') (A") (A') (A') (A")
                 (A') (A") (A') (A') (A") (A') (A") (A') (A") (A')
                 (A") (A") (A') (A') (A") (A') (A") (A') (A") (A')
                 (A') (A") (A") (A') (A") (A') (A") (A") (A') (A')
                 (A") (A') (A") (A') (A") (A') (A") (A") (A') (A')
                 (A') (A") (A") (A') (A") (A') (A") (A') (A') (A")
                 (A') (A') (A") (A') (A') (A") (A') (A") (A') (A")
                 (A') (A') (A') (A') (A") (A') (A") (A') (A") (A')
                 (A") (A') (A") (A") (A") (A') (A") (A") (A') (A')
                 (A") (A') (A") (A') (A") (A") (A') (A') (A") (A")
                 (A') (A') (A") (A') (A') (A") (A") (A") (A') (A')
                 (A") (A') (A") (A') (A") (A') (A") (A') (A") (A')
                 (A') (A") (A') (A") (A') (A") (A') (A") (A') (A')
                 (A") (A') (A") (A') (A') (A') (A') (A") (A') (A")
                 (A') (A") (A') (A") (A') (A') (A") (A") (A') (A')
                 (A") (A') (A") (A') (A") (A')
 The electronic state of the initial guess is 1-A'.
 Overlap will be assumed to be unity.
 Keep J ints in memory in canonical form, NReq=5484911.
 Requested convergence on RMS density matrix=1.00D-08 within 128 cycles.
 Requested convergence on MAX density matrix=1.00D-06.
 Requested convergence on             energy=1.00D-06.
 No special actions if energy rises.
 EnCoef did     5 forward-backward iterations
 EnCoef did     5 forward-backward iterations
 EnCoef did     2 forward-backward iterations
 EnCoef did     4 forward-backward iterations
 EnCoef did     2 forward-backward iterations
 EnCoef did    11 forward-backward iterations
 EnCoef did     4 forward-backward iterations
 Fock symm off for IB=2 I1=    1 I=  398 J=  396 Cut=1.00D-07 Err=1.06D-02
 Fock matrix is not symmetric: symmetry in diagonalization turned off.
 SCF Done:  E(RPM6) =  -10.0691126120     A.U. after   89 cycles
            NFock= 88  Conv=0.95D-08     -V/T= 0.9844
 Range of M.O.s used for correlation:     1   755
 NBasis=   755 NAE=   379 NBE=   379 NFC=     0 NFV=     0
 NROrb=    755 NOA=   379 NOB=   379 NVA=   376 NVB=   376

 **** Warning!!: The smallest alpha delta epsilon is  0.41797918D-01

 Symmetrizing basis deriv contribution to polar:
 IMax=3 JMax=2 DiffMx= 0.00D+00
 G2DrvN: will do    14 centers at a time, making   16 passes.
 Calling FoFCou, ICntrl=  3107 FMM=F I1Cent=   0 AccDes= 0.00D+00.
 Calling FoFCou, ICntrl=  3107 FMM=F I1Cent=   0 AccDes= 0.00D+00.
 Calling FoFCou, ICntrl=  3107 FMM=F I1Cent=   0 AccDes= 0.00D+00.
 Calling FoFCou, ICntrl=  3107 FMM=F I1Cent=   0 AccDes= 0.00D+00.
 Calling FoFCou, ICntrl=  3107 FMM=F I1Cent=   0 AccDes= 0.00D+00.
 Calling FoFCou, ICntrl=  3107 FMM=F I1Cent=   0 AccDes= 0.00D+00.
 Calling FoFCou, ICntrl=  3107 FMM=F I1Cent=   0 AccDes= 0.00D+00.
 Calling FoFCou, ICntrl=  3107 FMM=F I1Cent=   0 AccDes= 0.00D+00.
 Calling FoFCou, ICntrl=  3107 FMM=F I1Cent=   0 AccDes= 0.00D+00.
 Calling FoFCou, ICntrl=  3107 FMM=F I1Cent=   0 AccDes= 0.00D+00.
 Calling FoFCou, ICntrl=  3107 FMM=F I1Cent=   0 AccDes= 0.00D+00.
 Calling FoFCou, ICntrl=  3107 FMM=F I1Cent=   0 AccDes= 0.00D+00.
 Calling FoFCou, ICntrl=  3107 FMM=F I1Cent=   0 AccDes= 0.00D+00.
 Calling FoFCou, ICntrl=  3107 FMM=F I1Cent=   0 AccDes= 0.00D+00.
 Calling FoFCou, ICntrl=  3107 FMM=F I1Cent=   0 AccDes= 0.00D+00.
 Calling FoFCou, ICntrl=  3107 FMM=F I1Cent=   0 AccDes= 0.00D+00.
 End of G2Drv F.D. properties file   721 does not exist.
 End of G2Drv F.D. properties file   722 does not exist.
 End of G2Drv F.D. properties file   788 does not exist.
          IDoAtm=00000000000000000000000000000000000000000000000000
          IDoAtm=00000000000000000000000000000000000000000000000000
          IDoAtm=00000000000000000000000000000000000000000000000000
          IDoAtm=00000000000000000000000000000000000000000000000000
          IDoAtm=0000000001
          Differentiating once with respect to electric field.
                with respect to dipole field.
          Differentiating once with respect to nuclear coordinates.
          Electric field/nuclear overlap derivatives assumed to be zero.
 Keep J ints in memory in canonical form, NReq=3821082.
          There are     6 degrees of freedom in the 1st order CPHF.  IDoFFX=4 NUNeed=     6.
 LinEq1:  Iter=  0 NonCon=     6 RMS=2.49D-01 Max=5.46D+01 NDo=     6
 AX will form     6 AO Fock derivatives at one time.
 LinEq1:  Iter=  1 NonCon=     6 RMS=1.11D-01 Max=1.29D+01 NDo=     6
 LinEq1:  Iter=  2 NonCon=     6 RMS=1.14D-01 Max=3.11D+01 NDo=     6
 LinEq1:  Iter=  3 NonCon=     6 RMS=1.02D-01 Max=2.09D+01 NDo=     6
 LinEq1:  Iter=  4 NonCon=     6 RMS=6.56D-02 Max=9.89D+00 NDo=     6
 LinEq1:  Iter=  5 NonCon=     6 RMS=3.46D-02 Max=3.11D+00 NDo=     6
 LinEq1:  Iter=  6 NonCon=     6 RMS=1.61D-02 Max=1.94D+00 NDo=     6
 LinEq1:  Iter=  7 NonCon=     6 RMS=7.25D-03 Max=9.34D-01 NDo=     6
 LinEq1:  Iter=  8 NonCon=     6 RMS=4.12D-03 Max=5.12D-01 NDo=     6
 LinEq1:  Iter=  9 NonCon=     6 RMS=2.12D-03 Max=2.03D-01 NDo=     6
 LinEq1:  Iter= 10 NonCon=     6 RMS=1.05D-03 Max=1.07D-01 NDo=     6
 LinEq1:  Iter= 11 NonCon=     6 RMS=4.70D-04 Max=4.75D-02 NDo=     6
 LinEq1:  Iter= 12 NonCon=     6 RMS=2.05D-04 Max=1.78D-02 NDo=     6
 LinEq1:  Iter= 13 NonCon=     6 RMS=1.04D-04 Max=8.90D-03 NDo=     6
 LinEq1:  Iter= 14 NonCon=     6 RMS=4.93D-05 Max=3.13D-03 NDo=     6
 LinEq1:  Iter= 15 NonCon=     6 RMS=1.99D-05 Max=1.50D-03 NDo=     6
 LinEq1:  Iter= 16 NonCon=     6 RMS=7.70D-06 Max=4.87D-04 NDo=     6
 LinEq1:  Iter= 17 NonCon=     6 RMS=3.63D-06 Max=3.94D-04 NDo=     6
 LinEq1:  Iter= 18 NonCon=     6 RMS=2.25D-06 Max=6.68D-04 NDo=     6
 LinEq1:  Iter= 19 NonCon=     5 RMS=1.81D-06 Max=3.58D-04 NDo=     6
 LinEq1:  Iter= 20 NonCon=     5 RMS=9.77D-07 Max=6.99D-05 NDo=     6
 LinEq1:  Iter= 21 NonCon=     5 RMS=5.03D-07 Max=3.05D-05 NDo=     6
 LinEq1:  Iter= 22 NonCon=     4 RMS=2.47D-07 Max=1.95D-05 NDo=     6
 LinEq1:  Iter= 23 NonCon=     3 RMS=1.06D-07 Max=5.69D-06 NDo=     6
 LinEq1:  Iter= 24 NonCon=     3 RMS=4.28D-08 Max=2.58D-06 NDo=     6
 LinEq1:  Iter= 25 NonCon=     3 RMS=1.49D-08 Max=9.23D-07 NDo=     6
 LinEq1:  Iter= 26 NonCon=     2 RMS=5.69D-09 Max=2.88D-07 NDo=     6
 LinEq1:  Iter= 27 NonCon=     2 RMS=2.42D-09 Max=3.33D-07 NDo=     6
 LinEq1:  Iter= 28 NonCon=     2 RMS=1.78D-09 Max=3.07D-07 NDo=     6
 LinEq1:  Iter= 29 NonCon=     1 RMS=9.65D-10 Max=1.37D-07 NDo=     6
 LinEq1:  Iter= 30 NonCon=     0 RMS=4.82D-10 Max=2.68D-08 NDo=     6
 Linear equations converged to 1.000D-08 1.000D-07 after    30 iterations.
 Isotropic polarizability for W=    0.000000     5018.57 Bohr**3.
 End of Minotr F.D. properties file   721 does not exist.
 End of Minotr F.D. properties file   722 does not exist.
 End of Minotr F.D. properties file   788 does not exist.

 **********************************************************************

            Population analysis using the SCF density.

 **********************************************************************

 Orbital symmetries:
       Occupied  (A') (A') (A') (A") (A') (A") (A') (A') (A") (A')
                 (A") (A') (A') (A") (A') (A') (A") (A") (A') (A')
                 (A') (A") (A") (A') (A') (A") (A") (A") (A') (A")
                 (A') (A') (A') (A") (A') (A") (A") (A') (A') (A')
                 (A") (A") (A') (A') (A") (A") (A') (A") (A') (A')
                 (A') (A") (A") (A') (A") (A') (A") (A') (A') (A")
                 (A") (A') (A") (A') (A") (A') (A") (A') (A') (A")
                 (A") (A') (A") (A") (A') (A") (A') (A') (A') (A")
                 (A') (A") (A") (A') (A") (A') (A") (A") (A') (A')
                 (A') (A") (A') (A") (A') (A') (A') (A") (A') (A")
                 (A') (A") (A') (A") (A') (A') (A') (A') (A") (A")
                 (A') (A') (A") (A') (A") (A') (A') (A") (A') (A')
                 (A') (A") (A") (A') (A") (A') (A') (A") (A") (A')
                 (A") (A') (A') (A") (A") (A") (A') (A') (A") (A")
                 (A') (A') (A") (A') (A") (A') (A") (A') (A") (A')
                 (A') (A') (A") (A") (A') (A") (A') (A') (A") (A')
                 (A') (A') (A') (A") (A") (A") (A') (A') (A") (A')
                 (A") (A") (A') (A") (A') (A') (A") (A") (A') (A")
                 (A') (A") (A") (A') (A") (A") (A') (A") (A') (A')
                 (A") (A') (A') (A") (A") (A") (A') (A") (A') (A')
                 (A") (A') (A") (A') (A") (A") (A') (A') (A") (A')
                 (A") (A') (A") (A') (A') (A") (A') (A") (A") (A')
                 (A') (A') (A') (A") (A") (A') (A') (A") (A") (A')
                 (A') (A") (A') (A') (A") (A") (A') (A") (A') (A')
                 (A") (A') (A") (A") (A') (A') (A') (A") (A") (A')
                 (A') (A") (A") (A') (A") (A') (A") (A') (A') (A')
                 (A") (A") (A") (A') (A') (A") (A') (A") (A") (A')
                 (A') (A") (A") (A') (A') (A") (A') (A") (A') (A')
                 (A") (A') (A") (A') (A") (A") (A') (A") (A') (A')
                 (A') (A") (A") (A') (A') (A") (A") (A') (A") (A')
                 (A') (A") (A') (A') (A") (A") (A") (A') (A") (A")
                 (A') (A") (A") (A') (A') (A') (A") (A') (A") (A')
                 (A") (A") (A') (A") (A') (A") (A') (A') (A") (A")
                 (A') (A') (A") (A') (A") (A') (A") (A') (A') (A")
                 (A") (A') (A") (A") (A") (A') (A') (A") (A') (A")
                 (A') (A") (A') (A') (A") (A') (A") (A') (A") (A")
                 (A') (A") (A') (A") (A") (A') (A") (A") (A') (A")
                 (A') (A") (A') (A') (A") (A") (A') (A') (A')
       Virtual   (A") (A') (A") (A') (A") (A') (A') (A") (A') (A")
                 (A") (A') (A') (A') (A") (A') (A') (A") (A') (A")
                 (A') (A") (A') (A') (A") (A') (A') (A") (A') (A")
                 (A') (A") (A") (A") (A') (A") (A') (A') (A") (A')
                 (A") (A') (A") (A') (A") (A') (A") (A') (A') (A")
                 (A') (A") (A') (A") (A") (A') (A") (A") (A') (A')
                 (A") (A') (A") (A') (A") (A") (A') (A') (A") (A')
                 (A') (A") (A") (A') (A") (A') (A') (A") (A') (A')
                 (A") (A") (A") (A') (A") (A') (A") (A') (A") (A')
                 (A") (A") (A') (A") (A') (A') (A') (A") (A') (A")
                 (A") (A") (A') (A") (A') (A") (A") (A') (A') (A")
                 (A") (A') (A") (A') (A') (A") (A") (A") (A") (A')
                 (A') (A") (A") (A") (A') (A') (A") (A') (A") (A')
                 (A') (A") (A") (A') (A') (A') (A') (A") (A") (A')
                 (A") (A") (A') (A') (A") (A") (A') (A") (A") (A')
                 (A") (A') (A') (A') (A") (A") (A') (A") (A') (A')
                 (A") (A') (A') (A") (A") (A') (A') (A") (A") (A')
                 (A') (A') (A") (A") (A') (A') (A') (A") (A") (A')
                 (A') (A") (A') (A") (A') (A') (A') (A") (A') (A")
                 (A') (A") (A') (A") (A') (A") (A') (A") (A') (A")
                 (A") (A') (A') (A") (A') (A") (A') (A') (A") (A')
                 (A") (A') (A") (A') (A") (A') (A") (A') (A") (A')
                 (A") (A') (A") (A") (A') (A') (A") (A") (A") (A")
                 (A') (A") (A') (A') (A') (A') (A") (A') (A") (A')
                 (A") (A") (A') (A") (A') (A") (A') (A") (A') (A')
                 (A") (A') (A") (A') (A") (A') (A") (A') (A') (A")
                 (A') (A") (A') (A") (A") (A') (A") (A') (A') (A")
                 (A") (A') (A') (A') (A") (A') (A") (A') (A") (A")
                 (A') (A") (A') (A') (A') (A") (A") (A') (A') (A")
                 (A') (A') (A") (A") (A') (A') (A") (A") (A") (A')
                 (A") (A') (A") (A') (A') (A') (A") (A') (A") (A")
                 (A') (A") (A') (A") (A') (A') (A") (A") (A") (A')
                 (A') (A") (A') (A") (A') (A") (A') (A') (A") (A')
                 (A") (A") (A') (A') (A') (A") (A") (A") (A') (A')
                 (A") (A') (A") (A') (A') (A") (A") (A') (A') (A")
                 (A') (A") (A') (A") (A') (A') (A") (A') (A") (A")
                 (A") (A') (A") (A') (A') (A') (A") (A") (A') (A')
                 (A") (A') (A') (A') (A") (A')
 The electronic state is 1-A'.
 Alpha  occ. eigenvalues --   -1.64786  -1.59836  -1.51887  -1.50426  -1.49396
 Alpha  occ. eigenvalues --   -1.46286  -1.45306  -1.41399  -1.39904  -1.38650
 Alpha  occ. eigenvalues --   -1.31691  -1.31478  -1.29869  -1.25296  -1.25230
 Alpha  occ. eigenvalues --   -1.23471  -1.23371  -1.21955  -1.20905  -1.19605
 Alpha  occ. eigenvalues --   -1.19377  -1.19377  -1.19205  -1.19194  -1.18038
 Alpha  occ. eigenvalues --   -1.18035  -1.17665  -1.16081  -1.15648  -1.15637
 Alpha  occ. eigenvalues --   -1.14611  -1.14397  -1.12377  -1.11294  -1.10716
 Alpha  occ. eigenvalues --   -1.10615  -1.07939  -1.07892  -1.06870  -1.05968
 Alpha  occ. eigenvalues --   -1.05793  -1.04920  -1.04382  -1.04208  -1.03636
 Alpha  occ. eigenvalues --   -1.03461  -1.03445  -1.03117  -1.02672  -1.02421
 Alpha  occ. eigenvalues --   -1.01716  -1.01176  -1.00828  -1.00636  -1.00416
 Alpha  occ. eigenvalues --   -1.00392  -0.99661  -0.99219  -0.98966  -0.98596
 Alpha  occ. eigenvalues --   -0.97925  -0.97772  -0.97639  -0.97048  -0.96996
 Alpha  occ. eigenvalues --   -0.96925  -0.96386  -0.96330  -0.95889  -0.95870
 Alpha  occ. eigenvalues --   -0.95685  -0.95682  -0.95292  -0.95224  -0.95179
 Alpha  occ. eigenvalues --   -0.95131  -0.94808  -0.94592  -0.94119  -0.93887
 Alpha  occ. eigenvalues --   -0.93870  -0.93808  -0.93717  -0.93642  -0.93597
 Alpha  occ. eigenvalues --   -0.93597  -0.93468  -0.93232  -0.92566  -0.92292
 Alpha  occ. eigenvalues --   -0.92262  -0.89217  -0.89190  -0.79206  -0.79206
 Alpha  occ. eigenvalues --   -0.77950  -0.77117  -0.77117  -0.76904  -0.76858
 Alpha  occ. eigenvalues --   -0.76817  -0.76739  -0.76270  -0.75904  -0.75883
 Alpha  occ. eigenvalues --   -0.75166  -0.74302  -0.74221  -0.73254  -0.73240
 Alpha  occ. eigenvalues --   -0.73239  -0.72884  -0.72791  -0.72188  -0.71744
 Alpha  occ. eigenvalues --   -0.71648  -0.71125  -0.70464  -0.70348  -0.69287
 Alpha  occ. eigenvalues --   -0.69138  -0.69128  -0.68353  -0.68082  -0.68082
 Alpha  occ. eigenvalues --   -0.68011  -0.66696  -0.66439  -0.66141  -0.65524
 Alpha  occ. eigenvalues --   -0.65517  -0.65139  -0.64890  -0.64707  -0.64124
 Alpha  occ. eigenvalues --   -0.64022  -0.63905  -0.63801  -0.63656  -0.62332
 Alpha  occ. eigenvalues --   -0.62095  -0.62039  -0.61403  -0.61064  -0.60854
 Alpha  occ. eigenvalues --   -0.60838  -0.60406  -0.59838  -0.59344  -0.58877
 Alpha  occ. eigenvalues --   -0.58605  -0.57645  -0.57643  -0.57538  -0.57537
 Alpha  occ. eigenvalues --   -0.57418  -0.57404  -0.57277  -0.57031  -0.56998
 Alpha  occ. eigenvalues --   -0.56884  -0.56687  -0.56664  -0.56470  -0.56445
 Alpha  occ. eigenvalues --   -0.56443  -0.56339  -0.56196  -0.55972  -0.55971
 Alpha  occ. eigenvalues --   -0.55080  -0.54744  -0.54618  -0.54314  -0.54312
 Alpha  occ. eigenvalues --   -0.54143  -0.53961  -0.53958  -0.53934  -0.53576
 Alpha  occ. eigenvalues --   -0.53549  -0.53260  -0.53194  -0.53194  -0.53015
 Alpha  occ. eigenvalues --   -0.52987  -0.52985  -0.52766  -0.52761  -0.52662
 Alpha  occ. eigenvalues --   -0.52629  -0.52527  -0.52278  -0.52274  -0.52003
 Alpha  occ. eigenvalues --   -0.51889  -0.51792  -0.51697  -0.51685  -0.51579
 Alpha  occ. eigenvalues --   -0.51532  -0.51453  -0.51406  -0.51041  -0.51002
 Alpha  occ. eigenvalues --   -0.50936  -0.50932  -0.50747  -0.50746  -0.50725
 Alpha  occ. eigenvalues --   -0.50668  -0.49367  -0.49218  -0.49179  -0.49082
 Alpha  occ. eigenvalues --   -0.49078  -0.49060  -0.48769  -0.48633  -0.48552
 Alpha  occ. eigenvalues --   -0.48500  -0.48378  -0.48222  -0.48221  -0.48072
 Alpha  occ. eigenvalues --   -0.48010  -0.47874  -0.47791  -0.47778  -0.47771
 Alpha  occ. eigenvalues --   -0.47746  -0.47732  -0.47716  -0.47630  -0.47624
 Alpha  occ. eigenvalues --   -0.47559  -0.47524  -0.47360  -0.47196  -0.47185
 Alpha  occ. eigenvalues --   -0.47179  -0.46919  -0.46852  -0.46735  -0.46696
 Alpha  occ. eigenvalues --   -0.46577  -0.46536  -0.46363  -0.46309  -0.46272
 Alpha  occ. eigenvalues --   -0.46239  -0.46230  -0.46106  -0.46074  -0.46014
 Alpha  occ. eigenvalues --   -0.45931  -0.45853  -0.45832  -0.45720  -0.45643
 Alpha  occ. eigenvalues --   -0.45619  -0.45560  -0.45421  -0.45383  -0.45359
 Alpha  occ. eigenvalues --   -0.45190  -0.45041  -0.45026  -0.44806  -0.44704
 Alpha  occ. eigenvalues --   -0.44644  -0.44576  -0.44433  -0.44355  -0.44169
 Alpha  occ. eigenvalues --   -0.44134  -0.44099  -0.44090  -0.43989  -0.43948
 Alpha  occ. eigenvalues --   -0.43947  -0.43812  -0.43791  -0.43532  -0.43480
 Alpha  occ. eigenvalues --   -0.43351  -0.43343  -0.43337  -0.43237  -0.42986
 Alpha  occ. eigenvalues --   -0.42853  -0.42785  -0.42691  -0.42675  -0.42635
 Alpha  occ. eigenvalues --   -0.42627  -0.42183  -0.42182  -0.42090  -0.42036
 Alpha  occ. eigenvalues --   -0.41983  -0.41932  -0.41779  -0.41714  -0.41713
 Alpha  occ. eigenvalues --   -0.41665  -0.41535  -0.41508  -0.41421  -0.41227
 Alpha  occ. eigenvalues --   -0.41154  -0.41132  -0.41048  -0.41023  -0.40788
 Alpha  occ. eigenvalues --   -0.40750  -0.40743  -0.40628  -0.40536  -0.40470
 Alpha  occ. eigenvalues --   -0.40372  -0.40222  -0.40195  -0.40083  -0.39989
 Alpha  occ. eigenvalues --   -0.39961  -0.39928  -0.39911  -0.39891  -0.39832
 Alpha  occ. eigenvalues --   -0.39747  -0.39621  -0.39609  -0.39578  -0.39546
 Alpha  occ. eigenvalues --   -0.39501  -0.39479  -0.39451  -0.39379  -0.39361
 Alpha  occ. eigenvalues --   -0.39321  -0.39288  -0.39275  -0.39241  -0.39219
 Alpha  occ. eigenvalues --   -0.39195  -0.39118  -0.39036  -0.39009  -0.38912
 Alpha  occ. eigenvalues --   -0.38821  -0.38747  -0.38661  -0.38611  -0.38607
 Alpha  occ. eigenvalues --   -0.38518  -0.38373  -0.38145  -0.38078  -0.37804
 Alpha  occ. eigenvalues --   -0.37783  -0.37739  -0.37730  -0.37722  -0.37545
 Alpha  occ. eigenvalues --   -0.37388  -0.37023  -0.36867  -0.35933  -0.35929
 Alpha  occ. eigenvalues --   -0.35918  -0.35782  -0.35389  -0.35295  -0.35275
 Alpha  occ. eigenvalues --   -0.35266  -0.35200  -0.34270  -0.29754
 Alpha virt. eigenvalues --   -0.25574  -0.21441  -0.21320  -0.20489  -0.19372
 Alpha virt. eigenvalues --   -0.19252  -0.18035  -0.17287  -0.17286  -0.17152
 Alpha virt. eigenvalues --   -0.16463  -0.16460  -0.15872  -0.15354  -0.14843
 Alpha virt. eigenvalues --   -0.14702  -0.14100  -0.14086  -0.13146  -0.12544
 Alpha virt. eigenvalues --   -0.12227  -0.11821  -0.11773  -0.11312  -0.10779
 Alpha virt. eigenvalues --   -0.10469  -0.10177  -0.10019  -0.09792  -0.09211
 Alpha virt. eigenvalues --   -0.08874  -0.08444  -0.08219  -0.07412  -0.07090
 Alpha virt. eigenvalues --   -0.06821  -0.06818  -0.05826  -0.05636  -0.05468
 Alpha virt. eigenvalues --   -0.05242  -0.05238  -0.05229  -0.04819  -0.04656
 Alpha virt. eigenvalues --   -0.04645  -0.04637  -0.04496  -0.04007  -0.03908
 Alpha virt. eigenvalues --   -0.03897  -0.03689  -0.03381  -0.03156  -0.02130
 Alpha virt. eigenvalues --   -0.02103  -0.01724  -0.01639  -0.01639  -0.01497
 Alpha virt. eigenvalues --   -0.01468  -0.01022  -0.01010  -0.00322  -0.00316
 Alpha virt. eigenvalues --   -0.00304  -0.00277  -0.00227  -0.00205   0.00146
 Alpha virt. eigenvalues --    0.00296   0.00371   0.00553   0.00840   0.00896
 Alpha virt. eigenvalues --    0.01101   0.01408   0.01453   0.01536   0.01842
 Alpha virt. eigenvalues --    0.01960   0.01974   0.02141   0.02249   0.02279
 Alpha virt. eigenvalues --    0.02442   0.02495   0.02511   0.02576   0.02585
 Alpha virt. eigenvalues --    0.02642   0.02741   0.02754   0.02755   0.02783
 Alpha virt. eigenvalues --    0.02791   0.02928   0.02957   0.03027   0.03041
 Alpha virt. eigenvalues --    0.03074   0.03334   0.03335   0.03798   0.03799
 Alpha virt. eigenvalues --    0.03826   0.04103   0.04259   0.04374   0.04620
 Alpha virt. eigenvalues --    0.04706   0.04777   0.04778   0.04784   0.04859
 Alpha virt. eigenvalues --    0.04923   0.04992   0.05049   0.05109   0.05117
 Alpha virt. eigenvalues --    0.05163   0.05449   0.05463   0.05507   0.05528
 Alpha virt. eigenvalues --    0.05554   0.05662   0.05672   0.05689   0.05776
 Alpha virt. eigenvalues --    0.05871   0.05919   0.05926   0.05972   0.06038
 Alpha virt. eigenvalues --    0.06139   0.06177   0.06206   0.06453   0.06516
 Alpha virt. eigenvalues --    0.06550   0.06762   0.06872   0.06991   0.07237
 Alpha virt. eigenvalues --    0.07321   0.07324   0.07494   0.07541   0.07549
 Alpha virt. eigenvalues --    0.07632   0.07635   0.07714   0.07801   0.07810
 Alpha virt. eigenvalues --    0.07898   0.07916   0.07932   0.08028   0.08107
 Alpha virt. eigenvalues --    0.08157   0.08160   0.08255   0.08298   0.08383
 Alpha virt. eigenvalues --    0.08386   0.08497   0.08520   0.08602   0.08606
 Alpha virt. eigenvalues --    0.08687   0.08786   0.08802   0.08938   0.08968
 Alpha virt. eigenvalues --    0.09112   0.09292   0.09438   0.09446   0.09462
 Alpha virt. eigenvalues --    0.09517   0.09705   0.09789   0.09951   0.10024
 Alpha virt. eigenvalues --    0.10233   0.10383   0.10449   0.10501   0.10666
 Alpha virt. eigenvalues --    0.11155   0.11184   0.11463   0.11587   0.11662
 Alpha virt. eigenvalues --    0.11938   0.11954   0.12042   0.12240   0.12352
 Alpha virt. eigenvalues --    0.12554   0.12592   0.12753   0.12824   0.12841
 Alpha virt. eigenvalues --    0.12877   0.12884   0.12947   0.12959   0.13000
 Alpha virt. eigenvalues --    0.13013   0.13030   0.13259   0.13360   0.13443
 Alpha virt. eigenvalues --    0.13448   0.13561   0.13576   0.13580   0.13622
 Alpha virt. eigenvalues --    0.13664   0.13835   0.14036   0.14115   0.14136
 Alpha virt. eigenvalues --    0.14164   0.14224   0.14424   0.14626   0.14754
 Alpha virt. eigenvalues --    0.14794   0.14891   0.14918   0.14930   0.14963
 Alpha virt. eigenvalues --    0.14998   0.15086   0.15197   0.15216   0.15272
 Alpha virt. eigenvalues --    0.15288   0.15292   0.15306   0.15500   0.15729
 Alpha virt. eigenvalues --    0.15782   0.15874   0.15895   0.15929   0.16061
 Alpha virt. eigenvalues --    0.16081   0.16233   0.16243   0.16249   0.16301
 Alpha virt. eigenvalues --    0.16476   0.16543   0.16564   0.16593   0.16679
 Alpha virt. eigenvalues --    0.16757   0.16786   0.16839   0.16881   0.16921
 Alpha virt. eigenvalues --    0.17021   0.17109   0.17322   0.17360   0.17437
 Alpha virt. eigenvalues --    0.17625   0.17706   0.17736   0.18051   0.18229
 Alpha virt. eigenvalues --    0.18362   0.18381   0.18508   0.18582   0.18748
 Alpha virt. eigenvalues --    0.18766   0.18888   0.18904   0.18980   0.19083
 Alpha virt. eigenvalues --    0.19088   0.19282   0.19312   0.19468   0.19483
 Alpha virt. eigenvalues --    0.19544   0.19645   0.19662   0.19699   0.19814
 Alpha virt. eigenvalues --    0.19863   0.19889   0.19980   0.20090   0.20154
 Alpha virt. eigenvalues --    0.20180   0.20202   0.20295   0.20551   0.20636
 Alpha virt. eigenvalues --    0.20670   0.20807   0.20858   0.20988   0.21418
 Alpha virt. eigenvalues --    0.21466   0.21557   0.21633   0.21665   0.21780
 Alpha virt. eigenvalues --    0.21829   0.21861   0.21966   0.22017   0.22027
 Alpha virt. eigenvalues --    0.22116   0.22129   0.22216   0.22296   0.22340
 Alpha virt. eigenvalues --    0.22419   0.22480   0.22734   0.22755   0.22805
 Alpha virt. eigenvalues --    0.22879   0.22915   0.22961   0.23122   0.23246
 Alpha virt. eigenvalues --    0.23251   0.23301   0.23404   0.23452   0.23613
 Alpha virt. eigenvalues --    0.23750   0.23761   0.23883   0.24008   0.24210
 Alpha virt. eigenvalues --    0.24417   0.24662   0.24687   0.24837   0.24978
 Alpha virt. eigenvalues --    0.25013   0.25039   0.25054   0.25858   0.25886
 Alpha virt. eigenvalues --    0.25912   0.26014   0.26132   0.26134   0.26369
 Alpha virt. eigenvalues --    0.26703   0.26704   0.27052   0.27216   0.27454
 Alpha virt. eigenvalues --    0.28111   0.28234   0.28768   0.28771   0.29011
 Alpha virt. eigenvalues --    0.29594   0.29715   0.30625   0.31038   0.31108
 Alpha virt. eigenvalues --    0.32027
          Condensed to atoms (all electrons):
 Mulliken charges:
               1
     1  O   -0.513584
     2  O   -0.652854
     3  Zn   0.365408
     4  O   -0.513584
     5  O   -0.652493
     6  Zn   0.365955
     7  O   -0.513610
     8  O   -0.651918
     9  Zn   0.366427
    10  O   -0.513622
    11  O   -0.651372
    12  Zn   0.366383
    13  O   -0.513615
    14  O   -0.651114
    15  Zn   0.366269
    16  O   -0.513609
    17  O   -0.651033
    18  Zn   0.366209
    19  O   -0.513609
    20  O   -0.651114
    21  Zn   0.366269
    22  O   -0.513615
    23  O   -0.651372
    24  Zn   0.366383
    25  O   -0.513622
    26  O   -0.651918
    27  Zn   0.366427
    28  O   -0.513610
    29  O   -0.652493
    30  Zn   0.365955
    31  O   -0.417873
    32  Zn   0.421696
    33  O   -0.426289
    34  Zn   0.359282
    35  O   -0.417873
    36  Zn   0.421696
    37  O   -0.401850
    38  Zn   0.371742
    39  O   -0.417349
    40  Zn   0.425564
    41  O   -0.383867
    42  Zn   0.365888
    43  O   -0.414653
    44  Zn   0.425785
    45  O   -0.379768
    46  Zn   0.364246
    47  O   -0.413787
    48  Zn   0.425675
    49  O   -0.380153
    50  Zn   0.363622
    51  O   -0.413431
    52  Zn   0.425505
    53  O   -0.380077
    54  Zn   0.363430
    55  O   -0.413431
    56  Zn   0.425505
    57  O   -0.380153
    58  Zn   0.363622
    59  O   -0.413787
    60  Zn   0.425675
    61  O   -0.379768
    62  Zn   0.364246
    63  O   -0.414653
    64  Zn   0.425785
    65  O   -0.383867
    66  Zn   0.365888
    67  O   -0.417349
    68  Zn   0.425564
    69  O   -0.401850
    70  Zn   0.371742
    71  O   -0.444258
    72  Zn   0.338477
    73  O   -0.618367
    74  O   -0.444258
    75  Zn   0.338477
    76  O   -0.454855
    77  Zn   0.243837
    78  O   -0.373798
    79  Zn   0.363942
    80  O   -0.384735
    81  Zn   0.383725
    82  O   -0.385678
    83  Zn   0.362218
    84  O   -0.398416
    85  Zn   0.372025
    86  O   -0.388609
    87  Zn   0.363712
    88  O   -0.401078
    89  Zn   0.373586
    90  O   -0.390255
    91  Zn   0.363767
    92  O   -0.401997
    93  Zn   0.373543
    94  O   -0.390255
    95  Zn   0.363767
    96  O   -0.401078
    97  Zn   0.373586
    98  O   -0.388609
    99  Zn   0.363712
   100  O   -0.398416
   101  Zn   0.372025
   102  O   -0.385678
   103  Zn   0.362218
   104  O   -0.384735
   105  Zn   0.383725
   106  O   -0.373798
   107  Zn   0.363942
   108  O   -0.454855
   109  Zn   0.243837
   110  O   -0.369645
   111  Zn   0.403421
   112  O   -0.430896
   113  Zn   0.372335
   114  O   -0.369645
   115  Zn   0.403421
   116  O   -0.427410
   117  Zn   0.367783
   118  O   -0.362450
   119  Zn   0.380277
   120  O   -0.423404
   121  Zn   0.364850
   122  O   -0.355645
   123  Zn   0.362843
   124  O   -0.418888
   125  Zn   0.363989
   126  O   -0.352546
   127  Zn   0.364567
   128  O   -0.414542
   129  Zn   0.362989
   130  O   -0.349867
   131  Zn   0.363816
   132  O   -0.412762
   133  Zn   0.362619
   134  O   -0.349867
   135  Zn   0.363816
   136  O   -0.414542
   137  Zn   0.362989
   138  O   -0.352546
   139  Zn   0.364567
   140  O   -0.418888
   141  Zn   0.363989
   142  O   -0.355645
   143  Zn   0.362843
   144  O   -0.423404
   145  Zn   0.364850
   146  O   -0.362450
   147  Zn   0.380277
   148  O   -0.427410
   149  Zn   0.367783
   150  O   -0.285862
   151  Zn   0.435952
   152  Zn  -0.252913
   153  O   -0.285862
   154  Zn   0.435952
   155  Zn  -0.252679
   156  O   -0.285419
   157  Zn   0.435934
   158  Zn  -0.252135
   159  O   -0.285292
   160  Zn   0.436271
   161  Zn  -0.251597
   162  O   -0.285365
   163  Zn   0.436674
   164  Zn  -0.251201
   165  O   -0.285457
   166  Zn   0.436917
   167  Zn  -0.251057
   168  O   -0.285457
   169  Zn   0.436917
   170  Zn  -0.251201
   171  O   -0.285365
   172  Zn   0.436674
   173  Zn  -0.251597
   174  O   -0.285292
   175  Zn   0.436271
   176  Zn  -0.252135
   177  O   -0.285419
   178  Zn   0.435934
   179  Zn  -0.252679
   180  H    0.305971
   181  H    0.306368
   182  H    0.306722
   183  H    0.306988
   184  H    0.307085
   185  H    0.306988
   186  H    0.306722
   187  H    0.306368
   188  H    0.305971
   189  H    0.305739
   190  H    0.394862
   191  H    0.308760
   192  H    0.394799
   193  H    0.308780
   194  H    0.394799
   195  H    0.308780
   196  H    0.394862
   197  H    0.308760
   198  H    0.395012
   199  H    0.308706
   200  H    0.395249
   201  H    0.308605
   202  H    0.308488
   203  H    0.395491
   204  H    0.395491
   205  H    0.308488
   206  H    0.395249
   207  H    0.308605
   208  H    0.395012
   209  H    0.308706
   210  Pt   0.997851
 Sum of Mulliken charges =   0.00000
 Mulliken charges with hydrogens summed into heavy atoms:
               1
     1  O    0.190394
     2  O   -0.652854
     3  Zn   0.365408
     4  O    0.190394
     5  O   -0.652493
     6  Zn   0.365955
     7  O    0.190244
     8  O   -0.651918
     9  Zn   0.366427
    10  O    0.190096
    11  O   -0.651372
    12  Zn   0.366383
    13  O    0.190007
    14  O   -0.651114
    15  Zn   0.366269
    16  O    0.189970
    17  O   -0.651033
    18  Zn   0.366209
    19  O    0.189970
    20  O   -0.651114
    21  Zn   0.366269
    22  O    0.190007
    23  O   -0.651372
    24  Zn   0.366383
    25  O    0.190096
    26  O   -0.651918
    27  Zn   0.366427
    28  O    0.190244
    29  O   -0.652493
    30  Zn   0.365955
    31  O   -0.417873
    32  Zn   0.421696
    33  O   -0.426289
    34  Zn   0.359282
    35  O   -0.417873
    36  Zn   0.421696
    37  O   -0.401850
    38  Zn   0.371742
    39  O   -0.417349
    40  Zn   0.425564
    41  O   -0.383867
    42  Zn   0.365888
    43  O   -0.414653
    44  Zn   0.425785
    45  O   -0.379768
    46  Zn   0.364246
    47  O   -0.413787
    48  Zn   0.425675
    49  O   -0.380153
    50  Zn   0.363622
    51  O   -0.413431
    52  Zn   0.425505
    53  O   -0.380077
    54  Zn   0.363430
    55  O   -0.413431
    56  Zn   0.425505
    57  O   -0.380153
    58  Zn   0.363622
    59  O   -0.413787
    60  Zn   0.425675
    61  O   -0.379768
    62  Zn   0.364246
    63  O   -0.414653
    64  Zn   0.425785
    65  O   -0.383867
    66  Zn   0.365888
    67  O   -0.417349
    68  Zn   0.425564
    69  O   -0.401850
    70  Zn   0.371742
    71  O   -0.444258
    72  Zn   0.338477
    73  O   -0.618367
    74  O   -0.444258
    75  Zn   0.338477
    76  O   -0.454855
    77  Zn   0.243837
    78  O   -0.373798
    79  Zn   0.363942
    80  O   -0.384735
    81  Zn   0.383725
    82  O   -0.385678
    83  Zn   0.362218
    84  O   -0.398416
    85  Zn   0.372025
    86  O   -0.388609
    87  Zn   0.363712
    88  O   -0.401078
    89  Zn   0.373586
    90  O   -0.390255
    91  Zn   0.363767
    92  O   -0.401997
    93  Zn   0.373543
    94  O   -0.390255
    95  Zn   0.363767
    96  O   -0.401078
    97  Zn   0.373586
    98  O   -0.388609
    99  Zn   0.363712
   100  O   -0.398416
   101  Zn   0.372025
   102  O   -0.385678
   103  Zn   0.362218
   104  O   -0.384735
   105  Zn   0.383725
   106  O   -0.373798
   107  Zn   0.363942
   108  O   -0.454855
   109  Zn   0.243837
   110  O   -0.369645
   111  Zn   0.403421
   112  O   -0.430896
   113  Zn   0.372335
   114  O   -0.369645
   115  Zn   0.403421
   116  O   -0.427410
   117  Zn   0.367783
   118  O   -0.362450
   119  Zn   0.380277
   120  O   -0.423404
   121  Zn   0.364850
   122  O   -0.355645
   123  Zn   0.362843
   124  O   -0.418888
   125  Zn   0.363989
   126  O   -0.352546
   127  Zn   0.364567
   128  O   -0.414542
   129  Zn   0.362989
   130  O   -0.349867
   131  Zn   0.363816
   132  O   -0.412762
   133  Zn   0.362619
   134  O   -0.349867
   135  Zn   0.363816
   136  O   -0.414542
   137  Zn   0.362989
   138  O   -0.352546
   139  Zn   0.364567
   140  O   -0.418888
   141  Zn   0.363989
   142  O   -0.355645
   143  Zn   0.362843
   144  O   -0.423404
   145  Zn   0.364850
   146  O   -0.362450
   147  Zn   0.380277
   148  O   -0.427410
   149  Zn   0.367783
   150  O   -0.285862
   151  Zn   0.435952
   152  Zn   0.052826
   153  O   -0.285862
   154  Zn   0.435952
   155  Zn   0.053292
   156  O   -0.285419
   157  Zn   0.435934
   158  Zn   0.054233
   159  O   -0.285292
   160  Zn   0.436271
   161  Zn   0.055125
   162  O   -0.285365
   163  Zn   0.436674
   164  Zn   0.055787
   165  O   -0.285457
   166  Zn   0.436917
   167  Zn   0.056028
   168  O   -0.285457
   169  Zn   0.436917
   170  Zn   0.055787
   171  O   -0.285365
   172  Zn   0.436674
   173  Zn   0.055125
   174  O   -0.285292
   175  Zn   0.436271
   176  Zn   0.054233
   177  O   -0.285419
   178  Zn   0.435934
   179  Zn   0.053292
   210  Pt   0.997851
         Mulliken charges condensed to fragments:
      1     11.100275
      2    -11.100275
 Charge=              0.0000 electrons
 Dipole moment (field-independent basis, Debye):
    X=           -112.3201    Y=              0.6353    Z=              0.0000  Tot=            112.3219
 N-N= 1.760980039309D+04 E-N=-3.410272907831D+04  KE=-6.455812324498D+02
 Symmetry A'   KE=-3.487509076053D+02
 Symmetry A"   KE=-2.968303248445D+02
  Exact polarizability:8271.858-302.6063338.695   0.002   0.0013445.161
 Approx polarizability:6329.760-331.2544250.343   0.000   0.0004426.497
 Calling FoFJK, ICntrl=    100127 FMM=F ISym2X=1 I1Cent= 0 IOpClX= 0 NMat=1 NMatS=1 NMatT=0.
  209 atoms frozen in the vibrational analysis.
 Diagonal vibrational polarizability:
       21.0186922       0.2720751       0.0723364
 Harmonic frequencies (cm**-1), IR intensities (KM/Mole), Raman scattering
 activities (A**4/AMU), depolarization ratios for plane and unpolarized
 incident light, reduced masses (AMU), force constants (mDyne/A),
 and normal coordinates:
                      1                      2                      3
                     A'                     A'                     A"
 Frequencies --     93.1281               237.2685               245.8903
 Red. masses --    194.9648               194.9648               194.9648
 Frc consts  --      0.9962                 6.4668                 6.9453
 IR Inten    --      5.1426                11.1579                 0.1625
  Atom  AN      X      Y      Z        X      Y      Z        X      Y      Z
   210  78     0.19   0.98   0.00     0.98  -0.19   0.00     0.00   0.00   1.00

 -------------------
 - Thermochemistry -
 -------------------
 Temperature   298.150 Kelvin.  Pressure   1.00000 Atm.
 Atom     1 has atomic number  8 and mass  15.99491
 Atom     2 has atomic number  8 and mass  15.99491
 Atom     3 has atomic number 30 and mass  63.92915
 Atom     4 has atomic number  8 and mass  15.99491
 Atom     5 has atomic number  8 and mass  15.99491
 Atom     6 has atomic number 30 and mass  63.92915
 Atom     7 has atomic number  8 and mass  15.99491
 Atom     8 has atomic number  8 and mass  15.99491
 Atom     9 has atomic number 30 and mass  63.92915
 Atom    10 has atomic number  8 and mass  15.99491
 Atom    11 has atomic number  8 and mass  15.99491
 Atom    12 has atomic number 30 and mass  63.92915
 Atom    13 has atomic number  8 and mass  15.99491
 Atom    14 has atomic number  8 and mass  15.99491
 Atom    15 has atomic number 30 and mass  63.92915
 Atom    16 has atomic number  8 and mass  15.99491
 Atom    17 has atomic number  8 and mass  15.99491
 Atom    18 has atomic number 30 and mass  63.92915
 Atom    19 has atomic number  8 and mass  15.99491
 Atom    20 has atomic number  8 and mass  15.99491
 Atom    21 has atomic number 30 and mass  63.92915
 Atom    22 has atomic number  8 and mass  15.99491
 Atom    23 has atomic number  8 and mass  15.99491
 Atom    24 has atomic number 30 and mass  63.92915
 Atom    25 has atomic number  8 and mass  15.99491
 Atom    26 has atomic number  8 and mass  15.99491
 Atom    27 has atomic number 30 and mass  63.92915
 Atom    28 has atomic number  8 and mass  15.99491
 Atom    29 has atomic number  8 and mass  15.99491
 Atom    30 has atomic number 30 and mass  63.92915
 Atom    31 has atomic number  8 and mass  15.99491
 Atom    32 has atomic number 30 and mass  63.92915
 Atom    33 has atomic number  8 and mass  15.99491
 Atom    34 has atomic number 30 and mass  63.92915
 Atom    35 has atomic number  8 and mass  15.99491
 Atom    36 has atomic number 30 and mass  63.92915
 Atom    37 has atomic number  8 and mass  15.99491
 Atom    38 has atomic number 30 and mass  63.92915
 Atom    39 has atomic number  8 and mass  15.99491
 Atom    40 has atomic number 30 and mass  63.92915
 Atom    41 has atomic number  8 and mass  15.99491
 Atom    42 has atomic number 30 and mass  63.92915
 Atom    43 has atomic number  8 and mass  15.99491
 Atom    44 has atomic number 30 and mass  63.92915
 Atom    45 has atomic number  8 and mass  15.99491
 Atom    46 has atomic number 30 and mass  63.92915
 Atom    47 has atomic number  8 and mass  15.99491
 Atom    48 has atomic number 30 and mass  63.92915
 Atom    49 has atomic number  8 and mass  15.99491
 Atom    50 has atomic number 30 and mass  63.92915
 Atom    51 has atomic number  8 and mass  15.99491
 Atom    52 has atomic number 30 and mass  63.92915
 Atom    53 has atomic number  8 and mass  15.99491
 Atom    54 has atomic number 30 and mass  63.92915
 Atom    55 has atomic number  8 and mass  15.99491
 Atom    56 has atomic number 30 and mass  63.92915
 Atom    57 has atomic number  8 and mass  15.99491
 Atom    58 has atomic number 30 and mass  63.92915
 Atom    59 has atomic number  8 and mass  15.99491
 Atom    60 has atomic number 30 and mass  63.92915
 Atom    61 has atomic number  8 and mass  15.99491
 Atom    62 has atomic number 30 and mass  63.92915
 Atom    63 has atomic number  8 and mass  15.99491
 Atom    64 has atomic number 30 and mass  63.92915
 Atom    65 has atomic number  8 and mass  15.99491
 Atom    66 has atomic number 30 and mass  63.92915
 Atom    67 has atomic number  8 and mass  15.99491
 Atom    68 has atomic number 30 and mass  63.92915
 Atom    69 has atomic number  8 and mass  15.99491
 Atom    70 has atomic number 30 and mass  63.92915
 Atom    71 has atomic number  8 and mass  15.99491
 Atom    72 has atomic number 30 and mass  63.92915
 Atom    73 has atomic number  8 and mass  15.99491
 Atom    74 has atomic number  8 and mass  15.99491
 Atom    75 has atomic number 30 and mass  63.92915
 Atom    76 has atomic number  8 and mass  15.99491
 Atom    77 has atomic number 30 and mass  63.92915
 Atom    78 has atomic number  8 and mass  15.99491
 Atom    79 has atomic number 30 and mass  63.92915
 Atom    80 has atomic number  8 and mass  15.99491
 Atom    81 has atomic number 30 and mass  63.92915
 Atom    82 has atomic number  8 and mass  15.99491
 Atom    83 has atomic number 30 and mass  63.92915
 Atom    84 has atomic number  8 and mass  15.99491
 Atom    85 has atomic number 30 and mass  63.92915
 Atom    86 has atomic number  8 and mass  15.99491
 Atom    87 has atomic number 30 and mass  63.92915
 Atom    88 has atomic number  8 and mass  15.99491
 Atom    89 has atomic number 30 and mass  63.92915
 Atom    90 has atomic number  8 and mass  15.99491
 Atom    91 has atomic number 30 and mass  63.92915
 Atom    92 has atomic number  8 and mass  15.99491
 Atom    93 has atomic number 30 and mass  63.92915
 Atom    94 has atomic number  8 and mass  15.99491
 Atom    95 has atomic number 30 and mass  63.92915
 Atom    96 has atomic number  8 and mass  15.99491
 Atom    97 has atomic number 30 and mass  63.92915
 Atom    98 has atomic number  8 and mass  15.99491
 Atom    99 has atomic number 30 and mass  63.92915
 Atom   100 has atomic number  8 and mass  15.99491
 Atom   101 has atomic number 30 and mass  63.92915
 Atom   102 has atomic number  8 and mass  15.99491
 Atom   103 has atomic number 30 and mass  63.92915
 Atom   104 has atomic number  8 and mass  15.99491
 Atom   105 has atomic number 30 and mass  63.92915
 Atom   106 has atomic number  8 and mass  15.99491
 Atom   107 has atomic number 30 and mass  63.92915
 Atom   108 has atomic number  8 and mass  15.99491
 Atom   109 has atomic number 30 and mass  63.92915
 Atom   110 has atomic number  8 and mass  15.99491
 Atom   111 has atomic number 30 and mass  63.92915
 Atom   112 has atomic number  8 and mass  15.99491
 Atom   113 has atomic number 30 and mass  63.92915
 Atom   114 has atomic number  8 and mass  15.99491
 Atom   115 has atomic number 30 and mass  63.92915
 Atom   116 has atomic number  8 and mass  15.99491
 Atom   117 has atomic number 30 and mass  63.92915
 Atom   118 has atomic number  8 and mass  15.99491
 Atom   119 has atomic number 30 and mass  63.92915
 Atom   120 has atomic number  8 and mass  15.99491
 Atom   121 has atomic number 30 and mass  63.92915
 Atom   122 has atomic number  8 and mass  15.99491
 Atom   123 has atomic number 30 and mass  63.92915
 Atom   124 has atomic number  8 and mass  15.99491
 Atom   125 has atomic number 30 and mass  63.92915
 Atom   126 has atomic number  8 and mass  15.99491
 Atom   127 has atomic number 30 and mass  63.92915
 Atom   128 has atomic number  8 and mass  15.99491
 Atom   129 has atomic number 30 and mass  63.92915
 Atom   130 has atomic number  8 and mass  15.99491
 Atom   131 has atomic number 30 and mass  63.92915
 Atom   132 has atomic number  8 and mass  15.99491
 Atom   133 has atomic number 30 and mass  63.92915
 Atom   134 has atomic number  8 and mass  15.99491
 Atom   135 has atomic number 30 and mass  63.92915
 Atom   136 has atomic number  8 and mass  15.99491
 Atom   137 has atomic number 30 and mass  63.92915
 Atom   138 has atomic number  8 and mass  15.99491
 Atom   139 has atomic number 30 and mass  63.92915
 Atom   140 has atomic number  8 and mass  15.99491
 Atom   141 has atomic number 30 and mass  63.92915
 Atom   142 has atomic number  8 and mass  15.99491
 Atom   143 has atomic number 30 and mass  63.92915
 Atom   144 has atomic number  8 and mass  15.99491
 Atom   145 has atomic number 30 and mass  63.92915
 Atom   146 has atomic number  8 and mass  15.99491
 Atom   147 has atomic number 30 and mass  63.92915
 Atom   148 has atomic number  8 and mass  15.99491
 Atom   149 has atomic number 30 and mass  63.92915
 Atom   150 has atomic number  8 and mass  15.99491
 Atom   151 has atomic number 30 and mass  63.92915
 Atom   152 has atomic number 30 and mass  63.92915
 Atom   153 has atomic number  8 and mass  15.99491
 Atom   154 has atomic number 30 and mass  63.92915
 Atom   155 has atomic number 30 and mass  63.92915
 Atom   156 has atomic number  8 and mass  15.99491
 Atom   157 has atomic number 30 and mass  63.92915
 Atom   158 has atomic number 30 and mass  63.92915
 Atom   159 has atomic number  8 and mass  15.99491
 Atom   160 has atomic number 30 and mass  63.92915
 Atom   161 has atomic number 30 and mass  63.92915
 Atom   162 has atomic number  8 and mass  15.99491
[...]
 0.,0.,0.,0.,0.,0.,0.,0.,0.,0.,0.,0.,0.,0.,0.,0.,0.,0.,0.,0.,0.,0.,0.,0
 .,0.,0.,0.,0.,0.,0.,0.,0.,0.,0.,0.,0.,0.,0.,0.,0.,0.,0.,0.,0.,0.,0.,0.
 ,0.,0.,0.,0.,0.,0.,0.,0.,0.,0.,0.,0.,0.,0.,0.,0.,0.,0.,0.,0.,0.,0.,0.,
 0.,0.,0.,0.,0.,0.,0.,0.,0.,0.,0.,0.,0.,0.,0.,0.,0.,0.,0.,0.,0.,0.,0.,0
 .,0.,0.,0.,0.,0.,0.,0.,0.,0.,0.,0.,0.,0.,0.,0.,0.,0.,0.,0.,0.,0.,0.,0.
 ,0.,0.,0.,0.,0.,0.,0.,0.,0.,0.,0.,0.,0.,0.,0.,0.,0.,0.,0.,0.,0.,0.,0.,
 0.,0.,0.,0.,0.,0.,0.,0.,0.,0.,0.,0.,0.,0.,0.,0.,0.,0.,0.,0.,0.,0.,0.,0
 .,0.,0.,0.,0.,0.,0.,0.,0.,0.,0.,0.,0.,0.,0.,0.,0.,0.,0.,0.,0.,0.,0.,0.
 ,0.,0.,0.,0.,0.,0.,0.,0.,0.,0.,0.,0.,0.,0.,0.,0.,0.,0.,0.,0.,0.,0.,0.,
 0.,0.,0.,0.,0.,0.,0.,0.,0.,0.,0.,0.,0.,0.,0.,0.,0.,0.,0.,0.,0.,0.,0.,0
 .,0.,0.,0.,0.,0.,0.,0.,0.,0.,0.,0.,0.,0.,0.,0.,0.,0.,0.,0.,0.,0.,0.,0.
 ,0.,0.,0.,0.,0.,0.,0.,0.,0.,0.,0.,0.,0.,0.,0.,0.,0.,0.,0.,0.,0.,0.,0.,
 0.,0.,0.,0.,0.,0.,0.,0.,0.,0.,0.,0.,0.,0.,0.,0.,0.,0.,0.,0.,0.,0.,0.,0
 .,0.,0.,0.,0.,0.,0.,0.,0.,0.,0.,0.,0.,0.,0.,0.,0.,0.,0.,0.,0.,0.,0.,0.
 ,0.,0.,0.,0.,0.,0.,0.,0.,0.,0.,0.,0.,0.,0.,0.,0.,0.,0.,0.,0.,0.,0.,0.,
 0.,0.,0.,0.,0.,0.,0.,0.,0.,0.,0.,0.,0.,0.,0.,0.,0.,0.,0.,0.,0.,0.,0.,0
 .,0.,0.,0.,0.,0.,0.,0.,0.,0.,0.,0.,0.,0.,0.,0.,0.,0.,0.,0.,0.,0.,0.,0.
 ,0.,0.,0.,0.,0.,0.,0.,0.,0.,0.,0.,0.,0.,0.,0.,0.,0.,0.,0.,0.,0.,0.,0.,
 0.,0.,0.,0.,0.,0.,0.,0.,0.,0.,0.,0.,0.,0.,0.,0.,0.,0.,0.,0.,0.,0.,0.,0
 .,0.,0.,0.,0.,0.,0.,0.,0.,0.,0.,0.,0.,0.,0.,0.,0.,0.,0.,0.,0.,0.,0.,0.
 ,0.,0.,0.,0.,0.,0.,0.,0.,0.,0.,0.,0.,0.,0.,0.,0.,0.,0.,0.,0.,0.,0.,0.,
 0.,0.,0.,0.,0.,0.,0.,0.,0.,0.,0.,0.,0.,0.,0.,0.,0.,0.,0.,0.,0.,0.,0.,0
 .,0.,0.,0.,0.,0.,0.,0.,0.,0.,0.,0.,0.,0.,0.,0.,0.,0.,0.,0.,0.,0.,0.,0.
 ,0.,0.,0.,0.,0.,0.,0.,0.,0.,0.,0.,0.,0.,0.,0.,0.,0.,0.,0.,0.,0.,0.,0.,
 0.,0.,0.,0.,0.,0.,0.,0.,0.,0.,0.,0.,0.,0.,0.,0.,0.,0.,0.,0.,0.,0.,0.,0
 .,0.,0.,0.,0.,0.,0.,0.,0.,0.,0.,0.,0.,0.,0.,0.,0.,0.,0.,0.,0.,0.,0.,0.
 ,0.,0.,0.,0.,0.,0.,0.,0.,0.,0.,0.,0.,0.,0.,0.,0.,0.,0.,0.,0.,0.,0.,0.,
 0.,0.,0.,0.,0.,0.,0.,0.,0.,0.,0.,0.,0.,0.,0.,0.,0.,0.,0.,0.,0.,0.,0.,0
 .,0.,0.,0.,0.,0.,0.,0.,0.,0.,0.,0.,0.,0.,0.,0.,0.,0.,0.,0.,0.,0.,0.,0.
 ,0.,0.,0.,0.,0.,0.,0.,0.,0.,0.,0.,0.,0.,0.,0.,0.,0.,0.,0.,0.,0.,0.,0.,
 0.,0.,0.,0.,0.,0.,0.,0.,0.,0.,0.,0.,0.,0.,0.,0.,0.,0.,0.,0.,0.,0.,0.,0
 .,0.,0.,0.,0.,0.,0.,0.,0.,0.,0.,0.,0.,0.,0.,0.,0.,0.,0.,0.,0.,0.,0.,0.
 ,0.,0.,0.,0.,0.,0.,0.,0.,0.,0.,0.,0.,0.,0.,0.,0.,0.,0.,0.,0.,0.,0.,0.,
 0.,0.,0.,0.,0.,0.,0.,0.,0.,0.,0.,0.,0.,0.,0.,0.,0.,0.,0.,0.,0.,0.,0.,0
 .,0.,0.,0.,0.,0.,0.,0.,0.,0.,0.,0.,0.,0.,0.,0.,0.,0.,0.,0.,0.,0.,0.,0.
 ,0.,0.,0.,0.,0.,0.,0.,0.,0.,0.,0.,0.,0.,0.,0.,0.,0.,0.,0.,0.,0.,0.,0.,
 0.,0.,0.,0.,0.,0.,0.,0.,0.,0.,0.,0.,0.,0.,0.,0.,0.,0.,0.,0.,0.,0.,0.,0
 .,0.,0.,0.,0.,0.,0.,0.,0.,0.,0.,0.,0.,0.,0.,0.,0.,0.,0.,0.,0.,0.,0.,0.
 ,0.,0.,0.,0.,0.,0.,0.,0.,0.,0.,0.,0.,0.,0.,0.,0.,0.,0.,0.,0.,0.,0.,0.,
 0.,0.,0.,0.,0.,0.,0.,0.,0.,0.,0.,0.,0.,0.,0.,0.,0.,0.,0.,0.,0.,0.,0.,0
 .,0.,0.,0.,0.,0.,0.,0.,0.,0.,0.,0.,0.,0.,0.,0.,0.,0.,0.,0.,0.,0.,0.,0.
 ,0.,0.,0.,0.,0.,0.,0.,0.,0.,0.,0.,0.,0.,0.,0.,0.,0.,0.,0.,0.,0.,0.,0.,
 0.,0.,0.,0.,0.,0.,0.,0.,0.,0.,0.,0.,0.,0.,0.,0.,0.,0.,0.,0.,0.,0.,0.,0
 .,0.,0.,0.,0.,0.,0.,0.,0.,0.,0.,0.,0.,0.,0.,0.,0.,0.,0.,0.,0.,0.,0.,0.
 ,0.,0.,0.,0.,0.,0.,0.,0.,0.,0.,0.,0.,0.,0.,0.,0.,0.,0.,0.,0.,0.,0.,0.,
 0.,0.,0.,0.,0.,0.,0.,0.,0.,0.,0.,0.,0.,0.,0.,0.,0.,0.,0.,0.,0.,0.,0.,0
 .,0.,0.,0.,0.,0.,0.,0.,0.,0.,0.,0.,0.,0.,0.,0.,0.,0.,0.,0.,0.,0.,0.,0.
 ,0.,0.,0.,0.,0.,0.,0.,0.,0.,0.,0.,0.,0.,0.,0.,0.,0.,0.,0.,0.,0.,0.,0.,
 0.,0.,0.,0.,0.,0.,0.,0.,0.,0.,0.,0.,0.,0.,0.,0.,0.,0.,0.,0.,0.,0.,0.,0
 .,0.,0.,0.,0.,0.,0.,0.,0.,0.,0.,0.,0.,0.,0.,0.,0.,0.,0.,0.,0.,0.,0.,0.
 ,0.,0.,0.,0.,0.,0.,0.,0.,0.,0.,0.,0.,0.,0.,0.,0.,0.,0.,0.,0.,0.,0.,0.,
 0.,0.,0.,0.,0.,0.,0.,0.,0.,0.,0.,0.,0.,0.,0.,0.,0.,0.,0.,0.,0.,0.,0.,0
 .,0.,0.,0.,0.,0.,0.,0.,0.,0.,0.,0.,0.,0.,0.,0.,0.,0.,0.,0.,0.,0.,0.,0.
 ,0.,0.,0.,0.,0.,0.,0.,0.,0.,0.,0.,0.,0.,0.,0.,0.,0.,0.,0.,0.,0.,0.,0.,
 0.,0.,0.,0.,0.,0.,0.,0.,0.,0.,0.,0.,0.,0.,0.,0.,0.,0.,0.,0.,0.,0.,0.,0
 .,0.,0.,0.,0.,0.,0.,0.,0.,0.,0.,0.,0.,0.,0.,0.,0.,0.,0.,0.,0.,0.,0.,0.
 ,0.,0.,0.,0.,0.,0.,0.,0.,0.,0.,0.,0.,0.,0.,0.,0.,0.,0.,0.,0.,0.,0.,0.,
 0.,0.,0.,0.,0.,0.,0.,0.,0.,0.,0.,0.,0.,0.,0.,0.,0.,0.,0.,0.,0.,0.,0.,0
 .,0.,0.,0.,0.,0.,0.,0.,0.,0.,0.,0.,0.,0.,0.,0.,0.,0.,0.,0.,0.,0.,0.,0.
 ,0.,0.,0.,0.,0.,0.,0.,0.,0.,0.,0.,0.,0.,0.,0.,0.,0.,0.,0.,0.,0.,0.,0.,
 0.,0.,0.,0.,0.,0.,0.,0.,0.,0.,0.,0.,0.,0.,0.,0.,0.,0.,0.,0.,0.,0.,0.,0
 .,0.,0.,0.,0.,0.,0.,0.,0.,0.,0.,0.,0.,0.,0.,0.,0.,0.,0.,0.,0.,0.,0.,0.
 ,0.,0.,0.,0.,0.,0.,0.,0.,0.,0.,0.,0.,0.,0.,0.,0.,0.,0.,0.,0.,0.,0.,0.,
 0.,0.,0.,0.,0.,0.,0.,0.,0.,0.,0.,0.,0.,0.,0.,0.,0.,0.,0.,0.,0.,0.,0.,0
 .,0.,0.,0.,0.,0.,0.,0.,0.,0.,0.,0.,0.,0.,0.,0.,0.,0.,0.,0.,0.,0.,0.,0.
 ,0.,0.,0.,0.,0.,0.,0.,0.,0.,0.,0.,0.,0.,0.,0.,0.,0.,0.,0.,0.,0.,0.,0.,
 0.,0.,0.,0.,0.,0.,0.,0.,0.,0.,0.,0.,0.,0.,0.,0.,0.,0.,0.,0.,0.,0.,0.,0
 .,0.,0.,0.,0.,0.,0.,0.,0.,0.,0.,0.,0.,0.,0.,0.,0.,0.,0.,0.,0.,0.,0.,0.
 ,0.,0.,0.,0.,0.,0.,0.,0.,0.,0.,0.,0.,0.,0.,0.,0.,0.,0.,0.,0.,0.,0.,0.,
 0.,0.,0.,0.,0.,0.,0.,0.,0.,0.,0.,0.,0.,0.,0.,0.,0.,0.,0.,0.,0.,0.,0.,0
 .,0.,0.,0.,0.,0.,0.,0.,0.,0.,0.,0.,0.,0.,0.,0.,0.,0.,0.,0.,0.,0.,0.,0.
 ,0.,0.,0.,0.,0.,0.,0.,0.,0.,0.,0.,0.,0.,0.,0.,0.,0.,0.,0.,0.,0.,0.,0.,
 0.,0.,0.,0.,0.,0.,0.,0.,0.,0.,0.,0.,0.,0.,0.,0.,0.,0.,0.,0.,0.,0.,0.,0
 .,0.,0.,0.,0.,0.,0.,0.,0.,0.,0.,0.,0.,0.,0.,0.,0.,0.,0.,0.,0.,0.,0.,0.
 ,0.,0.,0.,0.,0.,0.,0.,0.,0.,0.,0.,0.,0.,0.,0.,0.,0.,0.,0.,0.,0.,0.,0.,
 0.,0.,0.,0.,0.,0.,0.,0.,0.,0.,0.,0.,0.,0.,0.,0.,0.,0.,0.,0.,0.,0.,0.,0
 .,0.,0.,0.,0.,0.,0.,0.,0.,0.,0.,0.,0.,0.,0.,0.,0.,0.,0.,0.,0.,0.,0.,0.
 ,0.,0.,0.,0.,0.,0.,0.,0.,0.,0.,0.,0.,0.,0.,0.,0.,0.,0.,0.,0.,0.,0.,0.,
 0.,0.,0.,0.,0.,0.,0.,0.,0.,0.,0.,0.,0.,0.,0.,0.,0.,0.,0.,0.,0.,0.,0.,0
 .,0.,0.,0.,0.,0.,0.,0.,0.,0.,0.,0.,0.,0.,0.,0.,0.,0.,0.,0.,0.,0.,0.,0.
 ,0.,0.,0.,0.,0.,0.,0.,0.,0.,0.,0.,0.,0.,0.,0.,0.,0.,0.,0.,0.,0.,0.,0.,
 0.,0.,0.,0.,0.,0.,0.,0.,0.,0.,0.,0.,0.,0.,0.,0.,0.,0.,0.,0.,0.,0.,0.,0
 .,0.,0.,0.,0.,0.,0.,0.,0.,0.,0.,0.,0.,0.,0.,0.,0.,0.,0.,0.,0.,0.,0.,0.
 ,0.,0.,0.,0.,0.,0.,0.,0.,0.,0.,0.,0.,0.,0.,0.,0.,0.,0.,0.,0.,0.,0.,0.,
 0.,0.,0.,0.,0.,0.,0.,0.,0.,0.,0.,0.,0.,0.,0.,0.,0.,0.,0.,0.,0.,0.,0.,0
 .,0.,0.,0.,0.,0.,0.,0.,0.,0.,0.,0.,0.,0.,0.,0.,0.,0.,0.,0.,0.,0.,0.,0.
 ,0.,0.,0.,0.,0.,0.,0.,0.,0.,0.,0.,0.,0.,0.,0.,0.,0.,0.,0.,0.,0.,0.,0.,
 0.,0.,0.,0.,0.,0.,0.,0.,0.,0.,0.,0.,0.,0.,0.,0.,0.,0.,0.,0.,0.,0.,0.,0
 .,0.,0.,0.,0.,0.,0.,0.,0.,0.,0.,0.,0.,0.,0.,0.,0.,0.,0.,0.,0.,0.,0.,0.
 ,0.,0.,0.,0.,0.,0.,0.,0.,0.,0.,0.,0.,0.,0.,0.,0.,0.,0.,0.,0.,0.,0.,0.,
 0.,0.,0.,0.,0.,0.,0.,0.,0.,0.,0.,0.,0.,0.,0.,0.,0.,0.,0.,0.,0.,0.,0.,0
 .,0.,0.,0.,0.,0.,0.,0.,0.,0.,0.,0.,0.,0.,0.,0.,0.,0.,0.,0.,0.,0.,0.,0.
 ,0.,0.,0.,0.,0.,0.,0.,0.,0.,0.,0.,0.,0.,0.,0.,0.,0.,0.,0.,0.,0.,0.,0.,
 0.,0.,0.,0.,0.,0.,0.,0.,0.,0.,0.,0.,0.,0.,0.,0.,0.,0.,0.,0.,0.,0.,0.,0
 .,0.,0.,0.,0.,0.,0.,0.,0.,0.,0.,0.,0.,0.,0.,0.,0.,0.,0.,0.,0.,0.,0.,0.
 ,0.,0.,0.,0.,0.,0.,0.,0.,0.,0.,0.,0.,0.,0.,0.,0.,0.,0.,0.,0.,0.,0.,0.,
 0.,0.,0.,0.,0.,0.,0.,0.,0.,0.,0.,0.,0.,0.,0.,0.,0.,0.,0.,0.,0.,0.,0.,0
 .,0.,0.,0.,0.,0.,0.,0.,0.,0.,0.,0.,0.,0.,0.,0.,0.,0.,0.,0.,0.,0.,0.,0.
 ,0.,0.,0.,0.,0.,0.,0.,0.,0.,0.,0.,0.,0.,0.,0.,0.,0.,0.,0.,0.,0.,0.,0.,
 0.,0.,0.,0.,0.,0.,0.,0.,0.,0.,0.,0.,0.,0.,0.,0.,0.,0.,0.,0.,0.,0.,0.,0
 .,0.,0.,0.,0.,0.,0.,0.,0.,0.,0.,0.,0.,0.,0.,0.,0.,0.,0.,0.,0.,0.,0.,0.
 ,0.,0.,0.,0.,0.,0.,0.,0.,0.,0.,0.,0.,0.,0.,0.,0.,0.,0.,0.,0.,0.,0.,0.,
 0.,0.,0.,0.,0.,0.,0.,0.,0.,0.,0.,0.,0.,0.,0.,0.,0.,0.,0.,0.,0.,0.,0.,0
 .,0.,0.,0.,0.,0.,0.,0.,0.,0.,0.,0.,0.,0.,0.,0.,0.,0.,0.,0.,0.,0.,0.,0.
 ,0.,0.,0.,0.,0.,0.,0.,0.,0.,0.,0.,0.,0.,0.,0.,0.,0.,0.,0.,0.,0.,0.,0.,
 0.,0.,0.,0.,0.,0.,0.,0.,0.,0.,0.,0.,0.,0.,0.,0.,0.,0.,0.,0.,0.,0.,0.,0
 .,0.,0.,0.,0.,0.,0.,0.,0.,0.,0.,0.,0.,0.,0.,0.,0.,0.,0.,0.,0.,0.,0.,0.
 ,0.,0.,0.,0.,0.,0.,0.,0.,0.,0.,0.,0.,0.,0.,0.,0.,0.,0.,0.,0.,0.,0.,0.,
 0.,0.,0.,0.,0.,0.,0.,0.,0.,0.,0.,0.,0.,0.,0.,0.,0.,0.,0.,0.,0.,0.,0.,0
 .,0.,0.,0.,0.,0.,0.,0.,0.,0.,0.,0.,0.,0.,0.,0.,0.,0.,0.,0.,0.,0.,0.,0.
 ,0.,0.,0.,0.,0.,0.,0.,0.,0.,0.,0.,0.,0.,0.,0.,0.,0.,0.,0.,0.,0.,0.,0.,
 0.,0.,0.,0.,0.,0.,0.,0.,0.,0.,0.,0.,0.,0.,0.,0.,0.,0.,0.,0.,0.,0.,0.,0
 .,0.,0.,0.,0.,0.,0.,0.,0.,0.,0.,0.,0.,0.,0.,0.,0.,0.,0.,0.,0.,0.,0.,0.
 ,0.,0.,0.,0.,0.,0.,0.,0.,0.,0.,0.,0.,0.,0.,0.,0.,0.,0.,0.,0.,0.,0.,0.,
 0.,0.,0.,0.,0.,0.,0.,0.,0.,0.,0.,0.,0.,0.,0.,0.,0.,0.,0.,0.,0.,0.,0.,0
 .,0.,0.,0.,0.,0.,0.,0.,0.,0.,0.,0.,0.,0.,0.,0.,0.,0.,0.,0.,0.,0.,0.,0.
 ,0.,0.,0.,0.,0.,0.,0.,0.,0.,0.,0.,0.,0.,0.,0.,0.,0.,0.,0.,0.,0.,0.,0.,
 0.,0.,0.,0.,0.,0.,0.,0.,0.,0.,0.,0.,0.,0.,0.,0.,0.,0.,0.,0.,0.,0.,0.,0
 .,0.,0.,0.,0.,0.,0.,0.,0.,0.,0.,0.,0.,0.,0.,0.,0.,0.,0.,0.,0.,0.,0.,0.
 ,0.,0.,0.,0.,0.,0.,0.,0.,0.,0.,0.,0.,0.,0.,0.,0.,0.,0.,0.,0.,0.,0.,0.,
 0.,0.,0.,0.,0.,0.,0.,0.,0.,0.,0.,0.,0.,0.,0.,0.,0.,0.,0.,0.,0.,0.,0.,0
 .,0.,0.,0.,0.,0.,0.,0.,0.,0.,0.,0.,0.,0.,0.,0.,0.,0.,0.,0.,0.,0.,0.,0.
 ,0.,0.,0.,0.,0.,0.,0.,0.,0.,0.,0.,0.,0.,0.,0.,0.,0.,0.,0.,0.,0.,0.,0.,
 0.,0.,0.,0.,0.,0.,0.,0.,0.,0.,0.,0.,0.,0.,0.,0.,0.,0.,0.,0.,0.,0.,0.,0
 .,0.,0.,0.,0.,0.,0.,0.,0.,0.,0.,0.,0.,0.,0.,0.,0.,0.,0.,0.,0.,0.,0.,0.
 ,0.,0.,0.,0.,0.,0.,0.,0.,0.,0.,0.,0.,0.,0.,0.,0.,0.,0.,0.,0.,0.,0.,0.,
 0.,0.,0.,0.,0.,0.,0.,0.,0.,0.,0.,0.,0.,0.,0.,0.,0.,0.,0.,0.,0.,0.,0.,0
 .,0.,0.,0.,0.,0.,0.,0.,0.,0.,0.,0.,0.,0.,0.,0.,0.,0.,0.,0.,0.,0.,0.,0.
 ,0.,0.,0.,0.,0.,0.,0.,0.,0.,0.,0.,0.,0.,0.,0.,0.,0.,0.,0.,0.,0.,0.,0.,
 0.,0.,0.,0.,0.,0.,0.,0.,0.,0.,0.,0.,0.,0.,0.,0.,0.,0.,0.,0.,0.,0.,0.,0
 .,0.,0.,0.,0.,0.,0.,0.,0.,0.,0.,0.,0.,0.,0.,0.,0.,0.,0.,0.,0.,0.,0.,0.
 ,0.,0.,0.,0.,0.,0.,0.,0.,0.,0.,0.,0.,0.,0.,0.,0.,0.,0.,0.,0.,0.,0.,0.,
 0.,0.,0.,0.,0.,0.,0.,0.,0.,0.,0.,0.,0.,0.,0.,0.,0.,0.,0.,0.,0.,0.,0.,0
 .,0.,0.,0.,0.,0.,0.,0.,0.,0.,0.,0.,0.,0.,0.,0.,0.,0.,0.,0.,0.,0.,0.,0.
 ,0.,0.,0.,0.,0.,0.,0.,0.,0.,0.,0.,0.,0.,0.,0.,0.,0.,0.,0.,0.,0.,0.,0.,
 0.,0.,0.,0.,0.,0.,0.,0.,0.,0.,0.,0.,0.,0.,0.,0.,0.,0.,0.,0.,0.,0.,0.,0
 .,0.,0.,0.,0.,0.,0.,0.,0.,0.,0.,0.,0.,0.,0.,0.,0.,0.,0.,0.,0.,0.,0.,0.
 ,0.,0.,0.,0.,0.,0.,0.,0.,0.,0.,0.,0.,0.,0.,0.,0.,0.,0.,0.,0.,0.,0.,0.,
 0.,0.,0.,0.,0.,0.,0.,0.,0.,0.,0.,0.,0.,0.,0.,0.,0.,0.,0.,0.,0.,0.,0.,0
 .,0.,0.,0.,0.,0.,0.,0.,0.,0.,0.,0.,0.,0.,0.,0.,0.,0.,0.,0.,0.,0.,0.,0.
 ,0.,0.,0.,0.,0.,0.,0.,0.,0.,0.,0.,0.,0.,0.,0.,0.,0.,0.,0.,0.,0.,0.,0.,
 0.,0.,0.,0.,0.,0.,0.,0.,0.,0.,0.,0.,0.,0.,0.,0.,0.,0.,0.,0.,0.,0.,0.,0
 .,0.,0.,0.,0.,0.,0.,0.,0.,0.,0.,0.,0.,0.,0.,0.,0.,0.,0.,0.,0.,0.,0.,0.
 ,0.,0.,0.,0.,0.,0.,0.,0.,0.,0.,0.,0.,0.,0.,0.,0.,0.,0.,0.,0.,0.,0.,0.,
 0.,0.,0.,0.,0.,0.,0.,0.,0.,0.,0.,0.,0.,0.,0.,0.,0.,0.,0.,0.,0.,0.,0.,0
 .,0.,0.,0.,0.,0.,0.,0.,0.,0.,0.,0.,0.,0.,0.,0.,0.,0.,0.,0.,0.,0.,0.,0.
 ,0.,0.,0.,0.,0.,0.,0.,0.,0.,0.,0.,0.,0.,0.,0.,0.,0.,0.,0.,0.,0.,0.,0.,
 0.,0.,0.,0.,0.,0.,0.,0.,0.,0.,0.,0.,0.,0.,0.,0.,0.,0.,0.,0.,0.,0.,0.,0
 .,0.,0.,0.,0.,0.,0.,0.,0.,0.,0.,0.,0.,0.,0.,0.,0.,0.,0.,0.,0.,0.,0.,0.
 ,0.,0.,0.,0.,0.,0.,0.,0.,0.,0.,0.,0.,0.,0.,0.,0.,0.,0.,0.,0.,0.,0.,0.,
 0.,0.,0.,0.,0.,0.,0.,0.,0.,0.,0.,0.,0.,0.,0.,0.,0.,0.,0.,0.,0.,0.,0.,0
 .,0.,0.,0.,0.,0.,0.,0.,0.,0.,0.,0.,0.,0.,0.,0.,0.,0.,0.,0.,0.,0.,0.,0.
 ,0.,0.,0.,0.,0.,0.,0.,0.,0.,0.,0.,0.,0.,0.,0.,0.,0.,0.,0.,0.,0.,0.,0.,
 0.,0.,0.,0.,0.,0.,0.,0.,0.,0.,0.,0.,0.,0.,0.,0.,0.,0.,0.,0.,0.,0.,0.,0
 .,0.,0.,0.,0.,0.,0.,0.,0.,0.,0.,0.,0.,0.,0.,0.,0.,0.,0.,0.,0.,0.,0.,0.
 ,0.,0.,0.,0.,0.,0.,0.,0.,0.,0.,0.,0.,0.,0.,0.,0.,0.,0.,0.,0.,0.,0.,0.,
 0.,0.,0.,0.,0.,0.,0.,0.,0.,0.,0.,0.,0.,0.,0.,0.,0.,0.,0.,0.,0.,0.,0.,0
 .,0.,0.,0.,0.,0.,0.,0.,0.,0.,0.,0.,0.,0.,0.,0.,0.,0.,0.,0.,0.,0.,0.,0.
 ,0.,0.,0.,0.,0.,0.,0.,0.,0.,0.,0.,0.,0.,0.,0.,0.,0.,0.,0.,0.,0.,0.,0.,
 0.,0.,0.,0.,0.,0.,0.,0.,0.,0.,0.,0.,0.,0.,0.,0.,0.,0.,0.,0.,0.,0.,0.,0
 .,0.,0.,0.,0.,0.,0.,0.,0.,0.,0.,0.,0.,0.,0.,0.,0.,0.,0.,0.,0.,0.,0.,0.
 ,0.,0.,0.,0.,0.,0.,0.,0.,0.,0.,0.,0.,0.,0.,0.,0.,0.,0.,0.,0.,0.,0.,0.,
 0.,0.,0.,0.,0.,0.,0.,0.,0.,0.,0.,0.,0.,0.,0.,0.,0.,0.,0.,0.,0.,0.,0.,0
 .,0.,0.,0.,0.,0.,0.,0.,0.,0.,0.,0.,0.,0.,0.,0.,0.,0.,0.,0.,0.,0.,0.,0.
 ,0.,0.,0.,0.,0.,0.,0.,0.,0.,0.,0.,0.,0.,0.,0.,0.,0.,0.,0.,0.,0.,0.,0.,
 0.,0.,0.,0.,0.,0.,0.,0.,0.,0.,0.,0.,0.,0.,0.,0.,0.,0.,0.,0.,0.,0.,0.,0
 .,0.,0.,0.,0.,0.,0.,0.,0.,0.,0.,0.,0.,0.,0.,0.,0.,0.,0.,0.,0.,0.,0.,0.
 ,0.,0.,0.,0.,0.,0.,0.,0.,0.,0.,0.,0.,0.,0.,0.,0.,0.,0.,0.,0.,0.,0.,0.,
 0.,0.,0.,0.,0.,0.,0.,0.,0.,0.,0.,0.,0.,0.,0.,0.,0.,0.,0.,0.,0.,0.,0.,0
 .,0.,0.,0.,0.,0.,0.,0.,0.,0.,0.,0.,0.,0.,0.,0.,0.,0.,0.,0.,0.,0.,0.,0.
 ,0.,0.,0.,0.,0.,0.,0.,0.,0.,0.,0.,0.,0.,0.,0.,0.,0.,0.,0.,0.,0.,0.,0.,
 0.,0.,0.,0.,0.,0.,0.,0.,0.,0.,0.,0.,0.,0.,0.,0.,0.,0.,0.,0.,0.,0.,0.,0
 .,0.,0.,0.,0.,0.,0.,0.,0.,0.,0.,0.,0.,0.,0.,0.,0.,0.,0.,0.,0.,0.,0.,0.
 ,0.,0.,0.,0.,0.,0.,0.,0.,0.,0.,0.,0.,0.,0.,0.,0.,0.,0.,0.,0.,0.,0.,0.,
 0.,0.,0.,0.,0.,0.,0.,0.,0.,0.,0.,0.,0.,0.,0.,0.,0.,0.,0.,0.,0.,0.,0.,0
 .,0.,0.,0.,0.,0.,0.,0.,0.,0.,0.,0.,0.,0.,0.,0.,0.,0.,0.,0.,0.,0.,0.,0.
 ,0.,0.,0.,0.,0.,0.,0.,0.,0.,0.,0.,0.,0.,0.,0.,0.,0.,0.,0.,0.,0.,0.,0.,
 0.,0.,0.,0.,0.,0.,0.,0.,0.,0.,0.,0.,0.,0.,0.,0.,0.,0.,0.,0.,0.,0.,0.,0
 .,0.,0.,0.,0.,0.,0.,0.,0.,0.,0.,0.,0.,0.,0.,0.,0.,0.,0.,0.,0.,0.,0.,0.
 ,0.,0.,0.,0.,0.,0.,0.,0.,0.,0.,0.,0.,0.,0.,0.,0.,0.,0.,0.,0.,0.,0.,0.,
 0.,0.,0.,0.,0.,0.,0.,0.,0.,0.,0.,0.,0.,0.,0.,0.,0.,0.,0.,0.,0.,0.,0.,0
 .,0.,0.,0.,0.,0.,0.,0.,0.,0.,0.,0.,0.,0.,0.,0.,0.,0.,0.,0.,0.,0.,0.,0.
 ,0.,0.,0.,0.,0.,0.,0.,0.,0.,0.,0.,0.,0.,0.,0.,0.,0.,0.,0.,0.,0.,0.,0.,
 0.,0.,0.,0.,0.,0.,0.,0.,0.,0.,0.,0.,0.,0.,0.,0.,0.,0.,0.,0.,0.,0.,0.,0
 .,0.,0.,0.,0.,0.,0.,0.,0.,0.,0.,0.,0.,0.,0.,0.,0.,0.,0.,0.,0.,0.,0.,0.
 ,0.,0.,0.,0.,0.,0.,0.,0.,0.,0.,0.,0.,0.,0.,0.,0.,0.,0.,0.,0.,0.,0.,0.,
 0.,0.,0.,0.,0.,0.,0.,0.,0.,0.,0.,0.,0.,0.,0.,0.,0.,0.,0.,0.,0.,0.,0.,0
 .,0.,0.,0.,0.,0.,0.,0.,0.,0.,0.,0.,0.,0.,0.,0.,0.,0.,0.,0.,0.,0.,0.,0.
 ,0.,0.,0.,0.,0.,0.,0.,0.,0.,0.,0.,0.,0.,0.,0.,0.,0.,0.,0.,0.,0.,0.,0.,
 0.,0.,0.,0.,0.,0.,0.,0.,0.,0.,0.,0.,0.,0.,0.,0.,0.,0.,0.,0.,0.,0.,0.,0
 .,0.,0.,0.,0.,0.,0.,0.,0.,0.,0.,0.,0.,0.,0.,0.,0.,0.,0.,0.,0.,0.,0.,0.
 ,0.,0.,0.,0.40259243,0.,0.,0.,0.,0.,0.,0.,0.,0.,0.,0.,0.,0.,0.,0.,0.,0
 .,0.,0.,0.,0.,0.,0.,0.,0.,0.,0.,0.,0.,0.,0.,0.,0.,0.,0.,0.,0.,0.,0.,0.
 ,0.,0.,0.,0.,0.,0.,0.,0.,0.,0.,0.,0.,0.,0.,0.,0.,0.,0.,0.,0.,0.,0.,0.,
 0.,0.,0.,0.,0.,0.,0.,0.,0.,0.,0.,0.,0.,0.,0.,0.,0.,0.,0.,0.,0.,0.,0.,0
 .,0.,0.,0.,0.,0.,0.,0.,0.,0.,0.,0.,0.,0.,0.,0.,0.,0.,0.,0.,0.,0.,0.,0.
 ,0.,0.,0.,0.,0.,0.,0.,0.,0.,0.,0.,0.,0.,0.,0.,0.,0.,0.,0.,0.,0.,0.,0.,
 0.,0.,0.,0.,0.,0.,0.,0.,0.,0.,0.,0.,0.,0.,0.,0.,0.,0.,0.,0.,0.,0.,0.,0
 .,0.,0.,0.,0.,0.,0.,0.,0.,0.,0.,0.,0.,0.,0.,0.,0.,0.,0.,0.,0.,0.,0.,0.
 ,0.,0.,0.,0.,0.,0.,0.,0.,0.,0.,0.,0.,0.,0.,0.,0.,0.,0.,0.,0.,0.,0.,0.,
 0.,0.,0.,0.,0.,0.,0.,0.,0.,0.,0.,0.,0.,0.,0.,0.,0.,0.,0.,0.,0.,0.,0.,0
 .,0.,0.,0.,0.,0.,0.,0.,0.,0.,0.,0.,0.,0.,0.,0.,0.,0.,0.,0.,0.,0.,0.,0.
 ,0.,0.,0.,0.,0.,0.,0.,0.,0.,0.,0.,0.,0.,0.,0.,0.,0.,0.,0.,0.,0.,0.,0.,
 0.,0.,0.,0.,0.,0.,0.,0.,0.,0.,0.,0.,0.,0.,0.,0.,0.,0.,0.,0.,0.,0.,0.,0
 .,0.,0.,0.,0.,0.,0.,0.,0.,0.,0.,0.,0.,0.,0.,0.,0.,0.,0.,0.,0.,0.,0.,0.
 ,0.,0.,0.,0.,0.,0.,0.,0.,0.,0.,0.,0.,0.,0.,0.,0.,0.,0.,0.,0.,0.,0.,0.,
 0.,0.,0.,0.,0.,0.,0.,0.,0.,0.,0.,0.,0.,0.,0.,0.,0.,0.,0.,0.,0.,0.,0.,0
 .,0.,0.,0.,0.,0.,0.,0.,0.,0.,0.,0.,0.,0.,0.,0.,0.,0.,0.,0.,0.,0.,0.,0.
 ,0.,0.,0.,0.,0.,0.,0.,0.,0.,0.,0.,0.,0.,0.,0.,0.,0.,0.,0.,0.,0.,0.,0.,
 0.,0.,0.,0.,0.,0.,0.,0.,0.,0.,0.,0.,0.,0.,0.,0.,0.,0.,0.,0.,0.,0.,0.,0
 .,0.,0.,0.,0.,0.,0.,0.,0.,0.,0.,0.,0.,0.,0.,0.,0.,0.,0.,0.,0.,0.,0.,0.
 ,0.,0.,0.,0.,0.,0.,0.,0.,0.,0.,0.,0.,0.,0.,0.,0.,0.,0.,0.,0.,0.,0.,0.,
 0.,0.,0.,0.,0.,0.,0.,0.,0.,0.,0.,0.,0.,0.,0.,0.,0.,0.,0.,0.,0.,0.,0.,0
 .,0.,0.,0.,0.,0.,0.,0.,0.,0.,0.,0.,0.,0.,0.,0.,0.,0.,0.,0.,0.,0.,0.,0.
 ,0.,0.,0.,0.,0.,0.,0.,0.,0.,0.,0.,0.,0.,0.,0.,0.,0.,0.,0.,0.,0.,0.,0.,
 0.,0.,0.,0.,0.,0.,0.,0.,0.,0.,0.,0.,0.,0.,0.,0.,0.,0.,0.,0.,0.,0.,0.,0
 .,0.,0.,0.,0.,0.,0.,0.,0.,0.,0.,0.,0.,0.,0.,0.,0.,0.,0.,0.,0.,0.,0.,0.
 ,0.,0.,0.,0.,0.,0.,0.,0.,0.,0.,0.,0.,0.,0.,0.,0.,0.,0.,0.,0.,0.,0.,0.,
 0.,0.,0.,0.,-0.06575809,0.07676000,0.,0.,0.,0.,0.,0.,0.,0.,0.,0.,0.,0.
 ,0.,0.,0.,0.,0.,0.,0.,0.,0.,0.,0.,0.,0.,0.,0.,0.,0.,0.,0.,0.,0.,0.,0.,
 0.,0.,0.,0.,0.,0.,0.,0.,0.,0.,0.,0.,0.,0.,0.,0.,0.,0.,0.,0.,0.,0.,0.,0
 .,0.,0.,0.,0.,0.,0.,0.,0.,0.,0.,0.,0.,0.,0.,0.,0.,0.,0.,0.,0.,0.,0.,0.
 ,0.,0.,0.,0.,0.,0.,0.,0.,0.,0.,0.,0.,0.,0.,0.,0.,0.,0.,0.,0.,0.,0.,0.,
 0.,0.,0.,0.,0.,0.,0.,0.,0.,0.,0.,0.,0.,0.,0.,0.,0.,0.,0.,0.,0.,0.,0.,0
 .,0.,0.,0.,0.,0.,0.,0.,0.,0.,0.,0.,0.,0.,0.,0.,0.,0.,0.,0.,0.,0.,0.,0.
 ,0.,0.,0.,0.,0.,0.,0.,0.,0.,0.,0.,0.,0.,0.,0.,0.,0.,0.,0.,0.,0.,0.,0.,
 0.,0.,0.,0.,0.,0.,0.,0.,0.,0.,0.,0.,0.,0.,0.,0.,0.,0.,0.,0.,0.,0.,0.,0
 .,0.,0.,0.,0.,0.,0.,0.,0.,0.,0.,0.,0.,0.,0.,0.,0.,0.,0.,0.,0.,0.,0.,0.
 ,0.,0.,0.,0.,0.,0.,0.,0.,0.,0.,0.,0.,0.,0.,0.,0.,0.,0.,0.,0.,0.,0.,0.,
 0.,0.,0.,0.,0.,0.,0.,0.,0.,0.,0.,0.,0.,0.,0.,0.,0.,0.,0.,0.,0.,0.,0.,0
 .,0.,0.,0.,0.,0.,0.,0.,0.,0.,0.,0.,0.,0.,0.,0.,0.,0.,0.,0.,0.,0.,0.,0.
 ,0.,0.,0.,0.,0.,0.,0.,0.,0.,0.,0.,0.,0.,0.,0.,0.,0.,0.,0.,0.,0.,0.,0.,
 0.,0.,0.,0.,0.,0.,0.,0.,0.,0.,0.,0.,0.,0.,0.,0.,0.,0.,0.,0.,0.,0.,0.,0
 .,0.,0.,0.,0.,0.,0.,0.,0.,0.,0.,0.,0.,0.,0.,0.,0.,0.,0.,0.,0.,0.,0.,0.
 ,0.,0.,0.,0.,0.,0.,0.,0.,0.,0.,0.,0.,0.,0.,0.,0.,0.,0.,0.,0.,0.,0.,0.,
 0.,0.,0.,0.,0.,0.,0.,0.,0.,0.,0.,0.,0.,0.,0.,0.,0.,0.,0.,0.,0.,0.,0.,0
 .,0.,0.,0.,0.,0.,0.,0.,0.,0.,0.,0.,0.,0.,0.,0.,0.,0.,0.,0.,0.,0.,0.,0.
 ,0.,0.,0.,0.,0.,0.,0.,0.,0.,0.,0.,0.,0.,0.,0.,0.,0.,0.,0.,0.,0.,0.,0.,
 0.,0.,0.,0.,0.,0.,0.,0.,0.,0.,0.,0.,0.,0.,0.,0.,0.,0.,0.,0.,0.,0.,0.,0
 .,0.,0.,0.,0.,0.,0.,0.,0.,0.,0.,0.,0.,0.,0.,0.,0.,0.,0.,0.,0.,0.,0.,0.
 ,0.,0.,0.,0.,0.,0.,0.,0.,0.,0.,0.,0.,0.,0.,0.,0.,0.,0.,0.,0.,0.,0.,0.,
 0.,0.,0.,0.,0.,0.,0.,0.,0.,0.,0.,0.,0.,0.,0.,0.,0.,0.,0.,0.,0.,0.,0.,0
 .,0.,0.,0.,0.,0.,0.,0.,0.,0.,0.,0.,0.,0.,0.,0.,0.,0.,0.,0.,0.,0.,0.,0.
 ,0.,0.,0.,0.,0.,0.,0.,0.,0.,0.,0.,0.,0.,0.,0.,0.,0.,0.,0.,0.,0.,0.,0.,
 0.,0.,0.,0.,0.,0.,0.,0.,0.,0.,0.,0.,0.,0.,0.,0.,0.,0.,0.,0.,0.,0.,0.,0
 .,0.,0.,0.,0.,0.,0.,0.,0.,0.,0.,0.44609823||0.,0.,0.,0.,0.,0.,0.,0.,0.
 ,0.,0.,0.,0.,0.,0.,0.,0.,0.,0.,0.,0.,0.,0.,0.,0.,0.,0.,0.,0.,0.,0.,0.,
 0.,0.,0.,0.,0.,0.,0.,0.,0.,0.,0.,0.,0.,0.,0.,0.,0.,0.,0.,0.,0.,0.,0.,0
 .,0.,0.,0.,0.,0.,0.,0.,0.,0.,0.,0.,0.,0.,0.,0.,0.,0.,0.,0.,0.,0.,0.,0.
 ,0.,0.,0.,0.,0.,0.,0.,0.,0.,0.,0.,0.,0.,0.,0.,0.,0.,0.,0.,0.,0.,0.,0.,
 0.,0.,0.,0.,0.,0.,0.,0.,0.,0.,0.,0.,0.,0.,0.,0.,0.,0.,0.,0.,0.,0.,0.,0
 .,0.,0.,0.,0.,0.,0.,0.,0.,0.,0.,0.,0.,0.,0.,0.,0.,0.,0.,0.,0.,0.,0.,0.
 ,0.,0.,0.,0.,0.,0.,0.,0.,0.,0.,0.,0.,0.,0.,0.,0.,0.,0.,0.,0.,0.,0.,0.,
 0.,0.,0.,0.,0.,0.,0.,0.,0.,0.,0.,0.,0.,0.,0.,0.,0.,0.,0.,0.,0.,0.,0.,0
 .,0.,0.,0.,0.,0.,0.,0.,0.,0.,0.,0.,0.,0.,0.,0.,0.,0.,0.,0.,0.,0.,0.,0.
 ,0.,0.,0.,0.,0.,0.,0.,0.,0.,0.,0.,0.,0.,0.,0.,0.,0.,0.,0.,0.,0.,0.,0.,
 0.,0.,0.,0.,0.,0.,0.,0.,0.,0.,0.,0.,0.,0.,0.,0.,0.,0.,0.,0.,0.,0.,0.,0
 .,0.,0.,0.,0.,0.,0.,0.,0.,0.,0.,0.,0.,0.,0.,0.,0.,0.,0.,0.,0.,0.,0.,0.
 ,0.,0.,0.,0.,0.,0.,0.,0.,0.,0.,0.,0.,0.,0.,0.,0.,0.,0.,0.,0.,0.,0.,0.,
 0.,0.,0.,0.,0.,0.,0.,0.,0.,0.,0.,0.,0.,0.,0.,0.,0.,0.,0.,0.,0.,0.,0.,0
 .,0.,0.,0.,0.,0.,0.,0.,0.,0.,0.,0.,0.,0.,0.,0.,0.,0.,0.,0.,0.,0.,0.,0.
 ,0.,0.,0.,0.,0.,0.,0.,0.,0.,0.,0.,0.,0.,0.,0.,0.,0.,0.,0.,0.,0.,0.,0.,
 0.,0.,0.,0.,0.,0.,0.,0.,0.,0.,0.,0.,0.,0.,0.,0.,0.,0.,0.,0.,0.,0.,0.,0
 .,0.,0.,0.,0.,0.,0.,0.,0.,0.,0.,0.,0.,0.,0.,0.,0.,0.,0.,0.,0.,0.,0.,0.
 ,0.,0.,0.,0.,0.,0.,0.,0.,0.,0.,0.,0.,0.,0.,0.,0.,0.,0.,0.,0.,0.,0.,0.,
 0.,0.,0.,0.,0.,0.,0.,0.,0.,0.,0.,0.,0.,0.,0.,0.,0.,0.,0.,0.,0.,0.,0.,0
 .,0.,0.,0.,0.,0.,0.,0.,0.,0.,0.,0.,0.,0.,0.,0.,0.,0.,0.,0.,0.,0.,0.,0.
 ,0.,0.,0.,0.,0.,0.,0.,0.,0.,0.,0.,0.,0.,0.,0.,0.,0.,0.,0.,0.,0.,0.,0.,
 0.,0.,0.,0.,0.,0.,0.,0.,0.,0.,0.,0.,0.,0.,0.,0.,0.,0.,0.,0.,0.,0.,0.,0
 .,0.,0.,0.,0.,0.,0.,0.,0.,0.,0.,0.,0.,0.,0.,0.,0.,0.,0.,0.,0.,0.,0.,0.
 ,0.,0.,0.,0.,0.,0.,0.,0.,0.,0.,0.,0.,0.,0.,0.,0.,0.,0.,0.,0.,0.,0.,0.,
 0.,0.,0.,0.,0.,0.,0.,0.,0.,0.,0.,0.,0.,0.,0.,0.,0.,0.,0.,0.,0.,0.,0.,0
 .,0.,0.,0.,0.,0.,0.,0.,0.,0.,0.,0.,-0.00043657,-0.00090750,0.|||@


 ONE THORN OF EXPERIENCE IS WORTH A WHOLE WILDERNESS OF
 WARNING....  LOWELL - AMONG MY BOOKS
 Job cpu time:       0 days  0 hours  4 minutes 38.0 seconds.
 File lengths (MBytes):  RWF=   2537 Int=      0 D2E=      0 Chk=     41 Scr=      1
 Normal termination of Gaussian 09 at Tue Jul 08 01:08:52 2025.
