 Entering Link 1 = C:\Gaussian\G09W\l1.exe PID=     30216.
  
 Copyright (c) 1988,1990,1992,1993,1995,1998,2003,2009,2013,
            Gaussian, Inc.  All Rights Reserved.
  
 This is part of the Gaussian(R) 09 program.  It is based on
 the Gaussian(R) 03 system (copyright 2003, Gaussian, Inc.),
 the Gaussian(R) 98 system (copyright 1998, Gaussian, Inc.),
 the Gaussian(R) 94 system (copyright 1995, Gaussian, Inc.),
 the Gaussian 92(TM) system (copyright 1992, Gaussian, Inc.),
 the Gaussian 90(TM) system (copyright 1990, Gaussian, Inc.),
 the Gaussian 88(TM) system (copyright 1988, Gaussian, Inc.),
 the Gaussian 86(TM) system (copyright 1986, Carnegie Mellon
 University), and the Gaussian 82(TM) system (copyright 1983,
 Carnegie Mellon University). Gaussian is a federally registered
 trademark of Gaussian, Inc.
  
 This software contains proprietary and confidential information,
 including trade secrets, belonging to Gaussian, Inc.
  
 This software is provided under written license and may be
 used, copied, transmitted, or stored only in accord with that
 written license.
  
 The following legend is applicable only to US Government
 contracts under FAR:
  
                    RESTRICTED RIGHTS LEGEND
  
 Use, reproduction and disclosure by the US Government is
 subject to restrictions as set forth in subparagraphs (a)
 and (c) of the Commercial Computer Software - Restricted
 Rights clause in FAR 52.227-19.
  
 Gaussian, Inc.
 340 Quinnipiac St., Bldg. 40, Wallingford CT 06492
  
  
 ---------------------------------------------------------------
 Warning -- This program may not be used in any manner that
 competes with the business of Gaussian, Inc. or will provide
 assistance to any competitor of Gaussian, Inc.  The licensee
 of this program is prohibited from giving any competitor of
 Gaussian, Inc. access to this program.  By using this program,
 the user acknowledges that Gaussian, Inc. is engaged in the
 business of creating and licensing software in the field of
 computational chemistry and represents and warrants to the
 licensee that it is not a competitor of Gaussian, Inc. and that
 it will not use this program in any manner prohibited above.
 ---------------------------------------------------------------
  

 Cite this work as:
 Gaussian 09, Revision D.01,
 M. J. Frisch, G. W. Trucks, H. B. Schlegel, G. E. Scuseria, 
 M. A. Robb, J. R. Cheeseman, G. Scalmani, V. Barone, B. Mennucci, 
 G. A. Petersson, H. Nakatsuji, M. Caricato, X. Li, H. P. Hratchian, 
 A. F. Izmaylov, J. Bloino, G. Zheng, J. L. Sonnenberg, M. Hada, 
 M. Ehara, K. Toyota, R. Fukuda, J. Hasegawa, M. Ishida, T. Nakajima, 
 Y. Honda, O. Kitao, H. Nakai, T. Vreven, J. A. Montgomery, Jr., 
 J. E. Peralta, F. Ogliaro, M. Bearpark, J. J. Heyd, E. Brothers, 
 K. N. Kudin, V. N. Staroverov, T. Keith, R. Kobayashi, J. Normand, 
 K. Raghavachari, A. Rendell, J. C. Burant, S. S. Iyengar, J. Tomasi, 
 M. Cossi, N. Rega, J. M. Millam, M. Klene, J. E. Knox, J. B. Cross, 
 V. Bakken, C. Adamo, J. Jaramillo, R. Gomperts, R. E. Stratmann, 
 O. Yazyev, A. J. Austin, R. Cammi, C. Pomelli, J. W. Ochterski, 
 R. L. Martin, K. Morokuma, V. G. Zakrzewski, G. A. Voth, 
 P. Salvador, J. J. Dannenberg, S. Dapprich, A. D. Daniels, 
 O. Farkas, J. B. Foresman, J. V. Ortiz, J. Cioslowski, 
 and D. J. Fox, Gaussian, Inc., Wallingford CT, 2013.
 
 ******************************************
 Gaussian 09:  IA32W-G09RevD.01 24-Apr-2013
                08-Mar-2026 
 ******************************************
 %chk=C:\Gaussian\ZnO_nanotube_larger_NEW_Pt_CO_NEW_freq.chk
 ----------------------------
 # freq pm6 geom=connectivity
 ----------------------------
 1/10=4,30=1,38=1,57=2/1,3;
 2/12=2,17=6,18=5,40=1/2;
 3/5=2,16=1,25=1,41=3900000,71=2,140=1/1,2,3;
 4/35=1/1;
 5/5=2,35=1,38=5,98=1/2;
 8/6=4,10=90,11=11/1;
 11/6=1,8=1,9=11,15=111,16=1/1,2,10;
 10/6=1/2;
 6/7=2,8=2,9=2,10=2,18=1,28=1/1;
 7/8=1,10=1,25=1/1,2,3,16;
 1/10=4,30=1/3;
 99//99;
 -----------------------------
 Zno_NANOTUBE_1D_F_Pt-doped_CO
 -----------------------------
 Symbolic Z-matrix:
 Charge =  0 Multiplicity = 1
 O(Fragment=2)        -1   -12.66772  -4.8902    1.60831 
 O(Fragment=2)        -1   -10.83896  -4.06695   0. 
 Zn(Fragment=2)       -1   -12.55843  -3.25355   0. 
 O(Fragment=2)        -1   -12.66772  -4.8902   -1.60831 
 O(Fragment=2)        -1   -10.83896  -3.27883  -2.42557 
 Zn(Fragment=2)       -1   -12.55843  -2.62078  -1.94747 
 O(Fragment=2)        -1   -12.66772  -2.99951  -4.21062 
 O(Fragment=2)        -1   -10.83896  -1.21552  -3.92466 
 Zn(Fragment=2)       -1   -12.55843  -0.96416  -3.15108 
 O(Fragment=2)        -1   -12.66772   0.05968  -5.20462 
 O(Fragment=2)        -1   -10.83896   1.33488  -3.92466 
 Zn(Fragment=2)       -1   -12.55843   1.08353  -3.15108 
 O(Fragment=2)        -1   -12.66772   3.11888  -4.21062 
 O(Fragment=2)        -1   -10.83896   3.3982   -2.42557 
 Zn(Fragment=2)       -1   -12.55843   2.74015  -1.94747 
 O(Fragment=2)        -1   -12.66772   5.00957  -1.60831 
 O(Fragment=2)        -1   -10.83896   4.18632   0. 
 Zn(Fragment=2)       -1   -12.55843   3.37292   0. 
 O(Fragment=2)        -1   -12.66772   5.00957   1.60831 
 O(Fragment=2)        -1   -10.83896   3.3982    2.42557 
 Zn(Fragment=2)       -1   -12.55843   2.74015   1.94747 
 O(Fragment=2)        -1   -12.66772   3.11888   4.21062 
 O(Fragment=2)        -1   -10.83896   1.33488   3.92466 
 Zn(Fragment=2)       -1   -12.55843   1.08353   3.15108 
 O(Fragment=2)        -1   -12.66772   0.05968   5.20462 
 O(Fragment=2)        -1   -10.83896  -1.21552   3.92466 
 Zn(Fragment=2)       -1   -12.55843  -0.96416   3.15108 
 O(Fragment=2)        -1   -12.66772  -2.99951   4.21062 
 O(Fragment=2)        -1   -10.83896  -3.27883   2.42557 
 Zn(Fragment=2)       -1   -12.55843  -2.62078   1.94747 
 O(Fragment=2)        -1   -7.51774  -4.0823    1.34581 
 Zn(Fragment=2)       -1   -9.33309  -3.5444    1.17104 
 O(Fragment=2)        -1   -4.32125  -4.23098   0. 
 Zn(Fragment=2)       -1   -6.14254  -3.66856   0. 
 O(Fragment=2)        -1   -7.51774  -4.0823   -1.34581 
 Zn(Fragment=2)       -1   -9.33309  -3.5444   -1.17104 
 O(Fragment=2)        -1   -4.32131  -3.41165  -2.52207 
 Zn(Fragment=2)       -1   -6.14254  -2.95653  -2.1914 
 O(Fragment=2)        -1   -7.51774  -2.50021  -3.52339 
 Zn(Fragment=2)       -1   -9.33309  -2.16776  -3.06581 
 O(Fragment=2)        -1   -4.32131  -1.26625  -4.0808 
 Zn(Fragment=2)       -1   -6.14254  -1.09241  -3.54577 
 O(Fragment=2)        -1   -7.51774   0.05968  -4.35514 
 Zn(Fragment=2)       -1   -9.33309   0.05968  -3.78955 
 O(Fragment=2)        -1   -4.32131   1.38561  -4.0808 
 Zn(Fragment=2)       -1   -6.14254   1.21177  -3.54577 
 O(Fragment=2)        -1   -7.51774   2.61957  -3.52339 
 Zn(Fragment=2)       -1   -9.33309   2.28713  -3.06581 
 O(Fragment=2)        -1   -4.32131   3.53102  -2.52207 
 Zn(Fragment=2)       -1   -6.14254   3.07589  -2.1914 
 O(Fragment=2)        -1   -7.51774   4.20167  -1.34581 
 Zn(Fragment=2)       -1   -9.33309   3.66376  -1.17104 
 O(Fragment=2)        -1   -4.32131   4.35049   0. 
 Zn(Fragment=2)       -1   -6.14254   3.78792   0. 
 O(Fragment=2)        -1   -7.51774   4.20167   1.34581 
 Zn(Fragment=2)       -1   -9.33309   3.66376   1.17104 
 O(Fragment=2)        -1   -4.32131   3.53102   2.52207 
 Zn(Fragment=2)       -1   -6.14254   3.07589   2.1914 
 O(Fragment=2)        -1   -7.51774   2.61957   3.52339 
 Zn(Fragment=2)       -1   -9.33309   2.28713   3.06581 
 O(Fragment=2)        -1   -4.32131   1.38561   4.0808 
 Zn(Fragment=2)       -1   -6.14254   1.21177   3.54577 
 O(Fragment=2)        -1   -7.51774   0.05968   4.35514 
 Zn(Fragment=2)       -1   -9.33309   0.05968   3.78955 
 O(Fragment=2)        -1   -4.32131  -1.26625   4.0808 
 Zn(Fragment=2)       -1   -6.14254  -1.09241   3.54577 
 O(Fragment=2)        -1   -7.51774  -2.50021   3.52339 
 Zn(Fragment=2)       -1   -9.33309  -2.16776   3.06581 
 O(Fragment=2)        -1   -4.32131  -3.41165   2.52207 
 Zn(Fragment=2)       -1   -6.14254  -2.95653   2.1914 
 O(Fragment=2)        -1   -1.09568  -4.00127   1.31858 
 Zn(Fragment=2)       -1   -2.90724  -3.4554    1.14224 
 O(Fragment=2)        -1    2.14312  -4.18818   0. 
 O(Fragment=2)        -1   -1.09568  -4.00127  -1.31858 
 Zn(Fragment=2)       -1   -2.90724  -3.4554   -1.14224 
 O(Fragment=2)        -1    2.14448  -3.37612  -2.49613 
 Zn(Fragment=2)       -1    0.33429  -2.92714  -2.17028 
 O(Fragment=2)        -1   -1.09645  -2.45045  -3.45489 
 Zn(Fragment=2)       -1   -2.90713  -2.11257  -2.98985 
 O(Fragment=2)        -1    2.14442  -1.25267  -4.039 
 Zn(Fragment=2)       -1    0.33442  -1.08118  -3.5112 
 O(Fragment=2)        -1   -1.09646   0.05968  -4.27046 
 Zn(Fragment=2)       -1   -2.90713   0.05968  -3.69566 
 O(Fragment=2)        -1    2.14442   1.37203  -4.039 
 Zn(Fragment=2)       -1    0.33442   1.20054  -3.5112 
 O(Fragment=2)        -1   -1.09646   2.5698   -3.45488 
 Zn(Fragment=2)       -1   -2.90713   2.23194  -2.98985 
 O(Fragment=2)        -1    2.14442   3.49546  -2.49624 
 Zn(Fragment=2)       -1    0.33442   3.04649  -2.17004 
 O(Fragment=2)        -1   -1.09646   4.12114  -1.31965 
 Zn(Fragment=2)       -1   -2.90713   3.57447  -1.14202 
 O(Fragment=2)        -1    2.14442   4.30654   0. 
 Zn(Fragment=2)       -1    0.33442   3.75158   0. 
 O(Fragment=2)        -1   -1.09646   4.12114   1.31965 
 Zn(Fragment=2)       -1   -2.90713   3.57447   1.14202 
 O(Fragment=2)        -1    2.14442   3.49546   2.49624 
 Zn(Fragment=2)       -1    0.33442   3.04649   2.17004 
 O(Fragment=2)        -1   -1.09646   2.5698    3.45488 
 Zn(Fragment=2)       -1   -2.90713   2.23194   2.98985 
 O(Fragment=2)        -1    2.14442   1.37203   4.039 
 Zn(Fragment=2)       -1    0.33442   1.20054   3.5112 
 O(Fragment=2)        -1   -1.09646   0.05968   4.27046 
 Zn(Fragment=2)       -1   -2.90713   0.05968   3.69566 
 O(Fragment=2)        -1    2.14442  -1.25267   4.039 
 Zn(Fragment=2)       -1    0.33442  -1.08118   3.5112 
 O(Fragment=2)        -1   -1.09645  -2.45045   3.45489 
 Zn(Fragment=2)       -1   -2.90713  -2.11257   2.98985 
 O(Fragment=2)        -1    2.14448  -3.37612   2.49613 
 Zn(Fragment=2)       -1    0.33429  -2.92714   2.17028 
 O(Fragment=2)        -1    5.38747  -4.00344   1.32018 
 Zn(Fragment=2)       -1    3.5845   -3.44252   1.13783 
 O(Fragment=2)        -1    8.62842  -4.06683   0. 
 Zn(Fragment=2)       -1    6.833    -3.60131   0. 
 O(Fragment=2)        -1    5.38747  -4.00344  -1.32018 
 Zn(Fragment=2)       -1    3.5845   -3.44252  -1.13783 
 O(Fragment=2)        -1    8.62842  -3.27874  -2.4255 
 Zn(Fragment=2)       -1    6.833    -2.90212  -2.15188 
 O(Fragment=2)        -1    5.38746  -2.45147  -3.45631 
 Zn(Fragment=2)       -1    3.58449  -2.10497  -2.97939 
 O(Fragment=2)        -1    8.62842  -1.21548  -3.92455 
 Zn(Fragment=2)       -1    6.833    -1.07163  -3.48181 
 O(Fragment=2)        -1    5.38746   0.05968  -4.27223 
 Zn(Fragment=2)       -1    3.58449   0.05968  -3.68273 
 O(Fragment=2)        -1    8.62842   1.33485  -3.92455 
 Zn(Fragment=2)       -1    6.833     1.19099  -3.48181 
 O(Fragment=2)        -1    5.38746   2.57084  -3.45631 
 Zn(Fragment=2)       -1    3.58449   2.22434  -2.97939 
 O(Fragment=2)        -1    8.62842   3.3981   -2.4255 
 Zn(Fragment=2)       -1    6.833     3.02149  -2.15188 
 O(Fragment=2)        -1    5.38746   4.12282  -1.32019 
 Zn(Fragment=2)       -1    3.58449   3.56216  -1.13803 
 O(Fragment=2)        -1    8.62842   4.1862    0. 
 Zn(Fragment=2)       -1    6.833     3.72067   0. 
 O(Fragment=2)        -1    5.38746   4.12282   1.32019 
 Zn(Fragment=2)       -1    3.58449   3.56216   1.13803 
 O(Fragment=2)        -1    8.62842   3.3981    2.4255 
 Zn(Fragment=2)       -1    6.833     3.02149   2.15188 
 O(Fragment=2)        -1    5.38746   2.57084   3.45631 
 Zn(Fragment=2)       -1    3.58449   2.22434   2.97939 
 O(Fragment=2)        -1    8.62842   1.33485   3.92455 
 Zn(Fragment=2)       -1    6.833     1.19099   3.48181 
 O(Fragment=2)        -1    5.38746   0.05968   4.27223 
 Zn(Fragment=2)       -1    3.58449   0.05968   3.68273 
 O(Fragment=2)        -1    8.62842  -1.21548   3.92455 
 Zn(Fragment=2)       -1    6.833    -1.07163   3.48181 
 O(Fragment=2)        -1    5.38746  -2.45147   3.45631 
 Zn(Fragment=2)       -1    3.58449  -2.10497   2.97939 
 O(Fragment=2)        -1    8.62842  -3.27874   2.4255 
 Zn(Fragment=2)       -1    6.833    -2.90212   2.15188 
 O(Fragment=2)        -1    11.89304  -4.27105   1.40714 
 Zn(Fragment=2)       -1    10.12066  -3.48567   1.15195 
 Zn(Fragment=2)       -1    12.64317  -5.04594   0. 
 O(Fragment=2)        -1    11.89304  -4.27105  -1.40714 
 Zn(Fragment=2)       -1    10.12066  -3.48567  -1.15195 
 Zn(Fragment=2)       -1    12.64317  -4.07086  -3.00101 
 O(Fragment=2)        -1    11.89304  -2.61686  -3.68394 
 Zn(Fragment=2)       -1    10.12066  -2.13146  -3.01586 
 Zn(Fragment=2)       -1    12.64317  -1.51804  -4.85574 
 O(Fragment=2)        -1    11.89304   0.05968  -4.5536 
 Zn(Fragment=2)       -1    10.12066   0.05968  -3.7278 
 Zn(Fragment=2)       -1    12.64317   1.63741  -4.85574 
 O(Fragment=2)        -1    11.89304   2.73622  -3.68394 
 Zn(Fragment=2)       -1    10.12066   2.25083  -3.01586 
 Zn(Fragment=2)       -1    12.64317   4.19022  -3.00101 
 O(Fragment=2)        -1    11.89304   4.39041  -1.40714 
 Zn(Fragment=2)       -1    10.12066   3.60503  -1.15195 
 Zn(Fragment=2)       -1    12.64317   5.16531   0. 
 O(Fragment=2)        -1    11.89304   4.39041   1.40714 
 Zn(Fragment=2)       -1    10.12066   3.60503   1.15195 
 Zn(Fragment=2)       -1    12.64317   4.19022   3.00101 
 O(Fragment=2)        -1    11.89304   2.73622   3.68394 
 Zn(Fragment=2)       -1    10.12066   2.25083   3.01586 
 Zn(Fragment=2)       -1    12.64317   1.63741   4.85574 
 O(Fragment=2)        -1    11.89304   0.05968   4.5536 
 Zn(Fragment=2)       -1    10.12066   0.05968   3.7278 
 Zn(Fragment=2)       -1    12.64317  -1.51804   4.85574 
 O(Fragment=2)        -1    11.89304  -2.61686   3.68394 
 Zn(Fragment=2)       -1    10.12066  -2.13146   3.01586 
 Zn(Fragment=2)       -1    12.64317  -4.07086   3.00101 
 H(Fragment=1)        -1    13.76066  -5.09252   3.7433 
 H(Fragment=1)        -1    13.76066  -1.90829   6.05678 
 H(Fragment=1)        -1    13.76066   2.02765   6.05678 
 H(Fragment=1)        -1    13.76066   5.21189   3.7433 
 H(Fragment=1)        -1    13.76066   6.42816   0. 
 H(Fragment=1)        -1    13.76066   5.21189  -3.7433 
 H(Fragment=1)        -1    13.76066   2.02765  -6.05678 
 H(Fragment=1)        -1    13.76066  -1.90829  -6.05678 
 H(Fragment=1)        -1    13.76066  -5.09252  -3.7433 
 H(Fragment=1)        -1    13.76066  -6.3088    0. 
 H(Fragment=1)        -1   -11.70635   3.33059  -4.50201 
 H(Fragment=1)        -1   -13.2551   3.56819  -4.82905 
 H(Fragment=1)        -1   -11.70635   5.35211  -1.71962 
 H(Fragment=1)        -1   -13.2551   5.73657  -1.84453 
 H(Fragment=1)        -1   -11.70635   5.35211   1.71962 
 H(Fragment=1)        -1   -13.2551   5.73657   1.84453 
 H(Fragment=1)        -1   -11.70635   3.33059   4.50201 
 H(Fragment=1)        -1   -13.2551   3.56819   4.82905 
 H(Fragment=1)        -1   -11.70635   0.05968   5.56479 
 H(Fragment=1)        -1   -13.2551   0.05968   5.96903 
 H(Fragment=1)        -1   -11.70635  -3.21122   4.50201 
 H(Fragment=1)        -1   -13.2551  -3.44883   4.82905 
 H(Fragment=1)        -1   -13.2551  -5.6172    1.84453 
 H(Fragment=1)        -1   -11.70635  -5.23275   1.71962 
 H(Fragment=1)        -1   -11.70635  -5.23275  -1.71962 
 H(Fragment=1)        -1   -13.2551  -5.6172   -1.84453 
 H(Fragment=1)        -1   -11.70635  -3.21122  -4.50201 
 H(Fragment=1)        -1   -13.2551  -3.44883  -4.82905 
 H(Fragment=1)        -1   -11.70635   0.05968  -5.56479 
 H(Fragment=1)        -1   -13.2551   0.05968  -5.96903 
 Pt(Fragment=1)       0     0.26657  -4.0368    0. 
 C(Fragment=1)        0     0.62975  -6.73711   0.56669 
 O(Fragment=1)        0     0.47245  -5.60922   0.52336 
 

 GradGradGradGradGradGradGradGradGradGradGradGradGradGradGradGradGradGrad
 Berny optimization.
 Initialization pass.
 Trust Radius=3.00D-01 FncErr=1.00D-07 GrdErr=1.00D-07
 Number of steps in this run=      2 maximum allowed number of steps=      2.
 GradGradGradGradGradGradGradGradGradGradGradGradGradGradGradGradGradGrad

 Stoichiometry    CH30O91PtZn89
 Framework group  C1[X(CH30O91PtZn89)]
 Deg. of freedom   630
 Full point group                 C1      NOp   1
 Largest Abelian subgroup         C1      NOp   1
 Largest concise Abelian subgroup C1      NOp   1
                         Standard orientation:                         
 ---------------------------------------------------------------------
 Center     Atomic      Atomic             Coordinates (Angstroms)
 Number     Number       Type             X           Y           Z
 ---------------------------------------------------------------------
      1          8           0      -12.667633   -4.921766    1.445627
      2          8           0      -10.839279   -4.045335   -0.134806
      3         30           0      -12.559114   -3.233159   -0.108099
      4          8           0      -12.667696   -4.816181   -1.769269
      5          8           0      -10.839685   -3.178025   -2.533203
      6         30           0      -12.559440   -2.536803   -2.033751
      7          8           0      -12.668605   -2.841093   -4.308114
      8          8           0      -10.840650   -1.066614   -3.963755
      9         30           0      -12.560215   -0.841570   -3.182328
     10          8           0      -12.670012    0.249082   -5.201154
     11          8           0      -10.841807    1.482411   -3.880039
     12         30           0      -12.561144    1.205020   -3.115113
     13          8           0      -12.671381    3.274003   -4.107279
     14          8           0      -10.842714    3.495408   -2.314032
     15         30           0      -12.561872    2.821238   -1.857780
     16          8           0      -12.672187    5.078251   -1.444312
     17          8           0      -10.843023    4.203481    0.136104
     18         30           0      -12.562121    3.389743    0.109413
     19          8           0      -12.672124    4.972667    1.770584
     20          8           0      -10.842618    3.336171    2.534501
     21         30           0      -12.561795    2.693387    2.035065
     22          8           0      -12.671215    2.997578    4.309428
     23          8           0      -10.841653    1.224760    3.965053
     24         30           0      -12.561020    0.998154    3.183642
     25          8           0      -12.669808   -0.092597    5.202469
     26          8           0      -10.840496   -1.324265    3.881337
     27         30           0      -12.560091   -1.048435    3.116427
     28          8           0      -12.668439   -3.117517    4.108594
     29          8           0      -10.839589   -3.337262    2.315330
     30         30           0      -12.559363   -2.664653    1.859094
     31          8           0       -7.518021   -4.103350    1.209762
     32         30           0       -9.333620   -3.560818    1.052744
     33          8           0       -4.321490   -4.206314   -0.140222
     34         30           0       -6.143041   -3.645025   -0.121752
     35          8           0       -7.518074   -4.014998   -1.480414
     36         30           0       -9.333666   -3.483940   -1.288066
     37          8           0       -4.321972   -3.304645   -2.634039
     38         30           0       -6.143407   -2.861446   -2.288603
     39          8           0       -7.518834   -2.362274   -3.604881
     40         30           0       -9.334328   -2.045852   -3.136634
     41          8           0       -4.322976   -1.109234   -4.121503
     42         30           0       -6.144279   -0.953875   -3.581047
     43          8           0       -7.520012    0.223537   -4.352164
     44         30           0       -9.335353    0.204147   -3.786869
     45          8           0       -4.324179    1.541200   -4.034457
     46         30           0       -6.145325    1.349063   -3.505413
     47          8           0       -7.521157    2.754744   -3.436826
     48         30           0       -9.336349    2.406633   -2.990404
     49          8           0       -4.325121    3.634281   -2.406149
     50         30           0       -6.146144    3.167721   -2.090591
     51          8           0       -7.521832    4.264512   -1.208496
     52         30           0       -9.336936    3.720332   -1.051461
     53          8           0       -4.325443    4.370524    0.141462
     54         30           0       -6.146423    3.807436    0.123005
     55          8           0       -7.521779    4.176160    1.481680
     56         30           0       -9.336890    3.643454    1.289349
     57          8           0       -4.325022    3.468709    2.635275
     58         30           0       -6.146057    3.023857    2.289856
     59          8           0       -7.521019    2.523437    3.606147
     60         30           0       -9.336228    2.205365    3.137917
     61          8           0       -4.324018    1.273298    4.122739
     62         30           0       -6.145185    1.116286    3.582300
     63          8           0       -7.519841   -0.062375    4.353430
     64         30           0       -9.335204   -0.044634    3.788152
     65          8           0       -4.322815   -1.377135    4.035692
     66         30           0       -6.144140   -1.186652    3.506666
     67          8           0       -7.518696   -2.593582    3.438092
     68         30           0       -9.334207   -2.247120    2.991687
     69          8           0       -4.321873   -3.470217    2.407384
     70         30           0       -6.143321   -3.005310    2.091844
     71          8           0       -1.096000   -4.018549    1.185170
     72         30           0       -2.907815   -3.468005    1.026857
     73          8           0        2.142860   -4.160607   -0.138848
     74          8           0       -1.096052   -3.931986   -1.450564
     75         30           0       -2.907859   -3.393017   -1.256397
     76          8           0        2.143796   -3.267043   -2.606978
     77         30           0        0.333411   -2.829832   -2.266560
     78          8           0       -1.097569   -2.311881   -3.534823
     79         30           0       -2.908394   -1.990269   -3.058935
     80          8           0        2.142746   -1.094097   -4.079316
     81         30           0        0.332677   -0.940843   -3.546161
     82          8           0       -1.098731    0.223673   -4.267561
     83         30           0       -2.909394    0.203983   -3.693059
     84          8           0        2.141555    1.529191   -3.993161
     85         30           0        0.331641    1.339644   -3.471264
     86          8           0       -1.099854    2.705665   -3.370020
     87         30           0       -2.910365    2.351900   -2.916328
     88          8           0        2.140622    3.600835   -2.381530
     89         30           0        0.330830    3.140573   -2.070235
     90          8           0       -1.100515    4.186077   -1.185017
     91         30           0       -2.910938    3.633050   -1.025424
     92          8           0        2.140303    4.329537    0.139989
     93         30           0        0.330553    3.774051    0.121781
     94          8           0       -1.100463    4.099444    1.452853
     95         30           0       -2.910893    3.558077    1.257389
     96          8           0        2.140720    3.436958    2.608260
     97         30           0        0.330916    2.998111    2.267508
     98          8           0       -1.099718    2.478855    3.536012
     99         30           0       -2.910248    2.155618    3.060157
    100          8           0        2.141714    1.264033    4.080490
    101         30           0        0.331779    1.109136    3.547352
    102          8           0       -1.098563   -0.056680    4.268765
    103         30           0       -2.909248   -0.038634    3.694281
    104          8           0        2.142904   -1.359254    3.994335
    105         30           0        0.332815   -1.171351    3.472455
    106          8           0       -1.097434   -2.538693    3.371240
    107         30           0       -2.908277   -2.186551    2.917550
    108          8           0        2.143895   -3.430913    2.382594
    109         30           0        0.333497   -2.972309    2.071668
    110          8           0        5.387146   -4.017825    1.186667
    111         30           0        3.583924   -3.452042    1.022838
    112          8           0        8.628099   -4.036377   -0.134895
    113         30           0        6.832474   -3.571921   -0.119606
    114          8           0        5.387095   -3.931156   -1.452265
    115         30           0        3.583879   -3.377345   -1.251595
    116          8           0        8.627694   -3.169091   -2.533223
    117         30           0        6.832114   -2.802476   -2.247373
    118          8           0        5.386343   -2.309908   -3.536301
    119         30           0        3.583225   -1.980066   -3.048257
    120          8           0        8.626728   -1.057741   -3.963733
    121         30           0        6.831257   -0.929313   -3.516504
    122          8           0        5.385188    0.226675   -4.269358
    123         30           0        3.582230    0.206506   -3.680162
    124          8           0        8.625571    1.491210   -3.880020
    125         30           0        6.830231    1.332085   -3.442234
    126          8           0        5.384065    2.709694   -3.371446
    127         30           0        3.581261    2.346905   -2.906149
    128          8           0        8.624665    3.504149   -2.314058
    129         30           0        6.829427    3.117940   -2.052933
    130          8           0        5.383403    4.190719   -1.185538
    131         30           0        3.580691    3.623571   -1.021864
    132          8           0        8.624355    4.212202    0.136007
    133         30           0        6.829152    3.746116    0.120735
    134          8           0        5.383455    4.104049    1.453423
    135         30           0        3.580735    3.548861    1.252960
    136          8           0        8.624760    3.344916    2.534335
    137         30           0        6.829511    2.976671    2.248502
    138          8           0        5.384201    2.482790    3.537444
    139         30           0        3.581379    2.151311    3.049417
    140          8           0        8.625726    1.233566    3.964845
    141         30           0        6.830368    1.103507    3.517633
    142          8           0        5.385356   -0.053794    4.270501
    143         30           0        3.582374   -0.035262    3.681322
    144          8           0        8.626883   -1.315385    3.881132
    145         30           0        6.831394   -1.157891    3.443364
    146          8           0        5.386479   -2.536812    3.372589
    147         30           0        3.583343   -2.175661    2.907309
    148          8           0        8.627789   -3.328324    2.315170
    149         30           0        6.832199   -2.943746    2.054062
    150          8           0       11.892838   -4.285191    1.264767
    151         30           0       10.120098   -3.492662    1.035508
    152         30           0       12.643295   -5.013139   -0.167053
    153          8           0       11.892783   -4.192814   -1.547996
    154         30           0       10.120053   -3.417037   -1.267159
    155         30           0       12.642794   -3.940069   -3.134441
    156          8           0       11.891987   -2.464778   -3.769271
    157         30           0       10.119402   -2.002382   -3.085605
    158         30           0       12.641599   -1.327752   -4.904373
    159          8           0       11.890756    0.238865   -4.550606
    160         30           0       10.118394    0.210954   -3.725244
    161         30           0       12.640168    1.825998   -4.800797
    162          8           0       11.889559    2.885415   -3.593558
    163         30           0       10.117414    2.377551   -2.941758
    164         30           0       12.639046    4.316554   -2.863274
    165          8           0       11.888853    4.463981   -1.263686
    166         30           0       10.116836    3.669842   -1.034410
    167         30           0       12.638663    5.192609    0.168127
    168          8           0       11.888909    4.371603    1.549077
    169         30           0       10.116882    3.594217    1.268257
    170         30           0       12.639164    4.119540    3.135515
    171          8           0       11.889704    2.643567    3.770352
    172         30           0       10.117533    2.179562    3.086703
    173         30           0       12.640359    1.507222    4.905447
    174          8           0       11.890935   -0.060076    4.551687
    175         30           0       10.118541   -0.033774    3.726342
    176         30           0       12.641790   -1.646527    4.801871
    177          8           0       11.892132   -2.706626    3.594639
    178         30           0       10.119521   -2.200371    2.942855
    179         30           0       12.642912   -4.137084    2.864348
    180          1           0       13.760876   -5.182059    3.572692
    181          1           0       13.759477   -2.075476    5.989452
    182          1           0       13.757692    1.858338    6.118648
    183          1           0       13.756201    5.116800    3.910931
    184          1           0       13.755576    6.455288    0.209575
    185          1           0       13.756054    5.362545   -3.571629
    186          1           0       13.757453    2.255962   -5.988389
    187          1           0       13.759239   -1.677853   -6.117585
    188          1           0       13.760729   -4.936315   -3.909868
    189          1           0       13.761354   -6.274803   -0.208511
    190          1           0      -11.710108    3.495596   -4.391566
    191          1           0      -13.258978    3.743105   -4.710620
    192          1           0      -11.710971    5.424704   -1.544314
    193          1           0      -13.259903    5.812348   -1.656536
    194          1           0      -11.710903    5.311813    1.893064
    195          1           0      -13.259830    5.691256    2.030540
    196          1           0      -11.709931    3.200042    4.607604
    197          1           0      -13.258788    3.426082    4.942271
    198          1           0      -11.708427   -0.103983    5.562446
    199          1           0      -13.257174   -0.117955    5.966475
    200          1           0      -11.706964   -3.338238    4.392872
    201          1           0      -13.255605   -3.587153    4.711940
    202          1           0      -13.254680   -5.656397    1.657857
    203          1           0      -11.706101   -5.267346    1.545619
    204          1           0      -11.706169   -5.154454   -1.891758
    205          1           0      -13.254752   -5.535304   -2.029220
    206          1           0      -11.707141   -3.042684   -4.606299
    207          1           0      -13.255794   -3.270130   -4.940951
    208          1           0      -11.708645    0.261341   -5.561140
    209          1           0      -13.257409    0.273907   -5.965155
    210         78           0        0.266237   -4.010155   -0.133870
    211          6           0        0.630659   -6.727452    0.343877
    212          8           0        0.472840   -5.598817    0.337591
 ---------------------------------------------------------------------
 Rotational constants (GHZ):      0.0042975      0.0009179      0.0009123
 Standard basis: VSTO-6G (5D, 7F)
 There are   764 symmetry adapted cartesian basis functions of A   symmetry.
 There are   763 symmetry adapted basis functions of A   symmetry.
   763 basis functions,  4584 primitive gaussians,   764 cartesian basis functions
   384 alpha electrons      384 beta electrons
       nuclear repulsion energy     18075.2200723553 Hartrees.
 Integral buffers will be    262144 words long.
 Regular integral format.
 Two-electron integral symmetry is turned off.
 Do NDO integrals.
 One-electron integrals computed using PRISM.
 NBasis=   763 RedAO= F EigKep=  0.00D+00  NBF=   763
 NBsUse=   763 1.00D-04 EigRej=  0.00D+00 NBFU=   763
 Nonelectrostatic core Hamiltonian diagonalized for initial guess.
 Overlap will be assumed to be unity.
 Keep J ints in memory in canonical form, NReq=5560749.
 Requested convergence on RMS density matrix=1.00D-08 within 128 cycles.
 Requested convergence on MAX density matrix=1.00D-06.
 Requested convergence on             energy=1.00D-06.
 No special actions if energy rises.
 EnCoef did     9 forward-backward iterations
 EnCoef did     2 forward-backward iterations
 EnCoef did     8 forward-backward iterations
 EnCoef did     6 forward-backward iterations
 EnCoef did   100 forward-backward iterations
 EnCoef did     1 forward-backward iterations
 EnCoef did     4 forward-backward iterations
 EnCoef did     3 forward-backward iterations
 SCF Done:  E(RPM6) =  -10.0431464952     A.U. after   66 cycles
            NFock= 65  Conv=0.55D-08     -V/T= 0.9848
 Range of M.O.s used for correlation:     1   763
 NBasis=   763 NAE=   384 NBE=   384 NFC=     0 NFV=     0
 NROrb=    763 NOA=   384 NOB=   384 NVA=   379 NVB=   379
 Symmetrizing basis deriv contribution to polar:
 IMax=3 JMax=2 DiffMx= 0.00D+00
 G2DrvN: will do    14 centers at a time, making   16 passes.
 Calling FoFCou, ICntrl=  3107 FMM=F I1Cent=   0 AccDes= 0.00D+00.
 Calling FoFCou, ICntrl=  3107 FMM=F I1Cent=   0 AccDes= 0.00D+00.
 Calling FoFCou, ICntrl=  3107 FMM=F I1Cent=   0 AccDes= 0.00D+00.
 Calling FoFCou, ICntrl=  3107 FMM=F I1Cent=   0 AccDes= 0.00D+00.
 Calling FoFCou, ICntrl=  3107 FMM=F I1Cent=   0 AccDes= 0.00D+00.
 Calling FoFCou, ICntrl=  3107 FMM=F I1Cent=   0 AccDes= 0.00D+00.
 Calling FoFCou, ICntrl=  3107 FMM=F I1Cent=   0 AccDes= 0.00D+00.
 Calling FoFCou, ICntrl=  3107 FMM=F I1Cent=   0 AccDes= 0.00D+00.
 Calling FoFCou, ICntrl=  3107 FMM=F I1Cent=   0 AccDes= 0.00D+00.
 Calling FoFCou, ICntrl=  3107 FMM=F I1Cent=   0 AccDes= 0.00D+00.
 Calling FoFCou, ICntrl=  3107 FMM=F I1Cent=   0 AccDes= 0.00D+00.
 Calling FoFCou, ICntrl=  3107 FMM=F I1Cent=   0 AccDes= 0.00D+00.
 Calling FoFCou, ICntrl=  3107 FMM=F I1Cent=   0 AccDes= 0.00D+00.
 Calling FoFCou, ICntrl=  3107 FMM=F I1Cent=   0 AccDes= 0.00D+00.
 Calling FoFCou, ICntrl=  3107 FMM=F I1Cent=   0 AccDes= 0.00D+00.
 Calling FoFCou, ICntrl=  3107 FMM=F I1Cent=   0 AccDes= 0.00D+00.
 End of G2Drv F.D. properties file   721 does not exist.
 End of G2Drv F.D. properties file   722 does not exist.
 End of G2Drv F.D. properties file   788 does not exist.
          IDoAtm=00000000000000000000000000000000000000000000000000
          IDoAtm=00000000000000000000000000000000000000000000000000
          IDoAtm=00000000000000000000000000000000000000000000000000
          IDoAtm=00000000000000000000000000000000000000000000000000
          IDoAtm=000000000111
          Differentiating once with respect to electric field.
                with respect to dipole field.
          Differentiating once with respect to nuclear coordinates.
          Electric field/nuclear overlap derivatives assumed to be zero.
 Keep J ints in memory in canonical form, NReq=3861004.
          There are    12 degrees of freedom in the 1st order CPHF.  IDoFFX=5 NUNeed=    12.
 LinEq1:  Iter=  0 NonCon=    12 RMS=1.77D-01 Max=3.83D+01 NDo=    12
 AX will form    12 AO Fock derivatives at one time.
 LinEq1:  Iter=  1 NonCon=    12 RMS=5.16D-02 Max=2.23D+00 NDo=    12
 LinEq1:  Iter=  2 NonCon=    12 RMS=3.47D-02 Max=7.10D+00 NDo=    12
 LinEq1:  Iter=  3 NonCon=    12 RMS=1.54D-02 Max=1.69D+00 NDo=    12
 LinEq1:  Iter=  4 NonCon=    12 RMS=5.82D-03 Max=5.07D-01 NDo=    12
 LinEq1:  Iter=  5 NonCon=    12 RMS=2.04D-03 Max=1.55D-01 NDo=    12
 LinEq1:  Iter=  6 NonCon=    12 RMS=9.53D-04 Max=1.68D-01 NDo=    12
 LinEq1:  Iter=  7 NonCon=    12 RMS=4.37D-04 Max=3.78D-02 NDo=    12
 LinEq1:  Iter=  8 NonCon=    12 RMS=2.26D-04 Max=3.63D-02 NDo=    12
 LinEq1:  Iter=  9 NonCon=    12 RMS=8.46D-05 Max=6.30D-03 NDo=    12
 LinEq1:  Iter= 10 NonCon=    12 RMS=4.18D-05 Max=6.48D-03 NDo=    12
 LinEq1:  Iter= 11 NonCon=    12 RMS=2.09D-05 Max=1.47D-03 NDo=    12
 LinEq1:  Iter= 12 NonCon=    12 RMS=9.64D-06 Max=1.43D-03 NDo=    12
 LinEq1:  Iter= 13 NonCon=    12 RMS=4.31D-06 Max=3.87D-04 NDo=    12
 LinEq1:  Iter= 14 NonCon=    12 RMS=2.07D-06 Max=1.35D-04 NDo=    12
 LinEq1:  Iter= 15 NonCon=    10 RMS=6.92D-07 Max=5.01D-05 NDo=    12
 LinEq1:  Iter= 16 NonCon=     8 RMS=2.68D-07 Max=1.45D-05 NDo=    12
 LinEq1:  Iter= 17 NonCon=     3 RMS=1.04D-07 Max=5.74D-06 NDo=    12
 LinEq1:  Iter= 18 NonCon=     3 RMS=3.62D-08 Max=2.16D-06 NDo=    12
 LinEq1:  Iter= 19 NonCon=     3 RMS=1.33D-08 Max=5.85D-07 NDo=    12
 LinEq1:  Iter= 20 NonCon=     3 RMS=5.43D-09 Max=3.07D-07 NDo=    12
 LinEq1:  Iter= 21 NonCon=     0 RMS=2.07D-09 Max=8.72D-08 NDo=    12
 Linear equations converged to 1.000D-08 1.000D-07 after    21 iterations.
 Isotropic polarizability for W=    0.000000     3946.33 Bohr**3.
 End of Minotr F.D. properties file   721 does not exist.
 End of Minotr F.D. properties file   722 does not exist.
 End of Minotr F.D. properties file   788 does not exist.

 **********************************************************************

            Population analysis using the SCF density.

 **********************************************************************

 Orbital symmetries:
       Occupied  (A) (A) (A) (A) (A) (A) (A) (A) (A) (A) (A) (A)
                 (A) (A) (A) (A) (A) (A) (A) (A) (A) (A) (A) (A)
                 (A) (A) (A) (A) (A) (A) (A) (A) (A) (A) (A) (A)
                 (A) (A) (A) (A) (A) (A) (A) (A) (A) (A) (A) (A)
                 (A) (A) (A) (A) (A) (A) (A) (A) (A) (A) (A) (A)
                 (A) (A) (A) (A) (A) (A) (A) (A) (A) (A) (A) (A)
                 (A) (A) (A) (A) (A) (A) (A) (A) (A) (A) (A) (A)
                 (A) (A) (A) (A) (A) (A) (A) (A) (A) (A) (A) (A)
                 (A) (A) (A) (A) (A) (A) (A) (A) (A) (A) (A) (A)
                 (A) (A) (A) (A) (A) (A) (A) (A) (A) (A) (A) (A)
                 (A) (A) (A) (A) (A) (A) (A) (A) (A) (A) (A) (A)
                 (A) (A) (A) (A) (A) (A) (A) (A) (A) (A) (A) (A)
                 (A) (A) (A) (A) (A) (A) (A) (A) (A) (A) (A) (A)
                 (A) (A) (A) (A) (A) (A) (A) (A) (A) (A) (A) (A)
                 (A) (A) (A) (A) (A) (A) (A) (A) (A) (A) (A) (A)
                 (A) (A) (A) (A) (A) (A) (A) (A) (A) (A) (A) (A)
                 (A) (A) (A) (A) (A) (A) (A) (A) (A) (A) (A) (A)
                 (A) (A) (A) (A) (A) (A) (A) (A) (A) (A) (A) (A)
                 (A) (A) (A) (A) (A) (A) (A) (A) (A) (A) (A) (A)
                 (A) (A) (A) (A) (A) (A) (A) (A) (A) (A) (A) (A)
                 (A) (A) (A) (A) (A) (A) (A) (A) (A) (A) (A) (A)
                 (A) (A) (A) (A) (A) (A) (A) (A) (A) (A) (A) (A)
                 (A) (A) (A) (A) (A) (A) (A) (A) (A) (A) (A) (A)
                 (A) (A) (A) (A) (A) (A) (A) (A) (A) (A) (A) (A)
                 (A) (A) (A) (A) (A) (A) (A) (A) (A) (A) (A) (A)
                 (A) (A) (A) (A) (A) (A) (A) (A) (A) (A) (A) (A)
                 (A) (A) (A) (A) (A) (A) (A) (A) (A) (A) (A) (A)
                 (A) (A) (A) (A) (A) (A) (A) (A) (A) (A) (A) (A)
                 (A) (A) (A) (A) (A) (A) (A) (A) (A) (A) (A) (A)
                 (A) (A) (A) (A) (A) (A) (A) (A) (A) (A) (A) (A)
                 (A) (A) (A) (A) (A) (A) (A) (A) (A) (A) (A) (A)
                 (A) (A) (A) (A) (A) (A) (A) (A) (A) (A) (A) (A)
       Virtual   (A) (A) (A) (A) (A) (A) (A) (A) (A) (A) (A) (A)
                 (A) (A) (A) (A) (A) (A) (A) (A) (A) (A) (A) (A)
                 (A) (A) (A) (A) (A) (A) (A) (A) (A) (A) (A) (A)
                 (A) (A) (A) (A) (A) (A) (A) (A) (A) (A) (A) (A)
                 (A) (A) (A) (A) (A) (A) (A) (A) (A) (A) (A) (A)
                 (A) (A) (A) (A) (A) (A) (A) (A) (A) (A) (A) (A)
                 (A) (A) (A) (A) (A) (A) (A) (A) (A) (A) (A) (A)
                 (A) (A) (A) (A) (A) (A) (A) (A) (A) (A) (A) (A)
                 (A) (A) (A) (A) (A) (A) (A) (A) (A) (A) (A) (A)
                 (A) (A) (A) (A) (A) (A) (A) (A) (A) (A) (A) (A)
                 (A) (A) (A) (A) (A) (A) (A) (A) (A) (A) (A) (A)
                 (A) (A) (A) (A) (A) (A) (A) (A) (A) (A) (A) (A)
                 (A) (A) (A) (A) (A) (A) (A) (A) (A) (A) (A) (A)
                 (A) (A) (A) (A) (A) (A) (A) (A) (A) (A) (A) (A)
                 (A) (A) (A) (A) (A) (A) (A) (A) (A) (A) (A) (A)
                 (A) (A) (A) (A) (A) (A) (A) (A) (A) (A) (A) (A)
                 (A) (A) (A) (A) (A) (A) (A) (A) (A) (A) (A) (A)
                 (A) (A) (A) (A) (A) (A) (A) (A) (A) (A) (A) (A)
                 (A) (A) (A) (A) (A) (A) (A) (A) (A) (A) (A) (A)
                 (A) (A) (A) (A) (A) (A) (A) (A) (A) (A) (A) (A)
                 (A) (A) (A) (A) (A) (A) (A) (A) (A) (A) (A) (A)
                 (A) (A) (A) (A) (A) (A) (A) (A) (A) (A) (A) (A)
                 (A) (A) (A) (A) (A) (A) (A) (A) (A) (A) (A) (A)
                 (A) (A) (A) (A) (A) (A) (A) (A) (A) (A) (A) (A)
                 (A) (A) (A) (A) (A) (A) (A) (A) (A) (A) (A) (A)
                 (A) (A) (A) (A) (A) (A) (A) (A) (A) (A) (A) (A)
                 (A) (A) (A) (A) (A) (A) (A) (A) (A) (A) (A) (A)
                 (A) (A) (A) (A) (A) (A) (A) (A) (A) (A) (A) (A)
                 (A) (A) (A) (A) (A) (A) (A) (A) (A) (A) (A) (A)
                 (A) (A) (A) (A) (A) (A) (A) (A) (A) (A) (A) (A)
                 (A) (A) (A) (A) (A) (A) (A) (A) (A) (A) (A) (A)
                 (A) (A) (A) (A) (A) (A) (A)
 The electronic state is 1-A.
 Alpha  occ. eigenvalues --   -1.65115  -1.59751  -1.51754  -1.50958  -1.49682
 Alpha  occ. eigenvalues --   -1.46388  -1.45869  -1.44517  -1.41032  -1.39395
 Alpha  occ. eigenvalues --   -1.38940  -1.31650  -1.31547  -1.29720  -1.25428
 Alpha  occ. eigenvalues --   -1.25264  -1.23921  -1.23647  -1.22724  -1.21576
 Alpha  occ. eigenvalues --   -1.19636  -1.19373  -1.19373  -1.18600  -1.18364
 Alpha  occ. eigenvalues --   -1.18066  -1.18025  -1.17612  -1.16185  -1.15770
 Alpha  occ. eigenvalues --   -1.15472  -1.15162  -1.14700  -1.12755  -1.11449
 Alpha  occ. eigenvalues --   -1.10719  -1.10594  -1.09431  -1.08271  -1.07339
 Alpha  occ. eigenvalues --   -1.06423  -1.06253  -1.05868  -1.05068  -1.04841
 Alpha  occ. eigenvalues --   -1.04065  -1.03800  -1.03557  -1.03354  -1.02520
 Alpha  occ. eigenvalues --   -1.02450  -1.01587  -1.01107  -1.00955  -1.00413
 Alpha  occ. eigenvalues --   -1.00380  -1.00275  -1.00262  -1.00156  -0.99154
 Alpha  occ. eigenvalues --   -0.98860  -0.98466  -0.97910  -0.97653  -0.97526
 Alpha  occ. eigenvalues --   -0.97486  -0.97305  -0.97226  -0.97014  -0.96956
 Alpha  occ. eigenvalues --   -0.96111  -0.95834  -0.95659  -0.95559  -0.94905
 Alpha  occ. eigenvalues --   -0.94715  -0.94572  -0.94517  -0.94504  -0.93989
 Alpha  occ. eigenvalues --   -0.93893  -0.93846  -0.93820  -0.93799  -0.93773
 Alpha  occ. eigenvalues --   -0.93764  -0.93704  -0.92842  -0.92097  -0.91910
 Alpha  occ. eigenvalues --   -0.90539  -0.90475  -0.89171  -0.89125  -0.89111
 Alpha  occ. eigenvalues --   -0.82077  -0.81065  -0.79179  -0.79179  -0.78736
 Alpha  occ. eigenvalues --   -0.77346  -0.77132  -0.77128  -0.76913  -0.76773
 Alpha  occ. eigenvalues --   -0.76620  -0.76311  -0.75896  -0.75844  -0.75742
 Alpha  occ. eigenvalues --   -0.75316  -0.74574  -0.74256  -0.73390  -0.73214
 Alpha  occ. eigenvalues --   -0.73214  -0.73031  -0.72090  -0.71816  -0.71538
 Alpha  occ. eigenvalues --   -0.71453  -0.71240  -0.70588  -0.70364  -0.69838
 Alpha  occ. eigenvalues --   -0.69358  -0.69042  -0.68570  -0.68060  -0.68059
 Alpha  occ. eigenvalues --   -0.67578  -0.66982  -0.66488  -0.66090  -0.65513
 Alpha  occ. eigenvalues --   -0.65502  -0.64667  -0.64321  -0.64257  -0.64228
 Alpha  occ. eigenvalues --   -0.64115  -0.63846  -0.63313  -0.63164  -0.62610
 Alpha  occ. eigenvalues --   -0.62310  -0.62034  -0.61885  -0.61792  -0.61447
 Alpha  occ. eigenvalues --   -0.60833  -0.60795  -0.60683  -0.59268  -0.59045
 Alpha  occ. eigenvalues --   -0.58716  -0.57994  -0.57940  -0.57636  -0.57632
 Alpha  occ. eigenvalues --   -0.57327  -0.57216  -0.57137  -0.57082  -0.56975
 Alpha  occ. eigenvalues --   -0.56864  -0.56661  -0.56425  -0.56238  -0.55938
 Alpha  occ. eigenvalues --   -0.55937  -0.55888  -0.55885  -0.55560  -0.55550
 Alpha  occ. eigenvalues --   -0.55026  -0.54960  -0.54933  -0.54751  -0.54658
 Alpha  occ. eigenvalues --   -0.54576  -0.54131  -0.54006  -0.53993  -0.53887
 Alpha  occ. eigenvalues --   -0.53790  -0.53620  -0.53549  -0.53416  -0.53207
 Alpha  occ. eigenvalues --   -0.53205  -0.53197  -0.53031  -0.52995  -0.52929
 Alpha  occ. eigenvalues --   -0.52839  -0.52808  -0.52772  -0.52754  -0.52752
 Alpha  occ. eigenvalues --   -0.52678  -0.52612  -0.52397  -0.52052  -0.51970
 Alpha  occ. eigenvalues --   -0.51852  -0.51618  -0.51566  -0.51506  -0.51253
 Alpha  occ. eigenvalues --   -0.50736  -0.50724  -0.50646  -0.50643  -0.50450
 Alpha  occ. eigenvalues --   -0.49988  -0.49547  -0.49523  -0.49151  -0.49141
 Alpha  occ. eigenvalues --   -0.49057  -0.49055  -0.48954  -0.48861  -0.48837
 Alpha  occ. eigenvalues --   -0.48554  -0.48429  -0.48409  -0.48353  -0.48247
 Alpha  occ. eigenvalues --   -0.48245  -0.47974  -0.47917  -0.47825  -0.47760
 Alpha  occ. eigenvalues --   -0.47664  -0.47629  -0.47592  -0.47516  -0.47461
 Alpha  occ. eigenvalues --   -0.47407  -0.47319  -0.47101  -0.46947  -0.46907
 Alpha  occ. eigenvalues --   -0.46868  -0.46733  -0.46699  -0.46619  -0.46579
 Alpha  occ. eigenvalues --   -0.46491  -0.46367  -0.46316  -0.46296  -0.46189
 Alpha  occ. eigenvalues --   -0.46138  -0.46070  -0.46029  -0.45995  -0.45947
 Alpha  occ. eigenvalues --   -0.45936  -0.45864  -0.45852  -0.45520  -0.45394
 Alpha  occ. eigenvalues --   -0.45365  -0.45306  -0.45267  -0.45189  -0.45088
 Alpha  occ. eigenvalues --   -0.44994  -0.44934  -0.44776  -0.44747  -0.44565
 Alpha  occ. eigenvalues --   -0.44491  -0.44394  -0.44295  -0.44235  -0.44159
 Alpha  occ. eigenvalues --   -0.44045  -0.43856  -0.43814  -0.43808  -0.43716
 Alpha  occ. eigenvalues --   -0.43535  -0.43504  -0.43379  -0.43374  -0.43312
 Alpha  occ. eigenvalues --   -0.43225  -0.43076  -0.43057  -0.42975  -0.42952
 Alpha  occ. eigenvalues --   -0.42943  -0.42745  -0.42676  -0.42526  -0.42498
 Alpha  occ. eigenvalues --   -0.42415  -0.42365  -0.42247  -0.42238  -0.41986
 Alpha  occ. eigenvalues --   -0.41939  -0.41869  -0.41787  -0.41767  -0.41696
 Alpha  occ. eigenvalues --   -0.41688  -0.41642  -0.41563  -0.41457  -0.41406
 Alpha  occ. eigenvalues --   -0.41364  -0.41287  -0.41253  -0.41193  -0.41132
 Alpha  occ. eigenvalues --   -0.41061  -0.41000  -0.40979  -0.40943  -0.40918
 Alpha  occ. eigenvalues --   -0.40872  -0.40813  -0.40778  -0.40718  -0.40674
 Alpha  occ. eigenvalues --   -0.40608  -0.40517  -0.40430  -0.40313  -0.40264
 Alpha  occ. eigenvalues --   -0.40210  -0.40114  -0.40093  -0.39914  -0.39913
 Alpha  occ. eigenvalues --   -0.39867  -0.39751  -0.39723  -0.39533  -0.39506
 Alpha  occ. eigenvalues --   -0.39300  -0.39234  -0.39100  -0.39070  -0.38992
 Alpha  occ. eigenvalues --   -0.38846  -0.38630  -0.38538  -0.38528  -0.38448
 Alpha  occ. eigenvalues --   -0.38424  -0.38420  -0.38267  -0.38101  -0.37860
 Alpha  occ. eigenvalues --   -0.37753  -0.37547  -0.37392  -0.37308  -0.37230
 Alpha  occ. eigenvalues --   -0.37146  -0.36949  -0.36929  -0.36724  -0.36707
 Alpha  occ. eigenvalues --   -0.36079  -0.36047  -0.36035  -0.36035  -0.35435
 Alpha  occ. eigenvalues --   -0.35363  -0.35129  -0.34390  -0.34385  -0.34199
 Alpha  occ. eigenvalues --   -0.34058  -0.33822  -0.33762  -0.32521
 Alpha virt. eigenvalues --   -0.22029  -0.21741  -0.21104  -0.19211  -0.19115
 Alpha virt. eigenvalues --   -0.18459  -0.17867  -0.17783  -0.17244  -0.17240
 Alpha virt. eigenvalues --   -0.17223  -0.16526  -0.16297  -0.15328  -0.15303
 Alpha virt. eigenvalues --   -0.14723  -0.14156  -0.14037  -0.13440  -0.13267
 Alpha virt. eigenvalues --   -0.12941  -0.12366  -0.12103  -0.11746  -0.11619
 Alpha virt. eigenvalues --   -0.11222  -0.10732  -0.09899  -0.09465  -0.09431
 Alpha virt. eigenvalues --   -0.09312  -0.08913  -0.08291  -0.08197  -0.08172
 Alpha virt. eigenvalues --   -0.08130  -0.07712  -0.07648  -0.07429  -0.07302
 Alpha virt. eigenvalues --   -0.06991  -0.06454  -0.05938  -0.05632  -0.05523
 Alpha virt. eigenvalues --   -0.05211  -0.05201  -0.04616  -0.04597  -0.04579
 Alpha virt. eigenvalues --   -0.04476  -0.04110  -0.04018  -0.03881  -0.03842
 Alpha virt. eigenvalues --   -0.03630  -0.03517  -0.03441  -0.03226  -0.02825
 Alpha virt. eigenvalues --   -0.02297  -0.01706  -0.01620  -0.01619  -0.01257
 Alpha virt. eigenvalues --   -0.01192  -0.01073  -0.01064  -0.00704  -0.00325
 Alpha virt. eigenvalues --   -0.00280  -0.00196  -0.00170  -0.00090   0.00229
 Alpha virt. eigenvalues --    0.00292   0.00377   0.00431   0.00489   0.00635
 Alpha virt. eigenvalues --    0.00733   0.00836   0.00956   0.01357   0.01489
 Alpha virt. eigenvalues --    0.01509   0.01699   0.01762   0.01805   0.01906
 Alpha virt. eigenvalues --    0.02224   0.02304   0.02372   0.02389   0.02425
 Alpha virt. eigenvalues --    0.02778   0.02809   0.03113   0.03187   0.03354
 Alpha virt. eigenvalues --    0.03404   0.03425   0.03510   0.03525   0.03786
 Alpha virt. eigenvalues --    0.03812   0.03940   0.03981   0.04121   0.04336
 Alpha virt. eigenvalues --    0.04344   0.04394   0.04399   0.04402   0.04494
 Alpha virt. eigenvalues --    0.04517   0.04571   0.04723   0.04926   0.05021
 Alpha virt. eigenvalues --    0.05320   0.05363   0.05422   0.05441   0.05477
 Alpha virt. eigenvalues --    0.05624   0.05696   0.05729   0.05759   0.05804
 Alpha virt. eigenvalues --    0.05882   0.05897   0.06087   0.06429   0.06479
 Alpha virt. eigenvalues --    0.06520   0.06528   0.06672   0.06804   0.06820
 Alpha virt. eigenvalues --    0.06846   0.06995   0.07013   0.07045   0.07060
 Alpha virt. eigenvalues --    0.07217   0.07232   0.07286   0.07317   0.07328
 Alpha virt. eigenvalues --    0.07394   0.07404   0.07467   0.07477   0.07511
 Alpha virt. eigenvalues --    0.07532   0.07611   0.07770   0.07790   0.07821
 Alpha virt. eigenvalues --    0.07870   0.07883   0.07970   0.08031   0.08037
 Alpha virt. eigenvalues --    0.08205   0.08334   0.08435   0.08483   0.08634
 Alpha virt. eigenvalues --    0.08775   0.08872   0.08928   0.09195   0.09257
 Alpha virt. eigenvalues --    0.09267   0.09385   0.09513   0.09693   0.09726
 Alpha virt. eigenvalues --    0.09778   0.09954   0.09984   0.10001   0.10173
 Alpha virt. eigenvalues --    0.10231   0.10446   0.10451   0.10549   0.10650
 Alpha virt. eigenvalues --    0.10761   0.10802   0.11015   0.11029   0.11168
 Alpha virt. eigenvalues --    0.11172   0.11203   0.11353   0.11602   0.11687
 Alpha virt. eigenvalues --    0.11730   0.11782   0.12157   0.12575   0.12595
 Alpha virt. eigenvalues --    0.12620   0.12724   0.12788   0.12812   0.12831
 Alpha virt. eigenvalues --    0.12945   0.12964   0.12985   0.13077   0.13153
 Alpha virt. eigenvalues --    0.13181   0.13242   0.13262   0.13413   0.13470
 Alpha virt. eigenvalues --    0.13488   0.13498   0.13646   0.13691   0.13719
 Alpha virt. eigenvalues --    0.13886   0.13930   0.13977   0.14050   0.14058
 Alpha virt. eigenvalues --    0.14138   0.14331   0.14406   0.14561   0.14653
 Alpha virt. eigenvalues --    0.14675   0.14830   0.14877   0.15000   0.15079
 Alpha virt. eigenvalues --    0.15159   0.15167   0.15246   0.15340   0.15438
 Alpha virt. eigenvalues --    0.15480   0.15720   0.15898   0.16005   0.16026
 Alpha virt. eigenvalues --    0.16029   0.16207   0.16529   0.16537   0.16559
 Alpha virt. eigenvalues --    0.16610   0.16638   0.16710   0.16714   0.16785
 Alpha virt. eigenvalues --    0.16908   0.17001   0.17097   0.17143   0.17169
 Alpha virt. eigenvalues --    0.17268   0.17460   0.17465   0.17685   0.17732
 Alpha virt. eigenvalues --    0.17807   0.17823   0.17922   0.17930   0.17988
 Alpha virt. eigenvalues --    0.18077   0.18276   0.18324   0.18437   0.18470
 Alpha virt. eigenvalues --    0.18527   0.18532   0.18571   0.18627   0.18764
 Alpha virt. eigenvalues --    0.18877   0.18909   0.18950   0.19062   0.19447
 Alpha virt. eigenvalues --    0.19534   0.19790   0.19822   0.19982   0.20022
 Alpha virt. eigenvalues --    0.20225   0.20382   0.20404   0.20612   0.20636
 Alpha virt. eigenvalues --    0.20715   0.20757   0.20857   0.20865   0.20899
 Alpha virt. eigenvalues --    0.20938   0.21037   0.21105   0.21117   0.21169
 Alpha virt. eigenvalues --    0.21180   0.21227   0.21239   0.21507   0.21523
 Alpha virt. eigenvalues --    0.21536   0.21637   0.21665   0.21722   0.21910
 Alpha virt. eigenvalues --    0.21928   0.21998   0.22052   0.22153   0.22231
 Alpha virt. eigenvalues --    0.22263   0.22289   0.22476   0.22482   0.22693
 Alpha virt. eigenvalues --    0.22742   0.22927   0.23035   0.23128   0.23349
 Alpha virt. eigenvalues --    0.23468   0.23582   0.23871   0.23939   0.23982
 Alpha virt. eigenvalues --    0.23993   0.24224   0.24270   0.24343   0.24609
 Alpha virt. eigenvalues --    0.24623   0.24893   0.24947   0.25004   0.25142
 Alpha virt. eigenvalues --    0.25150   0.25414   0.25481   0.25519   0.26634
 Alpha virt. eigenvalues --    0.26637   0.26651   0.26835   0.27018   0.27037
 Alpha virt. eigenvalues --    0.27068   0.27079   0.27232   0.27752   0.27844
 Alpha virt. eigenvalues --    0.28018   0.28141   0.28150   0.28174   0.28190
 Alpha virt. eigenvalues --    0.28785   0.28964   0.29263   0.30221   0.30893
 Alpha virt. eigenvalues --    0.30895   0.33122   0.33218   0.34125
          Condensed to atoms (all electrons):
 Mulliken charges:
               1
     1  O   -0.513267
     2  O   -0.658394
     3  Zn   0.363874
     4  O   -0.513275
     5  O   -0.657124
     6  Zn   0.364688
     7  O   -0.513438
     8  O   -0.654320
     9  Zn   0.365976
    10  O   -0.513561
    11  O   -0.651891
    12  Zn   0.366322
    13  O   -0.513592
    14  O   -0.650515
    15  Zn   0.366189
    16  O   -0.513587
    17  O   -0.650024
    18  Zn   0.366073
    19  O   -0.513584
    20  O   -0.650344
    21  Zn   0.366150
    22  O   -0.513585
    23  O   -0.651578
    24  Zn   0.366304
    25  O   -0.513553
    26  O   -0.653968
    27  Zn   0.366086
    28  O   -0.513428
    29  O   -0.656911
    30  Zn   0.364900
    31  O   -0.437225
    32  Zn   0.420922
    33  O   -0.459826
    34  Zn   0.372057
    35  O   -0.437017
    36  Zn   0.420169
    37  O   -0.419958
    38  Zn   0.374007
    39  O   -0.428236
    40  Zn   0.425268
    41  O   -0.392411
    42  Zn   0.369014
    43  O   -0.418947
    44  Zn   0.426895
    45  O   -0.379133
    46  Zn   0.365952
    47  O   -0.414304
    48  Zn   0.427062
    49  O   -0.376066
    50  Zn   0.365056
    51  O   -0.412506
    52  Zn   0.426925
    53  O   -0.375104
    54  Zn   0.364780
    55  O   -0.412384
    56  Zn   0.426943
    57  O   -0.375639
    58  Zn   0.365065
    59  O   -0.413903
    60  Zn   0.427156
    61  O   -0.378303
    62  Zn   0.366040
    63  O   -0.418205
    64  Zn   0.427231
    65  O   -0.390500
    66  Zn   0.369212
    67  O   -0.427818
    68  Zn   0.426021
    69  O   -0.420549
    70  Zn   0.375688
    71  O   -0.580156
    72  Zn   0.360299
    73  O   -0.698640
    74  O   -0.504234
    75  Zn   0.339743
    76  O   -0.429051
    77  Zn   0.139338
    78  O   -0.362833
    79  Zn   0.357248
    80  O   -0.371970
    81  Zn   0.376380
    82  O   -0.382539
    83  Zn   0.358887
    84  O   -0.379270
    85  Zn   0.359076
    86  O   -0.374783
    87  Zn   0.360210
    88  O   -0.381984
    89  Zn   0.364542
    90  O   -0.375979
    91  Zn   0.360935
    92  O   -0.382506
    93  Zn   0.365036
    94  O   -0.375769
    95  Zn   0.360999
    96  O   -0.381841
    97  Zn   0.364642
    98  O   -0.374574
    99  Zn   0.360189
   100  O   -0.379661
   101  Zn   0.361028
   102  O   -0.378848
   103  Zn   0.359629
   104  O   -0.368289
   105  Zn   0.368743
   106  O   -0.363668
   107  Zn   0.356051
   108  O   -0.462030
   109  Zn   0.207021
   110  O   -0.388245
   111  Zn   0.404313
   112  O   -0.463867
   113  Zn   0.387174
   114  O   -0.386281
   115  Zn   0.408560
   116  O   -0.461443
   117  Zn   0.383590
   118  O   -0.370424
   119  Zn   0.376948
   120  O   -0.458130
   121  Zn   0.378396
   122  O   -0.365297
   123  Zn   0.357087
   124  O   -0.457077
   125  Zn   0.376588
   126  O   -0.366224
   127  Zn   0.361383
   128  O   -0.457027
   129  Zn   0.376103
   130  O   -0.366974
   131  Zn   0.361740
   132  O   -0.457081
   133  Zn   0.376122
   134  O   -0.367016
   135  Zn   0.361892
   136  O   -0.457091
   137  Zn   0.376264
   138  O   -0.366398
   139  Zn   0.361809
   140  O   -0.457262
   141  Zn   0.376973
   142  O   -0.365861
   143  Zn   0.358353
   144  O   -0.458470
   145  Zn   0.378621
   146  O   -0.370939
   147  Zn   0.378811
   148  O   -0.462048
   149  Zn   0.383931
   150  O   -0.283496
   151  Zn   0.442102
   152  Zn  -0.258814
   153  O   -0.283484
   154  Zn   0.442081
   155  Zn  -0.258299
   156  O   -0.283447
   157  Zn   0.441313
   158  Zn  -0.257787
   159  O   -0.283522
   160  Zn   0.440129
   161  Zn  -0.257729
   162  O   -0.283705
   163  Zn   0.439361
   164  Zn  -0.257850
   165  O   -0.283824
   166  Zn   0.439035
   167  Zn  -0.257912
   168  O   -0.283818
   169  Zn   0.439077
   170  Zn  -0.257849
   171  O   -0.283693
   172  Zn   0.439475
   173  Zn  -0.257746
   174  O   -0.283514
   175  Zn   0.440280
   176  Zn  -0.257861
   177  O   -0.283474
   178  Zn   0.441462
   179  Zn  -0.258428
   180  H    0.302512
   181  H    0.302560
   182  H    0.302429
   183  H    0.302250
   184  H    0.302171
   185  H    0.302240
   186  H    0.302422
   187  H    0.302582
   188  H    0.302558
   189  H    0.302470
   190  H    0.394475
   191  H    0.308571
   192  H    0.394201
   193  H    0.308713
   194  H    0.394156
   195  H    0.308714
   196  H    0.394341
   197  H    0.308576
   198  H    0.394750
   199  H    0.308254
   200  H    0.395282
   201  H    0.307749
   202  H    0.307287
   203  H    0.395722
   204  H    0.395832
   205  H    0.307289
   206  H    0.395507
   207  H    0.307749
   208  H    0.394959
   209  H    0.308249
   210  Pt   1.379185
   211  C    0.682770
   212  O   -0.237513
 Sum of Mulliken charges =   0.00000
 Mulliken charges with hydrogens summed into heavy atoms:
               1
     1  O    0.189742
     2  O   -0.658394
     3  Zn   0.363874
     4  O    0.189846
     5  O   -0.657124
     6  Zn   0.364688
     7  O    0.189818
     8  O   -0.654320
     9  Zn   0.365976
    10  O    0.189646
    11  O   -0.651891
    12  Zn   0.366322
    13  O    0.189455
    14  O   -0.650515
    15  Zn   0.366189
    16  O    0.189327
    17  O   -0.650024
    18  Zn   0.366073
    19  O    0.189286
    20  O   -0.650344
    21  Zn   0.366150
    22  O    0.189332
    23  O   -0.651578
    24  Zn   0.366304
    25  O    0.189451
    26  O   -0.653968
    27  Zn   0.366086
    28  O    0.189603
    29  O   -0.656911
    30  Zn   0.364900
    31  O   -0.437225
    32  Zn   0.420922
    33  O   -0.459826
    34  Zn   0.372057
    35  O   -0.437017
    36  Zn   0.420169
    37  O   -0.419958
    38  Zn   0.374007
    39  O   -0.428236
    40  Zn   0.425268
    41  O   -0.392411
    42  Zn   0.369014
    43  O   -0.418947
    44  Zn   0.426895
    45  O   -0.379133
    46  Zn   0.365952
    47  O   -0.414304
    48  Zn   0.427062
    49  O   -0.376066
    50  Zn   0.365056
    51  O   -0.412506
    52  Zn   0.426925
    53  O   -0.375104
    54  Zn   0.364780
    55  O   -0.412384
    56  Zn   0.426943
    57  O   -0.375639
    58  Zn   0.365065
    59  O   -0.413903
    60  Zn   0.427156
    61  O   -0.378303
    62  Zn   0.366040
    63  O   -0.418205
    64  Zn   0.427231
    65  O   -0.390500
    66  Zn   0.369212
    67  O   -0.427818
    68  Zn   0.426021
    69  O   -0.420549
    70  Zn   0.375688
    71  O   -0.580156
    72  Zn   0.360299
    73  O   -0.698640
    74  O   -0.504234
    75  Zn   0.339743
    76  O   -0.429051
    77  Zn   0.139338
    78  O   -0.362833
    79  Zn   0.357248
    80  O   -0.371970
    81  Zn   0.376380
    82  O   -0.382539
    83  Zn   0.358887
    84  O   -0.379270
    85  Zn   0.359076
    86  O   -0.374783
    87  Zn   0.360210
    88  O   -0.381984
    89  Zn   0.364542
    90  O   -0.375979
    91  Zn   0.360935
    92  O   -0.382506
    93  Zn   0.365036
    94  O   -0.375769
    95  Zn   0.360999
    96  O   -0.381841
    97  Zn   0.364642
    98  O   -0.374574
    99  Zn   0.360189
   100  O   -0.379661
   101  Zn   0.361028
   102  O   -0.378848
   103  Zn   0.359629
   104  O   -0.368289
   105  Zn   0.368743
   106  O   -0.363668
   107  Zn   0.356051
   108  O   -0.462030
   109  Zn   0.207021
   110  O   -0.388245
   111  Zn   0.404313
   112  O   -0.463867
   113  Zn   0.387174
   114  O   -0.386281
   115  Zn   0.408560
   116  O   -0.461443
   117  Zn   0.383590
   118  O   -0.370424
   119  Zn   0.376948
   120  O   -0.458130
   121  Zn   0.378396
   122  O   -0.365297
   123  Zn   0.357087
   124  O   -0.457077
   125  Zn   0.376588
   126  O   -0.366224
   127  Zn   0.361383
   128  O   -0.457027
   129  Zn   0.376103
   130  O   -0.366974
   131  Zn   0.361740
   132  O   -0.457081
   133  Zn   0.376122
   134  O   -0.367016
   135  Zn   0.361892
   136  O   -0.457091
   137  Zn   0.376264
   138  O   -0.366398
   139  Zn   0.361809
   140  O   -0.457262
   141  Zn   0.376973
   142  O   -0.365861
   143  Zn   0.358353
   144  O   -0.458470
   145  Zn   0.378621
   146  O   -0.370939
   147  Zn   0.378811
   148  O   -0.462048
   149  Zn   0.383931
   150  O   -0.283496
   151  Zn   0.442102
   152  Zn   0.043655
   153  O   -0.283484
   154  Zn   0.442081
   155  Zn   0.044260
   156  O   -0.283447
   157  Zn   0.441313
   158  Zn   0.044796
   159  O   -0.283522
   160  Zn   0.440129
   161  Zn   0.044693
   162  O   -0.283705
   163  Zn   0.439361
   164  Zn   0.044389
   165  O   -0.283824
   166  Zn   0.439035
   167  Zn   0.044259
   168  O   -0.283818
   169  Zn   0.439077
   170  Zn   0.044401
   171  O   -0.283693
   172  Zn   0.439475
   173  Zn   0.044683
   174  O   -0.283514
   175  Zn   0.440280
   176  Zn   0.044699
   177  O   -0.283474
   178  Zn   0.441462
   179  Zn   0.044084
   210  Pt   1.379185
   211  C    0.682770
   212  O   -0.237513
         Mulliken charges condensed to fragments:
      1     11.879013
      2    -11.879013
 Charge=              0.0000 electrons
 Dipole moment (field-independent basis, Debye):
    X=           -124.8304    Y=             -9.4812    Z=              0.7226  Tot=            125.1920
 N-N= 1.807522007236D+04 E-N=-3.501055300978D+04  KE=-6.590472052068D+02
  Exact polarizability:6520.306  51.4782450.069-102.385 -52.4292868.611
 Approx polarizability:4776.928  61.7062676.016 -41.135 -33.7663065.479
 Calling FoFJK, ICntrl=    100127 FMM=F ISym2X=0 I1Cent= 0 IOpClX= 0 NMat=1 NMatS=1 NMatT=0.
  209 atoms frozen in the vibrational analysis.
 ******    4 imaginary frequencies (negative Signs) ****** 
 Diagonal vibrational polarizability:
       26.6116713      14.1292476      11.1160201
 Harmonic frequencies (cm**-1), IR intensities (KM/Mole), Raman scattering
 activities (A**4/AMU), depolarization ratios for plane and unpolarized
 incident light, reduced masses (AMU), force constants (mDyne/A),
 and normal coordinates:
                      1                      2                      3
                      A                      A                      A
 Frequencies --   -400.5980              -321.0884              -204.2728
 Red. masses --     16.8072                15.9505                12.3326
 Frc consts  --      1.5891                 0.9689                 0.3032
 IR Inten    --      8.8105                 6.9220                 2.9433
  Atom  AN      X      Y      Z        X      Y      Z        X      Y      Z
   210  78    -0.02  -0.04  -0.06    -0.04  -0.03   0.01    -0.02  -0.02  -0.03
   211   6    -0.06   0.16  -0.17    -0.34  -0.11   0.10     0.50   0.11   0.85
   212   8     0.17   0.23   0.92     0.91   0.03  -0.19     0.07   0.04   0.07
                      4                      5                      6
                      A                      A                      A
 Frequencies --   -199.9109               105.0693               222.6714
 Red. masses --     12.5838                67.2055               102.0950
 Frc consts  --      0.2963                 0.4371                 2.9825
 IR Inten    --      3.9983                 3.7816                24.1163
  Atom  AN      X      Y      Z        X      Y      Z        X      Y      Z
   210  78    -0.04  -0.02   0.01     0.01   0.54   0.04     0.20  -0.05   0.67
   211   6     0.82   0.05  -0.51     0.10   0.53   0.04     0.12  -0.11   0.28
   212   8     0.23  -0.02  -0.08     0.30   0.56   0.07     0.18  -0.10   0.61
                      7                      8                      9
                      A                      A                      A
 Frequencies --    260.1015               742.2627              1980.5515
 Red. masses --    125.9028                15.4193                13.7493
 Frc consts  --      5.0185                 5.0053                31.7762
 IR Inten    --     32.4191                33.5994              1040.3481
  Atom  AN      X      Y      Z        X      Y      Z        X      Y      Z
   210  78     0.75  -0.03  -0.23     0.01  -0.09   0.03     0.00  -0.01   0.00
   211   6     0.32   0.01  -0.12    -0.10   0.74  -0.05     0.10  -0.75   0.01
   212   8     0.51   0.03  -0.10    -0.07   0.60  -0.27    -0.08   0.65  -0.04

 -------------------
 - Thermochemistry -
 -------------------
 Temperature   298.150 Kelvin.  Pressure   1.00000 Atm.
 Atom     1 has atomic number  8 and mass  15.99491
 Atom     2 has atomic number  8 and mass  15.99491
 Atom     3 has atomic number 30 and mass  63.92915
 Atom     4 has atomic number  8 and mass  15.99491
 Atom     5 has atomic number  8 and mass  15.99491
 Atom     6 has atomic number 30 and mass  63.92915
 Atom     7 has atomic number  8 and mass  15.99491
 Atom     8 has atomic number  8 and mass  15.99491
 Atom     9 has atomic number 30 and mass  63.92915
 Atom    10 has atomic number  8 and mass  15.99491
 Atom    11 has atomic number  8 and mass  15.99491
 Atom    12 has atomic number 30 and mass  63.92915
 Atom    13 has atomic number  8 and mass  15.99491
 Atom    14 has atomic number  8 and mass  15.99491
 Atom    15 has atomic number 30 and mass  63.92915
 Atom    16 has atomic number  8 and mass  15.99491
 Atom    17 has atomic number  8 and mass  15.99491
 Atom    18 has atomic number 30 and mass  63.92915
 Atom    19 has atomic number  8 and mass  15.99491
 Atom    20 has atomic number  8 and mass  15.99491
 Atom    21 has atomic number 30 and mass  63.92915
 Atom    22 has atomic number  8 and mass  15.99491
 Atom    23 has atomic number  8 and mass  15.99491
 Atom    24 has atomic number 30 and mass  63.92915
 Atom    25 has atomic number  8 and mass  15.99491
 Atom    26 has atomic number  8 and mass  15.99491
 Atom    27 has atomic number 30 and mass  63.92915
 Atom    28 has atomic number  8 and mass  15.99491
 Atom    29 has atomic number  8 and mass  15.99491
 Atom    30 has atomic number 30 and mass  63.92915
 Atom    31 has atomic number  8 and mass  15.99491
 Atom    32 has atomic number 30 and mass  63.92915
 Atom    33 has atomic number  8 and mass  15.99491
 Atom    34 has atomic number 30 and mass  63.92915
 Atom    35 has atomic number  8 and mass  15.99491
 Atom    36 has atomic number 30 and mass  63.92915
 Atom    37 has atomic number  8 and mass  15.99491
 Atom    38 has atomic number 30 and mass  63.92915
 Atom    39 has atomic number  8 and mass  15.99491
 Atom    40 has atomic number 30 and mass  63.92915
 Atom    41 has atomic number  8 and mass  15.99491
 Atom    42 has atomic number 30 and mass  63.92915
 Atom    43 has atomic number  8 and mass  15.99491
 Atom    44 has atomic number 30 and mass  63.92915
 Atom    45 has atomic number  8 and mass  15.99491
 Atom    46 has atomic number 30 and mass  63.92915
 Atom    47 has atomic number  8 and mass  15.99491
 Atom    48 has atomic number 30 and mass  63.92915
 Atom    49 has atomic number  8 and mass  15.99491
 Atom    50 has atomic number 30 and mass  63.92915
 Atom    51 has atomic number  8 and mass  15.99491
 Atom    52 has atomic number 30 and mass  63.92915
 Atom    53 has atomic number  8 and mass  15.99491
 Atom    54 has atomic number 30 and mass  63.92915
 Atom    55 has atomic number  8 and mass  15.99491
 Atom    56 has atomic number 30 and mass  63.92915
 Atom    57 has atomic number  8 and mass  15.99491
 Atom    58 has atomic number 30 and mass  63.92915
 Atom    59 has atomic number  8 and mass  15.99491
 Atom    60 has atomic number 30 and mass  63.92915
 Atom    61 has atomic number  8 and mass  15.99491
 Atom    62 has atomic number 30 and mass  63.92915
 Atom    63 has atomic number  8 and mass  15.99491
 Atom    64 has atomic number 30 and mass  63.92915
 Atom    65 has atomic number  8 and mass  15.99491
 Atom    66 has atomic number 30 and mass  63.92915
 Atom    67 has atomic number  8 and mass  15.99491
 Atom    68 has atomic number 30 and mass  63.92915
 Atom    69 has atomic number  8 and mass  15.99491
 Atom    70 has atomic number 30 and mass  63.92915
 Atom    71 has atomic number  8 and mass  15.99491
 Atom    72 has atomic number 30 and mass  63.92915
 Atom    73 has atomic number  8 and mass  15.99491
 Atom    74 has atomic number  8 and mass  15.99491
 Atom    75 has atomic number 30 and mass  63.92915
 Atom    76 has atomic number  8 and mass  15.99491
 Atom    77 has atomic number 30 and mass  63.92915
 Atom    78 has atomic number  8 and mass  15.99491
 Atom    79 has atomic number 30 and mass  63.92915
 Atom    80 has atomic number  8 and mass  15.99491
 Atom    81 has atomic number 30 and mass  63.92915
 Atom    82 has atomic number  8 and mass  15.99491
 Atom    83 has atomic number 30 and mass  63.92915
 Atom    84 has atomic number  8 and mass  15.99491
 Atom    85 has atomic number 30 and mass  63.92915
 Atom    86 has atomic number  8 and mass  15.99491
 Atom    87 has atomic number 30 and mass  63.92915
 Atom    88 has atomic number  8 and mass  15.99491
 Atom    89 has atomic number 30 and mass  63.92915
 Atom    90 has atomic number  8 and mass  15.99491
 Atom    91 has atomic number 30 and mass  63.92915
 Atom    92 has atomic number  8 and mass  15.99491
 Atom    93 has atomic number 30 and mass  63.92915
 Atom    94 has atomic number  8 and mass  15.99491
 Atom    95 has atomic number 30 and mass  63.92915
 Atom    96 has atomic number  8 and mass  15.99491
 Atom    97 has atomic number 30 and mass  63.92915
 Atom    98 has atomic number  8 and mass  15.99491
 Atom    99 has atomic number 30 and mass  63.92915
 Atom   100 has atomic number  8 and mass  15.99491
 Atom   101 has atomic number 30 and mass  63.92915
 Atom   102 has atomic number  8 and mass  15.99491
 Atom   103 has atomic number 30 and mass  63.92915
 Atom   104 has atomic number  8 and mass  15.99491
 Atom   105 has atomic number 30 and mass  63.92915
 Atom   106 has atomic number  8 and mass  15.99491
 Atom   107 has atomic number 30 and mass  63.92915
 Atom   108 has atomic number  8 and mass  15.99491
 Atom   109 has atomic number 30 and mass  63.92915
 Atom   110 has atomic number  8 and mass  15.99491
 Atom   111 has atomic number 30 and mass  63.92915
 Atom   112 has atomic number  8 and mass  15.99491
 Atom   113 has atomic number 30 and mass  63.92915
 Atom   114 has atomic number  8 and mass  15.99491
 Atom   115 has atomic number 30 and mass  63.92915
 Atom   116 has atomic number  8 and mass  15.99491
 Atom   117 has atomic number 30 and mass  63.92915
 Atom   118 has atomic number  8 and mass  15.99491
 Atom   119 has atomic number 30 and mass  63.92915
 Atom   120 has atomic number  8 and mass  15.99491
 Atom   121 has atomic number 30 and mass  63.92915
 Atom   122 has atomic number  8 and mass  15.99491
 Atom   123 has atomic number 30 and mass  63.92915
 Atom   124 has atomic number  8 and mass  15.99491
 Atom   125 has atomic number 30 and mass  63.92915
 Atom   126 has atomic number  8 and mass  15.99491
 Atom   127 has atomic number 30 and mass  63.92915
 Atom   128 has atomic number  8 and mass  15.99491
 Atom   129 has atomic number 30 and mass  63.92915
 Atom   130 has atomic number  8 and mass  15.99491
 Atom   131 has atomic number 30 and mass  63.92915
 Atom   132 has atomic number  8 and mass  15.99491
 Atom   133 has atomic number 30 and mass  63.92915
 Atom   134 has atomic number  8 and mass  15.99491
 Atom   135 has atomic number 30 and mass  63.92915
 Atom   136 has atomic number  8 and mass  15.99491
 Atom   137 has atomic number 30 and mass  63.92915
 Atom   138 has atomic number  8 and mass  15.99491
 Atom   139 has atomic number 30 and mass  63.92915
 Atom   140 has atomic number  8 and mass  15.99491
 Atom   141 has atomic number 30 and mass  63.92915
 Atom   142 has atomic number  8 and mass  15.99491
 Atom   143 has atomic number 30 and mass  63.92915
 Atom   144 has atomic number  8 and mass  15.99491
 Atom   145 has atomic number 30 and mass  63.92915
 Atom   146 has atomic number  8 and mass  15.99491
 Atom   147 has atomic number 30 and mass  63.92915
 Atom   148 has atomic number  8 and mass  15.99491
 Atom   149 has atomic number 30 and mass  63.92915
 Atom   150 has atomic number  8 and mass  15.99491
 Atom   151 has atomic number 30 and mass  63.92915
 Atom   152 has atomic number 30 and mass  63.92915
 Atom   153 has atomic number  8 and mass  15.99491
 Atom   154 has atomic number 30 and mass  63.92915
 Atom   155 has atomic number 30 and mass  63.92915
 Atom   156 has atomic number  8 and mass  15.99491
 Atom   157 has atomic number 30 and mass  63.92915
 Atom   158 has atomic number 30 and mass  63.92915
 Atom   159 has atomic number  8 and mass  15.99491
 Atom   160 has atomic number 30 and mass  63.92915
 Atom   161 has atomic number 30 and mass  63.92915
 Atom   162 has atomic number  8 and mass  15.99491
 Atom   163 has atomic number 30 and mass  63.92915
 Atom   164 has atomic number 30 and mass  63.92915
 Atom   165 has atomic number  8 and mass  15.99491
 Atom   166 has atomic number 30 and mass  63.92915
 Atom   167 has atomic number 30 and mass  63.92915
 Atom   168 has atomic number  8 and mass  15.99491
 Atom   169 has atomic number 30 and mass  63.92915
 Atom   170 has atomic number 30 and mass  63.92915
 Atom   171 has atomic number  8 and mass  15.99491
 Atom   172 has atomic number 30 and mass  63.92915
 Atom   173 has atomic number 30 and mass  63.92915
 Atom   174 has atomic number  8 and mass  15.99491
 Atom   175 has atomic number 30 and mass  63.92915
 Atom   176 has atomic number 30 and mass  63.92915
 Atom   177 has atomic number  8 and mass  15.99491
 Atom   178 has atomic number 30 and mass  63.92915
 Atom   179 has atomic number 30 and mass  63.92915
 Atom   180 has atomic number  1 and mass   1.00783
 Atom   181 has atomic number  1 and mass   1.00783
 Atom   182 has atomic number  1 and mass   1.00783
 Atom   183 has atomic number  1 and mass   1.00783
 Atom   184 has atomic number  1 and mass   1.00783
 Atom   185 has atomic number  1 and mass   1.00783
 Atom   186 has atomic number  1 and mass   1.00783
 Atom   187 has atomic number  1 and mass   1.00783
 Atom   188 has atomic number  1 and mass   1.00783
 Atom   189 has atomic number  1 and mass   1.00783
 Atom   190 has atomic number  1 and mass   1.00783
 Atom   191 has atomic number  1 and mass   1.00783
 Atom   192 has atomic number  1 and mass   1.00783
 Atom   193 has atomic number  1 and mass   1.00783
 Atom   194 has atomic number  1 and mass   1.00783
 Atom   195 has atomic number  1 and mass   1.00783
 Atom   196 has atomic number  1 and mass   1.00783
 Atom   197 has atomic number  1 and mass   1.00783
 Atom   198 has atomic number  1 and mass   1.00783
 Atom   199 has atomic number  1 and mass   1.00783
 Atom   200 has atomic number  1 and mass   1.00783
 Atom   201 has atomic number  1 and mass   1.00783
 Atom   202 has atomic number  1 and mass   1.00783
 Atom   203 has atomic number  1 and mass   1.00783
 Atom   204 has atomic number  1 and mass   1.00783
 Atom   205 has atomic number  1 and mass   1.00783
 Atom   206 has atomic number  1 and mass   1.00783
 Atom   207 has atomic number  1 and mass   1.00783
 Atom   208 has atomic number  1 and mass   1.00783
 Atom   209 has atomic number  1 and mass   1.00783
 Atom   210 has atomic number 78 and mass 194.96480
 Atom   211 has atomic number  6 and mass  12.00000
 Atom   212 has atomic number  8 and mass  15.99491
 Molecular mass:  7382.43072 amu.
 Principal axes and moments of inertia in atomic units:
                           1         2         3
     Eigenvalues --  ******************************
           X            1.00000   0.00002   0.00000
           Y           -0.00002   0.99998  -0.00565
           Z            0.00000   0.00565   0.99998
 This molecule is an asymmetric top.
 Rotational symmetry number  1.
 Warning -- assumption of classical behavior for rotation
           may cause significant error
 Rotational temperatures (Kelvin)      0.00021     0.00004     0.00004
 Rotational constants (GHZ):           0.00430     0.00092     0.00091
    4 imaginary frequencies ignored.
 Zero-point vibrational energy      19802.1 (Joules/Mol)
                                    4.73282 (Kcal/Mol)
 Warning -- explicit consideration of   3 degrees of freedom as
           vibrations may cause significant error
 Vibrational temperatures:    151.17   320.37   374.23  1067.95  2849.57
          (Kelvin)
 
 Zero-point correction=                           0.007542 (Hartree/Particle)
 Thermal correction to Energy=                    0.012196
 Thermal correction to Enthalpy=                  0.013140
 Thermal correction to Gibbs Free Energy=        -0.038759
 Sum of electronic and zero-point Energies=            -10.035604
 Sum of electronic and thermal Energies=               -10.030951
 Sum of electronic and thermal Enthalpies=             -10.030007
 Sum of electronic and thermal Free Energies=          -10.081905
 
                     E (Thermal)             CV                S
                      KCal/Mol        Cal/Mol-Kelvin    Cal/Mol-Kelvin
 Total                    7.653             12.222            109.230
 Electronic               0.000              0.000              0.000
 Translational            0.889              2.981             52.541
 Rotational               0.889              2.981             49.472
 Vibrational              5.875              6.261              7.218
 Vibration     1          0.605              1.945              3.358
 Vibration     2          0.648              1.807              1.937
 Vibration     3          0.668              1.746              1.661
                       Q            Log10(Q)             Ln(Q)
[...]
 .,0.,0.,0.,0.,0.,0.,0.,0.,0.,0.,0.,0.,0.,0.,0.,0.,0.,0.,0.,0.,0.,0.,0.
 ,0.,0.,0.,0.,0.,0.,0.,0.,0.,0.,0.,0.,0.,0.,0.,0.,0.,0.,0.,0.,0.,0.,0.,
 0.,0.,0.,0.,0.,0.,0.,0.,0.,0.,0.,0.,0.,0.,0.,0.,0.,0.,0.,0.,0.,0.,0.,0
 .,0.,0.,0.,0.,0.,0.,0.,0.,0.,0.,0.,0.,0.,0.,0.,0.,0.,0.,0.,0.,0.,0.,0.
 ,0.,0.,0.,0.,0.,0.,0.,0.,0.,0.,0.,0.,0.,0.,0.,0.,0.,0.,0.,0.,0.,0.,0.,
 0.,0.,0.,0.,0.,0.,0.,0.,0.,0.,0.,0.,0.,0.,0.,0.,0.,0.,0.,0.,0.,0.,0.,0
 .,0.,0.,0.,0.,0.,0.,0.,0.,0.,0.,0.,0.,0.,0.,0.,0.,0.,0.,0.,0.,0.,0.,0.
 ,0.,0.,0.,0.,0.,0.,0.,0.,0.,0.,0.,0.,0.,0.,0.,0.,0.,0.,0.,0.,0.,0.,0.,
 0.,0.,0.,0.,0.,0.,0.,0.,0.,0.,0.,0.,0.,0.,0.,0.,0.,0.,0.,0.,0.,0.,0.,0
 .,0.,0.,0.,0.,0.,0.,0.,0.,0.,0.,0.,0.,0.,0.,0.,0.,0.,0.,0.,0.,0.,0.,0.
 ,0.,0.,0.,0.,0.,0.,0.,0.,0.,0.,0.,0.,0.,0.,0.,0.,0.,0.,0.,0.,0.,0.,0.,
 0.,0.,0.,0.,0.,0.,0.,0.,0.,0.,0.,0.,0.,0.,0.,0.,0.,0.,0.,0.,0.,0.,0.,0
 .,0.,0.,0.,0.,0.,0.,0.,0.,0.,0.,0.,0.,0.,0.,0.,0.,0.,0.,0.,0.,0.,0.,0.
 ,0.,0.,0.,0.,0.,0.,0.,0.,0.,0.,0.,0.,0.,0.,0.,0.,0.,0.,0.,0.,0.,0.,0.,
 0.,0.,0.,0.,0.,0.,0.,0.,0.,0.,0.,0.,0.,0.,0.,0.,0.,0.,0.,0.,0.,0.,0.,0
 .,0.,0.,0.,0.,0.,0.,0.,0.,0.,0.,0.,0.,0.,0.,0.,0.,0.,0.,0.,0.,0.,0.,0.
 ,0.,0.,0.,0.,0.,0.,0.,0.,0.,0.,0.,0.,0.,0.,0.,0.,0.,0.,0.,0.,0.,0.,0.,
 0.,0.,0.,0.,0.,0.,0.,0.,0.,0.,0.,0.,0.,0.,0.,0.,0.,0.,0.,0.,0.,0.,0.,0
 .,0.,0.,0.,0.,0.,0.,0.,0.,0.,0.,0.,0.,0.,0.,0.,0.,0.,0.,0.,0.,0.,0.,0.
 ,0.,0.,0.,0.,0.,0.,0.,0.,0.,0.,0.,0.,0.,0.,0.,0.,0.,0.,0.,0.,0.,0.,0.,
 0.,0.,0.,0.,0.,0.,0.,0.,0.,0.,0.,0.,0.,0.,0.,0.,0.,0.,0.,0.,0.,0.,0.,0
 .,0.,0.,0.,0.,0.43579072,0.,0.,0.,0.,0.,0.,0.,0.,0.,0.,0.,0.,0.,0.,0.,
 0.,0.,0.,0.,0.,0.,0.,0.,0.,0.,0.,0.,0.,0.,0.,0.,0.,0.,0.,0.,0.,0.,0.,0
 .,0.,0.,0.,0.,0.,0.,0.,0.,0.,0.,0.,0.,0.,0.,0.,0.,0.,0.,0.,0.,0.,0.,0.
 ,0.,0.,0.,0.,0.,0.,0.,0.,0.,0.,0.,0.,0.,0.,0.,0.,0.,0.,0.,0.,0.,0.,0.,
 0.,0.,0.,0.,0.,0.,0.,0.,0.,0.,0.,0.,0.,0.,0.,0.,0.,0.,0.,0.,0.,0.,0.,0
 .,0.,0.,0.,0.,0.,0.,0.,0.,0.,0.,0.,0.,0.,0.,0.,0.,0.,0.,0.,0.,0.,0.,0.
 ,0.,0.,0.,0.,0.,0.,0.,0.,0.,0.,0.,0.,0.,0.,0.,0.,0.,0.,0.,0.,0.,0.,0.,
 0.,0.,0.,0.,0.,0.,0.,0.,0.,0.,0.,0.,0.,0.,0.,0.,0.,0.,0.,0.,0.,0.,0.,0
 .,0.,0.,0.,0.,0.,0.,0.,0.,0.,0.,0.,0.,0.,0.,0.,0.,0.,0.,0.,0.,0.,0.,0.
 ,0.,0.,0.,0.,0.,0.,0.,0.,0.,0.,0.,0.,0.,0.,0.,0.,0.,0.,0.,0.,0.,0.,0.,
 0.,0.,0.,0.,0.,0.,0.,0.,0.,0.,0.,0.,0.,0.,0.,0.,0.,0.,0.,0.,0.,0.,0.,0
 .,0.,0.,0.,0.,0.,0.,0.,0.,0.,0.,0.,0.,0.,0.,0.,0.,0.,0.,0.,0.,0.,0.,0.
 ,0.,0.,0.,0.,0.,0.,0.,0.,0.,0.,0.,0.,0.,0.,0.,0.,0.,0.,0.,0.,0.,0.,0.,
 0.,0.,0.,0.,0.,0.,0.,0.,0.,0.,0.,0.,0.,0.,0.,0.,0.,0.,0.,0.,0.,0.,0.,0
 .,0.,0.,0.,0.,0.,0.,0.,0.,0.,0.,0.,0.,0.,0.,0.,0.,0.,0.,0.,0.,0.,0.,0.
 ,0.,0.,0.,0.,0.,0.,0.,0.,0.,0.,0.,0.,0.,0.,0.,0.,0.,0.,0.,0.,0.,0.,0.,
 0.,0.,0.,0.,0.,0.,0.,0.,0.,0.,0.,0.,0.,0.,0.,0.,0.,0.,0.,0.,0.,0.,0.,0
 .,0.,0.,0.,0.,0.,0.,0.,0.,0.,0.,0.,0.,0.,0.,0.,0.,0.,0.,0.,0.,0.,0.,0.
 ,0.,0.,0.,0.,0.,0.,0.,0.,0.,0.,0.,0.,0.,0.,0.,0.,0.,0.,0.,0.,0.,0.,0.,
 0.,0.,0.,0.,0.,0.,0.,0.,0.,0.,0.,0.,0.,0.,0.,0.,0.,0.,0.,0.,0.,0.,0.,0
 .,0.,0.,0.,0.,0.,0.,0.,0.,0.,0.,0.,0.,0.,0.,0.,0.,0.,0.,0.,0.,0.,0.,0.
 ,0.,0.,0.,0.,0.,0.,0.,0.,0.,0.,0.,0.,0.,0.,0.,0.,0.,0.,0.,0.,0.,0.,0.,
 0.,0.,0.,0.,0.,0.,0.,0.,0.,0.,0.,0.,0.,0.,0.,0.,0.,0.,0.,0.,0.,0.,0.,0
 .,0.,0.,0.,0.,0.,0.,0.,0.,0.,0.,0.,0.,0.,0.,0.,0.,0.,0.,0.,0.,0.,0.,0.
 ,0.,0.,0.,0.,0.,0.,0.,0.,0.,0.,0.,0.,0.,0.,0.,0.,0.,0.,0.,0.,0.,0.,0.,
 0.,0.,0.,0.,0.,0.,0.,0.,0.,0.,0.,0.,0.,0.,0.,0.,0.,0.,0.,0.,0.,0.,0.,0
 .,0.,0.,0.,0.,0.,0.,0.,0.,0.,0.,0.,0.,0.,0.,0.,0.,0.,0.,0.,0.,0.,0.,0.
 ,0.,0.,0.,0.,0.,-0.08568905,0.46522932,0.,0.,0.,0.,0.,0.,0.,0.,0.,0.,0
 .,0.,0.,0.,0.,0.,0.,0.,0.,0.,0.,0.,0.,0.,0.,0.,0.,0.,0.,0.,0.,0.,0.,0.
 ,0.,0.,0.,0.,0.,0.,0.,0.,0.,0.,0.,0.,0.,0.,0.,0.,0.,0.,0.,0.,0.,0.,0.,
 0.,0.,0.,0.,0.,0.,0.,0.,0.,0.,0.,0.,0.,0.,0.,0.,0.,0.,0.,0.,0.,0.,0.,0
 .,0.,0.,0.,0.,0.,0.,0.,0.,0.,0.,0.,0.,0.,0.,0.,0.,0.,0.,0.,0.,0.,0.,0.
 ,0.,0.,0.,0.,0.,0.,0.,0.,0.,0.,0.,0.,0.,0.,0.,0.,0.,0.,0.,0.,0.,0.,0.,
 0.,0.,0.,0.,0.,0.,0.,0.,0.,0.,0.,0.,0.,0.,0.,0.,0.,0.,0.,0.,0.,0.,0.,0
 .,0.,0.,0.,0.,0.,0.,0.,0.,0.,0.,0.,0.,0.,0.,0.,0.,0.,0.,0.,0.,0.,0.,0.
 ,0.,0.,0.,0.,0.,0.,0.,0.,0.,0.,0.,0.,0.,0.,0.,0.,0.,0.,0.,0.,0.,0.,0.,
 0.,0.,0.,0.,0.,0.,0.,0.,0.,0.,0.,0.,0.,0.,0.,0.,0.,0.,0.,0.,0.,0.,0.,0
 .,0.,0.,0.,0.,0.,0.,0.,0.,0.,0.,0.,0.,0.,0.,0.,0.,0.,0.,0.,0.,0.,0.,0.
 ,0.,0.,0.,0.,0.,0.,0.,0.,0.,0.,0.,0.,0.,0.,0.,0.,0.,0.,0.,0.,0.,0.,0.,
 0.,0.,0.,0.,0.,0.,0.,0.,0.,0.,0.,0.,0.,0.,0.,0.,0.,0.,0.,0.,0.,0.,0.,0
 .,0.,0.,0.,0.,0.,0.,0.,0.,0.,0.,0.,0.,0.,0.,0.,0.,0.,0.,0.,0.,0.,0.,0.
 ,0.,0.,0.,0.,0.,0.,0.,0.,0.,0.,0.,0.,0.,0.,0.,0.,0.,0.,0.,0.,0.,0.,0.,
 0.,0.,0.,0.,0.,0.,0.,0.,0.,0.,0.,0.,0.,0.,0.,0.,0.,0.,0.,0.,0.,0.,0.,0
 .,0.,0.,0.,0.,0.,0.,0.,0.,0.,0.,0.,0.,0.,0.,0.,0.,0.,0.,0.,0.,0.,0.,0.
 ,0.,0.,0.,0.,0.,0.,0.,0.,0.,0.,0.,0.,0.,0.,0.,0.,0.,0.,0.,0.,0.,0.,0.,
 0.,0.,0.,0.,0.,0.,0.,0.,0.,0.,0.,0.,0.,0.,0.,0.,0.,0.,0.,0.,0.,0.,0.,0
 .,0.,0.,0.,0.,0.,0.,0.,0.,0.,0.,0.,0.,0.,0.,0.,0.,0.,0.,0.,0.,0.,0.,0.
 ,0.,0.,0.,0.,0.,0.,0.,0.,0.,0.,0.,0.,0.,0.,0.,0.,0.,0.,0.,0.,0.,0.,0.,
 0.,0.,0.,0.,0.,0.,0.,0.,0.,0.,0.,0.,0.,0.,0.,0.,0.,0.,0.,0.,0.,0.,0.,0
 .,0.,0.,0.,0.,0.,0.,0.,0.,0.,0.,0.,0.,0.,0.,0.,0.,0.,0.,0.,0.,0.,0.,0.
 ,0.,0.,0.,0.,0.,0.,0.,0.,0.,0.,0.,0.,0.,0.,0.,0.,0.,0.,0.,0.,0.,0.,0.,
 0.,0.,0.,0.,0.,0.,0.,0.,0.,0.,0.,0.,0.,0.,0.,0.,0.,0.,0.,0.,0.,0.,0.,0
 .,0.,0.,0.,0.,0.,0.,0.,0.,0.,0.,0.,0.,0.,0.,0.,0.,0.,0.,0.,0.,0.,0.,0.
 ,0.,0.,0.,0.,0.,0.,0.,0.,0.,0.,0.,0.,0.,0.,0.,0.,0.,0.,0.,0.,0.,0.,0.,
 0.,0.,0.,0.,0.,0.,0.,0.,0.,0.,-0.04170269,-0.20159789,0.35651604,0.,0.
 ,0.,0.,0.,0.,0.,0.,0.,0.,0.,0.,0.,0.,0.,0.,0.,0.,0.,0.,0.,0.,0.,0.,0.,
 0.,0.,0.,0.,0.,0.,0.,0.,0.,0.,0.,0.,0.,0.,0.,0.,0.,0.,0.,0.,0.,0.,0.,0
 .,0.,0.,0.,0.,0.,0.,0.,0.,0.,0.,0.,0.,0.,0.,0.,0.,0.,0.,0.,0.,0.,0.,0.
 ,0.,0.,0.,0.,0.,0.,0.,0.,0.,0.,0.,0.,0.,0.,0.,0.,0.,0.,0.,0.,0.,0.,0.,
 0.,0.,0.,0.,0.,0.,0.,0.,0.,0.,0.,0.,0.,0.,0.,0.,0.,0.,0.,0.,0.,0.,0.,0
 .,0.,0.,0.,0.,0.,0.,0.,0.,0.,0.,0.,0.,0.,0.,0.,0.,0.,0.,0.,0.,0.,0.,0.
 ,0.,0.,0.,0.,0.,0.,0.,0.,0.,0.,0.,0.,0.,0.,0.,0.,0.,0.,0.,0.,0.,0.,0.,
 0.,0.,0.,0.,0.,0.,0.,0.,0.,0.,0.,0.,0.,0.,0.,0.,0.,0.,0.,0.,0.,0.,0.,0
 .,0.,0.,0.,0.,0.,0.,0.,0.,0.,0.,0.,0.,0.,0.,0.,0.,0.,0.,0.,0.,0.,0.,0.
 ,0.,0.,0.,0.,0.,0.,0.,0.,0.,0.,0.,0.,0.,0.,0.,0.,0.,0.,0.,0.,0.,0.,0.,
 0.,0.,0.,0.,0.,0.,0.,0.,0.,0.,0.,0.,0.,0.,0.,0.,0.,0.,0.,0.,0.,0.,0.,0
 .,0.,0.,0.,0.,0.,0.,0.,0.,0.,0.,0.,0.,0.,0.,0.,0.,0.,0.,0.,0.,0.,0.,0.
 ,0.,0.,0.,0.,0.,0.,0.,0.,0.,0.,0.,0.,0.,0.,0.,0.,0.,0.,0.,0.,0.,0.,0.,
 0.,0.,0.,0.,0.,0.,0.,0.,0.,0.,0.,0.,0.,0.,0.,0.,0.,0.,0.,0.,0.,0.,0.,0
 .,0.,0.,0.,0.,0.,0.,0.,0.,0.,0.,0.,0.,0.,0.,0.,0.,0.,0.,0.,0.,0.,0.,0.
 ,0.,0.,0.,0.,0.,0.,0.,0.,0.,0.,0.,0.,0.,0.,0.,0.,0.,0.,0.,0.,0.,0.,0.,
 0.,0.,0.,0.,0.,0.,0.,0.,0.,0.,0.,0.,0.,0.,0.,0.,0.,0.,0.,0.,0.,0.,0.,0
 .,0.,0.,0.,0.,0.,0.,0.,0.,0.,0.,0.,0.,0.,0.,0.,0.,0.,0.,0.,0.,0.,0.,0.
 ,0.,0.,0.,0.,0.,0.,0.,0.,0.,0.,0.,0.,0.,0.,0.,0.,0.,0.,0.,0.,0.,0.,0.,
 0.,0.,0.,0.,0.,0.,0.,0.,0.,0.,0.,0.,0.,0.,0.,0.,0.,0.,0.,0.,0.,0.,0.,0
 .,0.,0.,0.,0.,0.,0.,0.,0.,0.,0.,0.,0.,0.,0.,0.,0.,0.,0.,0.,0.,0.,0.,0.
 ,0.,0.,0.,0.,0.,0.,0.,0.,0.,0.,0.,0.,0.,0.,0.,0.,0.,0.,0.,0.,0.,0.,0.,
 0.,0.,0.,0.,0.,0.,0.,0.,0.,0.,0.,0.,0.,0.,0.,0.,0.,0.,0.,0.,0.,0.,0.,0
 .,0.,0.,0.,0.,0.,0.,0.,0.,0.,0.,0.,0.,0.,0.,0.,0.,0.,0.,0.,0.,0.,0.,0.
 ,0.,0.,0.,0.,0.,0.,0.,0.,0.,0.,0.,0.,0.,0.,0.,0.,0.,0.,0.,0.,0.,0.,0.,
 0.,0.,0.,0.,0.,0.,0.,0.,0.,0.,0.,0.,0.,0.,0.,0.,0.,0.,0.,0.,0.,0.,0.,0
 .,0.,0.,0.,0.,0.,0.,0.,0.,0.,0.,0.,0.,0.,0.,0.,0.,0.,0.,0.01358295,0.0
 1001283,-0.00322629,-0.00394901,0.,0.,0.,0.,0.,0.,0.,0.,0.,0.,0.,0.,0.
 ,0.,0.,0.,0.,0.,0.,0.,0.,0.,0.,0.,0.,0.,0.,0.,0.,0.,0.,0.,0.,0.,0.,0.,
 0.,0.,0.,0.,0.,0.,0.,0.,0.,0.,0.,0.,0.,0.,0.,0.,0.,0.,0.,0.,0.,0.,0.,0
 .,0.,0.,0.,0.,0.,0.,0.,0.,0.,0.,0.,0.,0.,0.,0.,0.,0.,0.,0.,0.,0.,0.,0.
 ,0.,0.,0.,0.,0.,0.,0.,0.,0.,0.,0.,0.,0.,0.,0.,0.,0.,0.,0.,0.,0.,0.,0.,
 0.,0.,0.,0.,0.,0.,0.,0.,0.,0.,0.,0.,0.,0.,0.,0.,0.,0.,0.,0.,0.,0.,0.,0
 .,0.,0.,0.,0.,0.,0.,0.,0.,0.,0.,0.,0.,0.,0.,0.,0.,0.,0.,0.,0.,0.,0.,0.
 ,0.,0.,0.,0.,0.,0.,0.,0.,0.,0.,0.,0.,0.,0.,0.,0.,0.,0.,0.,0.,0.,0.,0.,
 0.,0.,0.,0.,0.,0.,0.,0.,0.,0.,0.,0.,0.,0.,0.,0.,0.,0.,0.,0.,0.,0.,0.,0
 .,0.,0.,0.,0.,0.,0.,0.,0.,0.,0.,0.,0.,0.,0.,0.,0.,0.,0.,0.,0.,0.,0.,0.
 ,0.,0.,0.,0.,0.,0.,0.,0.,0.,0.,0.,0.,0.,0.,0.,0.,0.,0.,0.,0.,0.,0.,0.,
 0.,0.,0.,0.,0.,0.,0.,0.,0.,0.,0.,0.,0.,0.,0.,0.,0.,0.,0.,0.,0.,0.,0.,0
 .,0.,0.,0.,0.,0.,0.,0.,0.,0.,0.,0.,0.,0.,0.,0.,0.,0.,0.,0.,0.,0.,0.,0.
 ,0.,0.,0.,0.,0.,0.,0.,0.,0.,0.,0.,0.,0.,0.,0.,0.,0.,0.,0.,0.,0.,0.,0.,
 0.,0.,0.,0.,0.,0.,0.,0.,0.,0.,0.,0.,0.,0.,0.,0.,0.,0.,0.,0.,0.,0.,0.,0
 .,0.,0.,0.,0.,0.,0.,0.,0.,0.,0.,0.,0.,0.,0.,0.,0.,0.,0.,0.,0.,0.,0.,0.
 ,0.,0.,0.,0.,0.,0.,0.,0.,0.,0.,0.,0.,0.,0.,0.,0.,0.,0.,0.,0.,0.,0.,0.,
 0.,0.,0.,0.,0.,0.,0.,0.,0.,0.,0.,0.,0.,0.,0.,0.,0.,0.,0.,0.,0.,0.,0.,0
 .,0.,0.,0.,0.,0.,0.,0.,0.,0.,0.,0.,0.,0.,0.,0.,0.,0.,0.,0.,0.,0.,0.,0.
 ,0.,0.,0.,0.,0.,0.,0.,0.,0.,0.,0.,0.,0.,0.,0.,0.,0.,0.,0.,0.,0.,0.,0.,
 0.,0.,0.,0.,0.,0.,0.,0.,0.,0.,0.,0.,0.,0.,0.,0.,0.,0.,0.,0.,0.,0.,0.,0
 .,0.,0.,0.,0.,0.,0.,0.,0.,0.,0.,0.,0.,0.,0.,0.,0.,0.,0.,0.,0.,0.,0.,0.
 ,0.,0.,0.,0.,0.,0.,0.,0.,0.,0.,0.,0.,0.,0.,0.,0.,0.,0.,0.,0.,0.,0.,0.,
 0.,0.,0.,0.,0.,0.,0.,0.,0.,0.,0.,0.,0.,0.,0.,0.,0.,0.,0.,0.,0.,0.,0.,0
 .,0.,0.,0.,0.,0.,0.,0.,0.,0.,0.,0.,0.,0.,0.,0.,0.,0.,0.,0.,0.,0.,0.,0.
 ,0.,0.,0.,0.,0.,0.,0.,0.,0.,0.,0.,0.,0.,0.,0.,0.,0.,0.,0.,0.,0.,0.,0.,
 0.,0.,0.,0.,0.,0.,0.,0.,0.,0.,0.,0.,0.,0.,0.,0.,0.,0.,0.,0.,0.,0.,0.,0
 .,0.,0.,0.,0.,0.,0.,0.,0.00165807,-0.06308106,0.01582109,-0.12749706,0
 .96542332,0.,0.,0.,0.,0.,0.,0.,0.,0.,0.,0.,0.,0.,0.,0.,0.,0.,0.,0.,0.,
 0.,0.,0.,0.,0.,0.,0.,0.,0.,0.,0.,0.,0.,0.,0.,0.,0.,0.,0.,0.,0.,0.,0.,0
 .,0.,0.,0.,0.,0.,0.,0.,0.,0.,0.,0.,0.,0.,0.,0.,0.,0.,0.,0.,0.,0.,0.,0.
 ,0.,0.,0.,0.,0.,0.,0.,0.,0.,0.,0.,0.,0.,0.,0.,0.,0.,0.,0.,0.,0.,0.,0.,
 0.,0.,0.,0.,0.,0.,0.,0.,0.,0.,0.,0.,0.,0.,0.,0.,0.,0.,0.,0.,0.,0.,0.,0
 .,0.,0.,0.,0.,0.,0.,0.,0.,0.,0.,0.,0.,0.,0.,0.,0.,0.,0.,0.,0.,0.,0.,0.
 ,0.,0.,0.,0.,0.,0.,0.,0.,0.,0.,0.,0.,0.,0.,0.,0.,0.,0.,0.,0.,0.,0.,0.,
 0.,0.,0.,0.,0.,0.,0.,0.,0.,0.,0.,0.,0.,0.,0.,0.,0.,0.,0.,0.,0.,0.,0.,0
 .,0.,0.,0.,0.,0.,0.,0.,0.,0.,0.,0.,0.,0.,0.,0.,0.,0.,0.,0.,0.,0.,0.,0.
 ,0.,0.,0.,0.,0.,0.,0.,0.,0.,0.,0.,0.,0.,0.,0.,0.,0.,0.,0.,0.,0.,0.,0.,
 0.,0.,0.,0.,0.,0.,0.,0.,0.,0.,0.,0.,0.,0.,0.,0.,0.,0.,0.,0.,0.,0.,0.,0
 .,0.,0.,0.,0.,0.,0.,0.,0.,0.,0.,0.,0.,0.,0.,0.,0.,0.,0.,0.,0.,0.,0.,0.
 ,0.,0.,0.,0.,0.,0.,0.,0.,0.,0.,0.,0.,0.,0.,0.,0.,0.,0.,0.,0.,0.,0.,0.,
 0.,0.,0.,0.,0.,0.,0.,0.,0.,0.,0.,0.,0.,0.,0.,0.,0.,0.,0.,0.,0.,0.,0.,0
 .,0.,0.,0.,0.,0.,0.,0.,0.,0.,0.,0.,0.,0.,0.,0.,0.,0.,0.,0.,0.,0.,0.,0.
 ,0.,0.,0.,0.,0.,0.,0.,0.,0.,0.,0.,0.,0.,0.,0.,0.,0.,0.,0.,0.,0.,0.,0.,
 0.,0.,0.,0.,0.,0.,0.,0.,0.,0.,0.,0.,0.,0.,0.,0.,0.,0.,0.,0.,0.,0.,0.,0
 .,0.,0.,0.,0.,0.,0.,0.,0.,0.,0.,0.,0.,0.,0.,0.,0.,0.,0.,0.,0.,0.,0.,0.
 ,0.,0.,0.,0.,0.,0.,0.,0.,0.,0.,0.,0.,0.,0.,0.,0.,0.,0.,0.,0.,0.,0.,0.,
 0.,0.,0.,0.,0.,0.,0.,0.,0.,0.,0.,0.,0.,0.,0.,0.,0.,0.,0.,0.,0.,0.,0.,0
 .,0.,0.,0.,0.,0.,0.,0.,0.,0.,0.,0.,0.,0.,0.,0.,0.,0.,0.,0.,0.,0.,0.,0.
 ,0.,0.,0.,0.,0.,0.,0.,0.,0.,0.,0.,0.,0.,0.,0.,0.,0.,0.,0.,0.,0.,0.,0.,
 0.,0.,0.,0.,0.,0.,0.,0.,0.,0.,0.,0.,0.,0.,0.,0.,0.,0.,0.,0.,0.,0.,0.,0
 .,0.,0.,0.,0.,0.,0.,0.,0.,0.,0.,0.,0.,0.,0.,0.,0.,0.,0.,0.,0.,0.,0.,0.
 ,0.,0.,0.,0.,0.,0.,0.,0.,0.,0.,0.,0.,0.,0.,0.,0.,0.,0.,0.,0.,0.,0.,0.,
 0.,0.,0.,0.,0.,0.,0.,0.,0.,0.,0.,0.,0.,0.,0.,0.,0.,0.,0.,0.,0.,0.,0.,0
 .,0.,0.,0.,0.,0.,0.,0.,0.,0.,0.,0.,0.,0.,0.,0.,0.,0.,0.,0.,0.,0.,0.,0.
 ,-0.00428147,0.01288879,0.00510347,0.00682727,-0.05140092,-0.01661791,
 0.,0.,0.,0.,0.,0.,0.,0.,0.,0.,0.,0.,0.,0.,0.,0.,0.,0.,0.,0.,0.,0.,0.,0
 .,0.,0.,0.,0.,0.,0.,0.,0.,0.,0.,0.,0.,0.,0.,0.,0.,0.,0.,0.,0.,0.,0.,0.
 ,0.,0.,0.,0.,0.,0.,0.,0.,0.,0.,0.,0.,0.,0.,0.,0.,0.,0.,0.,0.,0.,0.,0.,
 0.,0.,0.,0.,0.,0.,0.,0.,0.,0.,0.,0.,0.,0.,0.,0.,0.,0.,0.,0.,0.,0.,0.,0
 .,0.,0.,0.,0.,0.,0.,0.,0.,0.,0.,0.,0.,0.,0.,0.,0.,0.,0.,0.,0.,0.,0.,0.
 ,0.,0.,0.,0.,0.,0.,0.,0.,0.,0.,0.,0.,0.,0.,0.,0.,0.,0.,0.,0.,0.,0.,0.,
 0.,0.,0.,0.,0.,0.,0.,0.,0.,0.,0.,0.,0.,0.,0.,0.,0.,0.,0.,0.,0.,0.,0.,0
 .,0.,0.,0.,0.,0.,0.,0.,0.,0.,0.,0.,0.,0.,0.,0.,0.,0.,0.,0.,0.,0.,0.,0.
 ,0.,0.,0.,0.,0.,0.,0.,0.,0.,0.,0.,0.,0.,0.,0.,0.,0.,0.,0.,0.,0.,0.,0.,
 0.,0.,0.,0.,0.,0.,0.,0.,0.,0.,0.,0.,0.,0.,0.,0.,0.,0.,0.,0.,0.,0.,0.,0
 .,0.,0.,0.,0.,0.,0.,0.,0.,0.,0.,0.,0.,0.,0.,0.,0.,0.,0.,0.,0.,0.,0.,0.
 ,0.,0.,0.,0.,0.,0.,0.,0.,0.,0.,0.,0.,0.,0.,0.,0.,0.,0.,0.,0.,0.,0.,0.,
 0.,0.,0.,0.,0.,0.,0.,0.,0.,0.,0.,0.,0.,0.,0.,0.,0.,0.,0.,0.,0.,0.,0.,0
 .,0.,0.,0.,0.,0.,0.,0.,0.,0.,0.,0.,0.,0.,0.,0.,0.,0.,0.,0.,0.,0.,0.,0.
 ,0.,0.,0.,0.,0.,0.,0.,0.,0.,0.,0.,0.,0.,0.,0.,0.,0.,0.,0.,0.,0.,0.,0.,
 0.,0.,0.,0.,0.,0.,0.,0.,0.,0.,0.,0.,0.,0.,0.,0.,0.,0.,0.,0.,0.,0.,0.,0
 .,0.,0.,0.,0.,0.,0.,0.,0.,0.,0.,0.,0.,0.,0.,0.,0.,0.,0.,0.,0.,0.,0.,0.
 ,0.,0.,0.,0.,0.,0.,0.,0.,0.,0.,0.,0.,0.,0.,0.,0.,0.,0.,0.,0.,0.,0.,0.,
 0.,0.,0.,0.,0.,0.,0.,0.,0.,0.,0.,0.,0.,0.,0.,0.,0.,0.,0.,0.,0.,0.,0.,0
 .,0.,0.,0.,0.,0.,0.,0.,0.,0.,0.,0.,0.,0.,0.,0.,0.,0.,0.,0.,0.,0.,0.,0.
 ,0.,0.,0.,0.,0.,0.,0.,0.,0.,0.,0.,0.,0.,0.,0.,0.,0.,0.,0.,0.,0.,0.,0.,
 0.,0.,0.,0.,0.,0.,0.,0.,0.,0.,0.,0.,0.,0.,0.,0.,0.,0.,0.,0.,0.,0.,0.,0
 .,0.,0.,0.,0.,0.,0.,0.,0.,0.,0.,0.,0.,0.,0.,0.,0.,0.,0.,0.,0.,0.,0.,0.
 ,0.,0.,0.,0.,0.,0.,0.,0.,0.,0.,0.,0.,0.,0.,0.,0.,0.,0.,0.,0.,0.,0.,0.,
 0.,0.,0.,0.,0.,0.,0.,0.,0.,0.,0.,0.,0.,0.,0.,0.,0.,0.,0.,0.,0.,0.,0.,0
 .,0.,0.,0.,0.,0.,0.,0.,0.,0.,0.,0.,0.,0.,0.,0.,0.,0.,0.,0.,0.,0.,0.,0.
 ,0.,0.,0.,0.,0.,0.,0.,0.,0.,0.,0.,0.,0.,0.,0.,0.,0.,0.,0.,0.,0.0590043
 1,0.08092532,-0.01330318,-0.00369757,0.11487789,-0.00585557,-0.0342866
 5,0.,0.,0.,0.,0.,0.,0.,0.,0.,0.,0.,0.,0.,0.,0.,0.,0.,0.,0.,0.,0.,0.,0.
 ,0.,0.,0.,0.,0.,0.,0.,0.,0.,0.,0.,0.,0.,0.,0.,0.,0.,0.,0.,0.,0.,0.,0.,
 0.,0.,0.,0.,0.,0.,0.,0.,0.,0.,0.,0.,0.,0.,0.,0.,0.,0.,0.,0.,0.,0.,0.,0
 .,0.,0.,0.,0.,0.,0.,0.,0.,0.,0.,0.,0.,0.,0.,0.,0.,0.,0.,0.,0.,0.,0.,0.
 ,0.,0.,0.,0.,0.,0.,0.,0.,0.,0.,0.,0.,0.,0.,0.,0.,0.,0.,0.,0.,0.,0.,0.,
 0.,0.,0.,0.,0.,0.,0.,0.,0.,0.,0.,0.,0.,0.,0.,0.,0.,0.,0.,0.,0.,0.,0.,0
 .,0.,0.,0.,0.,0.,0.,0.,0.,0.,0.,0.,0.,0.,0.,0.,0.,0.,0.,0.,0.,0.,0.,0.
 ,0.,0.,0.,0.,0.,0.,0.,0.,0.,0.,0.,0.,0.,0.,0.,0.,0.,0.,0.,0.,0.,0.,0.,
 0.,0.,0.,0.,0.,0.,0.,0.,0.,0.,0.,0.,0.,0.,0.,0.,0.,0.,0.,0.,0.,0.,0.,0
 .,0.,0.,0.,0.,0.,0.,0.,0.,0.,0.,0.,0.,0.,0.,0.,0.,0.,0.,0.,0.,0.,0.,0.
 ,0.,0.,0.,0.,0.,0.,0.,0.,0.,0.,0.,0.,0.,0.,0.,0.,0.,0.,0.,0.,0.,0.,0.,
 0.,0.,0.,0.,0.,0.,0.,0.,0.,0.,0.,0.,0.,0.,0.,0.,0.,0.,0.,0.,0.,0.,0.,0
 .,0.,0.,0.,0.,0.,0.,0.,0.,0.,0.,0.,0.,0.,0.,0.,0.,0.,0.,0.,0.,0.,0.,0.
 ,0.,0.,0.,0.,0.,0.,0.,0.,0.,0.,0.,0.,0.,0.,0.,0.,0.,0.,0.,0.,0.,0.,0.,
 0.,0.,0.,0.,0.,0.,0.,0.,0.,0.,0.,0.,0.,0.,0.,0.,0.,0.,0.,0.,0.,0.,0.,0
 .,0.,0.,0.,0.,0.,0.,0.,0.,0.,0.,0.,0.,0.,0.,0.,0.,0.,0.,0.,0.,0.,0.,0.
 ,0.,0.,0.,0.,0.,0.,0.,0.,0.,0.,0.,0.,0.,0.,0.,0.,0.,0.,0.,0.,0.,0.,0.,
 0.,0.,0.,0.,0.,0.,0.,0.,0.,0.,0.,0.,0.,0.,0.,0.,0.,0.,0.,0.,0.,0.,0.,0
 .,0.,0.,0.,0.,0.,0.,0.,0.,0.,0.,0.,0.,0.,0.,0.,0.,0.,0.,0.,0.,0.,0.,0.
 ,0.,0.,0.,0.,0.,0.,0.,0.,0.,0.,0.,0.,0.,0.,0.,0.,0.,0.,0.,0.,0.,0.,0.,
 0.,0.,0.,0.,0.,0.,0.,0.,0.,0.,0.,0.,0.,0.,0.,0.,0.,0.,0.,0.,0.,0.,0.,0
 .,0.,0.,0.,0.,0.,0.,0.,0.,0.,0.,0.,0.,0.,0.,0.,0.,0.,0.,0.,0.,0.,0.,0.
 ,0.,0.,0.,0.,0.,0.,0.,0.,0.,0.,0.,0.,0.,0.,0.,0.,0.,0.,0.,0.,0.,0.,0.,
 0.,0.,0.,0.,0.,0.,0.,0.,0.,0.,0.,0.,0.,0.,0.,0.,0.,0.,0.,0.,0.,0.,0.,0
 .,0.,0.,0.,0.,0.,0.,0.,0.,0.,0.,0.,0.,0.,0.,0.,0.,0.,0.,0.,0.,0.,0.,0.
 ,0.,0.,0.,0.,0.,0.,0.,0.,0.,0.,0.,0.,0.,0.,0.,0.,0.,0.,0.,0.,0.,0.,0.,
 0.,0.,0.,0.,0.,0.,0.,0.,0.,0.,0.,0.,0.,0.,0.,0.,0.,0.,0.,0.,0.,0.04130
 557,-0.36207030,0.17490208,0.11525757,-0.89458223,0.03833904,-0.166451
 90,1.28610431,0.,0.,0.,0.,0.,0.,0.,0.,0.,0.,0.,0.,0.,0.,0.,0.,0.,0.,0.
 ,0.,0.,0.,0.,0.,0.,0.,0.,0.,0.,0.,0.,0.,0.,0.,0.,0.,0.,0.,0.,0.,0.,0.,
 0.,0.,0.,0.,0.,0.,0.,0.,0.,0.,0.,0.,0.,0.,0.,0.,0.,0.,0.,0.,0.,0.,0.,0
 .,0.,0.,0.,0.,0.,0.,0.,0.,0.,0.,0.,0.,0.,0.,0.,0.,0.,0.,0.,0.,0.,0.,0.
 ,0.,0.,0.,0.,0.,0.,0.,0.,0.,0.,0.,0.,0.,0.,0.,0.,0.,0.,0.,0.,0.,0.,0.,
 0.,0.,0.,0.,0.,0.,0.,0.,0.,0.,0.,0.,0.,0.,0.,0.,0.,0.,0.,0.,0.,0.,0.,0
 .,0.,0.,0.,0.,0.,0.,0.,0.,0.,0.,0.,0.,0.,0.,0.,0.,0.,0.,0.,0.,0.,0.,0.
 ,0.,0.,0.,0.,0.,0.,0.,0.,0.,0.,0.,0.,0.,0.,0.,0.,0.,0.,0.,0.,0.,0.,0.,
 0.,0.,0.,0.,0.,0.,0.,0.,0.,0.,0.,0.,0.,0.,0.,0.,0.,0.,0.,0.,0.,0.,0.,0
 .,0.,0.,0.,0.,0.,0.,0.,0.,0.,0.,0.,0.,0.,0.,0.,0.,0.,0.,0.,0.,0.,0.,0.
 ,0.,0.,0.,0.,0.,0.,0.,0.,0.,0.,0.,0.,0.,0.,0.,0.,0.,0.,0.,0.,0.,0.,0.,
 0.,0.,0.,0.,0.,0.,0.,0.,0.,0.,0.,0.,0.,0.,0.,0.,0.,0.,0.,0.,0.,0.,0.,0
 .,0.,0.,0.,0.,0.,0.,0.,0.,0.,0.,0.,0.,0.,0.,0.,0.,0.,0.,0.,0.,0.,0.,0.
 ,0.,0.,0.,0.,0.,0.,0.,0.,0.,0.,0.,0.,0.,0.,0.,0.,0.,0.,0.,0.,0.,0.,0.,
 0.,0.,0.,0.,0.,0.,0.,0.,0.,0.,0.,0.,0.,0.,0.,0.,0.,0.,0.,0.,0.,0.,0.,0
 .,0.,0.,0.,0.,0.,0.,0.,0.,0.,0.,0.,0.,0.,0.,0.,0.,0.,0.,0.,0.,0.,0.,0.
 ,0.,0.,0.,0.,0.,0.,0.,0.,0.,0.,0.,0.,0.,0.,0.,0.,0.,0.,0.,0.,0.,0.,0.,
 0.,0.,0.,0.,0.,0.,0.,0.,0.,0.,0.,0.,0.,0.,0.,0.,0.,0.,0.,0.,0.,0.,0.,0
 .,0.,0.,0.,0.,0.,0.,0.,0.,0.,0.,0.,0.,0.,0.,0.,0.,0.,0.,0.,0.,0.,0.,0.
 ,0.,0.,0.,0.,0.,0.,0.,0.,0.,0.,0.,0.,0.,0.,0.,0.,0.,0.,0.,0.,0.,0.,0.,
 0.,0.,0.,0.,0.,0.,0.,0.,0.,0.,0.,0.,0.,0.,0.,0.,0.,0.,0.,0.,0.,0.,0.,0
 .,0.,0.,0.,0.,0.,0.,0.,0.,0.,0.,0.,0.,0.,0.,0.,0.,0.,0.,0.,0.,0.,0.,0.
 ,0.,0.,0.,0.,0.,0.,0.,0.,0.,0.,0.,0.,0.,0.,0.,0.,0.,0.,0.,0.,0.,0.,0.,
 0.,0.,0.,0.,0.,0.,0.,0.,0.,0.,0.,0.,0.,0.,0.,0.,0.,0.,0.,0.,0.,0.,0.,0
 .,0.,0.,0.,0.,0.,0.,0.,0.,0.,0.,0.,0.,0.,0.,0.,0.,0.,0.,0.,0.,0.,0.,0.
 ,0.,0.,0.,0.,0.,0.,0.,0.,0.,0.,0.,0.,0.,0.,0.,0.,0.,0.,0.,0.,0.,0.,0.,
 0.,0.,0.,0.,0.,0.,0.,0.,0.,0.,0.,0.,0.,0.,0.,0.,0.,0.,0.,0.,0.,0.,0.,0
 .,0.,0.00696024,0.16376362,0.04092194,-0.00378958,0.03568642,0.0109796
 5,0.01876213,-0.19895697,-0.03789143||0.,0.,0.,0.,0.,0.,0.,0.,0.,0.,0.
 ,0.,0.,0.,0.,0.,0.,0.,0.,0.,0.,0.,0.,0.,0.,0.,0.,0.,0.,0.,0.,0.,0.,0.,
 0.,0.,0.,0.,0.,0.,0.,0.,0.,0.,0.,0.,0.,0.,0.,0.,0.,0.,0.,0.,0.,0.,0.,0
 .,0.,0.,0.,0.,0.,0.,0.,0.,0.,0.,0.,0.,0.,0.,0.,0.,0.,0.,0.,0.,0.,0.,0.
 ,0.,0.,0.,0.,0.,0.,0.,0.,0.,0.,0.,0.,0.,0.,0.,0.,0.,0.,0.,0.,0.,0.,0.,
 0.,0.,0.,0.,0.,0.,0.,0.,0.,0.,0.,0.,0.,0.,0.,0.,0.,0.,0.,0.,0.,0.,0.,0
 .,0.,0.,0.,0.,0.,0.,0.,0.,0.,0.,0.,0.,0.,0.,0.,0.,0.,0.,0.,0.,0.,0.,0.
 ,0.,0.,0.,0.,0.,0.,0.,0.,0.,0.,0.,0.,0.,0.,0.,0.,0.,0.,0.,0.,0.,0.,0.,
 0.,0.,0.,0.,0.,0.,0.,0.,0.,0.,0.,0.,0.,0.,0.,0.,0.,0.,0.,0.,0.,0.,0.,0
 .,0.,0.,0.,0.,0.,0.,0.,0.,0.,0.,0.,0.,0.,0.,0.,0.,0.,0.,0.,0.,0.,0.,0.
 ,0.,0.,0.,0.,0.,0.,0.,0.,0.,0.,0.,0.,0.,0.,0.,0.,0.,0.,0.,0.,0.,0.,0.,
 0.,0.,0.,0.,0.,0.,0.,0.,0.,0.,0.,0.,0.,0.,0.,0.,0.,0.,0.,0.,0.,0.,0.,0
 .,0.,0.,0.,0.,0.,0.,0.,0.,0.,0.,0.,0.,0.,0.,0.,0.,0.,0.,0.,0.,0.,0.,0.
 ,0.,0.,0.,0.,0.,0.,0.,0.,0.,0.,0.,0.,0.,0.,0.,0.,0.,0.,0.,0.,0.,0.,0.,
 0.,0.,0.,0.,0.,0.,0.,0.,0.,0.,0.,0.,0.,0.,0.,0.,0.,0.,0.,0.,0.,0.,0.,0
 .,0.,0.,0.,0.,0.,0.,0.,0.,0.,0.,0.,0.,0.,0.,0.,0.,0.,0.,0.,0.,0.,0.,0.
 ,0.,0.,0.,0.,0.,0.,0.,0.,0.,0.,0.,0.,0.,0.,0.,0.,0.,0.,0.,0.,0.,0.,0.,
 0.,0.,0.,0.,0.,0.,0.,0.,0.,0.,0.,0.,0.,0.,0.,0.,0.,0.,0.,0.,0.,0.,0.,0
 .,0.,0.,0.,0.,0.,0.,0.,0.,0.,0.,0.,0.,0.,0.,0.,0.,0.,0.,0.,0.,0.,0.,0.
 ,0.,0.,0.,0.,0.,0.,0.,0.,0.,0.,0.,0.,0.,0.,0.,0.,0.,0.,0.,0.,0.,0.,0.,
 0.,0.,0.,0.,0.,0.,0.,0.,0.,0.,0.,0.,0.,0.,0.,0.,0.,0.,0.,0.,0.,0.,0.,0
 .,0.,0.,0.,0.,0.,0.,0.,0.,0.,0.,0.,0.,0.,0.,0.,0.,0.,0.,0.,0.,0.,0.,0.
 ,0.,0.,0.,0.,0.,0.,0.,0.,0.,0.,0.,0.,0.,0.,0.,0.,0.,0.,0.,0.,0.,0.,0.,
 0.,0.,0.,0.,0.,0.,0.,0.,0.,0.,0.,0.,0.,0.,0.,0.,0.,0.,0.,0.,0.,0.,0.,0
 .,0.,0.,0.,0.,0.,0.,0.,0.,0.,0.,0.,0.,0.,0.,0.,0.,0.,0.,0.,0.,0.,0.,0.
 ,0.,0.,0.,0.,0.,0.,0.,0.,0.,0.,0.,0.,0.,0.,0.,0.,0.,0.,0.,0.,0.,0.,0.,
 0.,0.,0.,0.,0.,0.,0.,0.,0.,0.,0.,0.,0.,0.,0.,0.,0.,0.,0.,0.,0.,0.,0.,0
 .,0.,0.,0.,0.,0.,0.,0.,0.,0.,0.00417418,-0.24483518,0.12184513,-0.0099
 9961,0.06758138,-0.00979900,-0.04140969,0.22394474,-0.09148329|||@


 IF AT FIRST YOU DON'T SUCCEED, TRY, TRY AGAIN.
 THEN GIVE UP;
 THERE'S NO USE BEING A DAMN FOOL ABOUT IT.

                                 -- W. C. FIELDS
 Job cpu time:       0 days  0 hours  3 minutes 17.0 seconds.
 File lengths (MBytes):  RWF=   3242 Int=      0 D2E=      0 Chk=     41 Scr=      1
 Normal termination of Gaussian 09 at Sun Mar 08 20:19:12 2026.
