 Entering Link 1 = C:\G09W\l1.exe PID=      9924.
  
 Copyright (c) 1988,1990,1992,1993,1995,1998,2003,2009,2013,
            Gaussian, Inc.  All Rights Reserved.
  
 This is part of the Gaussian(R) 09 program.  It is based on
 the Gaussian(R) 03 system (copyright 2003, Gaussian, Inc.),
 the Gaussian(R) 98 system (copyright 1998, Gaussian, Inc.),
 the Gaussian(R) 94 system (copyright 1995, Gaussian, Inc.),
 the Gaussian 92(TM) system (copyright 1992, Gaussian, Inc.),
 the Gaussian 90(TM) system (copyright 1990, Gaussian, Inc.),
 the Gaussian 88(TM) system (copyright 1988, Gaussian, Inc.),
 the Gaussian 86(TM) system (copyright 1986, Carnegie Mellon
 University), and the Gaussian 82(TM) system (copyright 1983,
 Carnegie Mellon University). Gaussian is a federally registered
 trademark of Gaussian, Inc.
  
 This software contains proprietary and confidential information,
 including trade secrets, belonging to Gaussian, Inc.
  
 This software is provided under written license and may be
 used, copied, transmitted, or stored only in accord with that
 written license.
  
 The following legend is applicable only to US Government
 contracts under FAR:
  
                    RESTRICTED RIGHTS LEGEND
  
 Use, reproduction and disclosure by the US Government is
 subject to restrictions as set forth in subparagraphs (a)
 and (c) of the Commercial Computer Software - Restricted
 Rights clause in FAR 52.227-19.
  
 Gaussian, Inc.
 340 Quinnipiac St., Bldg. 40, Wallingford CT 06492
  
  
 ---------------------------------------------------------------
 Warning -- This program may not be used in any manner that
 competes with the business of Gaussian, Inc. or will provide
 assistance to any competitor of Gaussian, Inc.  The licensee
 of this program is prohibited from giving any competitor of
 Gaussian, Inc. access to this program.  By using this program,
 the user acknowledges that Gaussian, Inc. is engaged in the
 business of creating and licensing software in the field of
 computational chemistry and represents and warrants to the
 licensee that it is not a competitor of Gaussian, Inc. and that
 it will not use this program in any manner prohibited above.
 ---------------------------------------------------------------
  

 Cite this work as:
 Gaussian 09, Revision D.01,
 M. J. Frisch, G. W. Trucks, H. B. Schlegel, G. E. Scuseria, 
 M. A. Robb, J. R. Cheeseman, G. Scalmani, V. Barone, B. Mennucci, 
 G. A. Petersson, H. Nakatsuji, M. Caricato, X. Li, H. P. Hratchian, 
 A. F. Izmaylov, J. Bloino, G. Zheng, J. L. Sonnenberg, M. Hada, 
 M. Ehara, K. Toyota, R. Fukuda, J. Hasegawa, M. Ishida, T. Nakajima, 
 Y. Honda, O. Kitao, H. Nakai, T. Vreven, J. A. Montgomery, Jr., 
 J. E. Peralta, F. Ogliaro, M. Bearpark, J. J. Heyd, E. Brothers, 
 K. N. Kudin, V. N. Staroverov, T. Keith, R. Kobayashi, J. Normand, 
 K. Raghavachari, A. Rendell, J. C. Burant, S. S. Iyengar, J. Tomasi, 
 M. Cossi, N. Rega, J. M. Millam, M. Klene, J. E. Knox, J. B. Cross, 
 V. Bakken, C. Adamo, J. Jaramillo, R. Gomperts, R. E. Stratmann, 
 O. Yazyev, A. J. Austin, R. Cammi, C. Pomelli, J. W. Ochterski, 
 R. L. Martin, K. Morokuma, V. G. Zakrzewski, G. A. Voth, 
 P. Salvador, J. J. Dannenberg, S. Dapprich, A. D. Daniels, 
 O. Farkas, J. B. Foresman, J. V. Ortiz, J. Cioslowski, 
 and D. J. Fox, Gaussian, Inc., Wallingford CT, 2013.
 
 ******************************************
 Gaussian 09:  IA32W-G09RevD.01 24-Apr-2013
                22-Apr-2025 
 ******************************************
 %chk=C:\g16w\Zno_NANOTUBE_1D_F_Pt-doped_with NH3_IR_Raman.chk
 ----------------------------------
 # freq=raman pm6 geom=connectivity
 ----------------------------------
 1/10=4,30=1,38=1,57=2/1,3;
 2/12=2,17=6,18=5,40=1/2;
 3/5=2,16=1,25=1,41=3900000,71=2,140=1/1,2,3;
 4/35=1/1;
 5/5=2,35=1,38=5,98=1/2;
 8/6=4,10=90,11=11/1;
 10/13=10,15=4/2;
 11/6=3,8=1,9=11,15=111,16=1/1,2,10;
 10/6=1/2;
 6/7=2,8=2,9=2,10=2,18=1,28=1/1;
 7/8=1,10=1,25=1/1,2,3,16;
 1/10=4,30=1/3;
 99//99;
 --------------------------------------------
 Zno_NANOTUBE_1D_F_Pt-doped_with NH3_IR_Raman
 --------------------------------------------
 Symbolic Z-matrix:
 Charge =  0 Multiplicity = 1
 O(Fragment=2)        -1    12.66823  -4.79257  -1.83311 
 O(Fragment=2)        -1    10.83986  -4.0431   -0.18869 
 Zn(Fragment=2)       -1    12.55981  -3.23159  -0.15121 
 O(Fragment=2)        -1    12.66803  -4.94056   1.38011 
 O(Fragment=2)        -1    10.84017  -3.36741   2.27057 
 Zn(Fragment=2)       -1    12.56006  -2.68908   1.82331 
 O(Fragment=2)        -1    12.66899  -3.1716    4.06665 
 O(Fragment=2)        -1    10.8413  -1.37525   3.863 
 Zn(Fragment=2)       -1    12.56097  -1.08959   3.10186 
 O(Fragment=2)        -1    12.67074  -0.16138   5.20034 
 O(Fragment=2)        -1    10.84282   1.17245   3.98034 
 Zn(Fragment=2)       -1    12.56219   0.95593   3.19607 
 O(Fragment=2)        -1    12.67262   2.94031   4.34814 
 O(Fragment=2)        -1    10.84414   3.30255   2.57777 
 Zn(Fragment=2)       -1    12.56325   2.66617   2.06996 
 O(Fragment=2)        -1    12.67391   4.94872   1.83558 
 O(Fragment=2)        -1    10.84476   4.20143   0.19102 
 Zn(Fragment=2)       -1    12.56374   3.38787   0.15366 
 O(Fragment=2)        -1    12.67411   5.09671  -1.37765 
 O(Fragment=2)        -1    10.84445   3.52574  -2.26824 
 Zn(Fragment=2)       -1    12.56349   2.84537  -1.82086 
 O(Fragment=2)        -1    12.67315   3.32775  -4.06419 
 O(Fragment=2)        -1    10.84332   1.53358  -3.86067 
 Zn(Fragment=2)       -1    12.56258   1.24588  -3.09941 
 O(Fragment=2)        -1    12.6714   0.31753  -5.19787 
 O(Fragment=2)        -1    10.8418  -1.01412  -3.97801 
 Zn(Fragment=2)       -1    12.56137  -0.79965  -3.19362 
 O(Fragment=2)        -1    12.66952  -2.78416  -4.34568 
 O(Fragment=2)        -1    10.84048  -3.14422  -2.57544 
 Zn(Fragment=2)       -1    12.56031  -2.50989  -2.0675 
 O(Fragment=2)        -1    7.51871  -3.99454  -1.53391 
 Zn(Fragment=2)       -1    9.33437  -3.46632  -1.3345 
 O(Fragment=2)        -1    4.32205  -4.20306  -0.19647 
 Zn(Fragment=2)       -1    6.14368  -3.64232  -0.17053 
 O(Fragment=2)        -1    7.51854  -4.11837   1.15487 
 Zn(Fragment=2)       -1    9.33422  -3.57407   1.00509 
 O(Fragment=2)        -1    4.32243  -3.50064   2.36062 
 Zn(Fragment=2)       -1    6.14396  -3.03187   2.05131 
 O(Fragment=2)        -1    7.51934  -2.63813   3.40293 
 Zn(Fragment=2)       -1    9.33492  -2.28607   2.9612 
 O(Fragment=2)        -1    4.32361  -1.42922   4.0164 
 Zn(Fragment=2)       -1    6.14498  -1.23203   3.49 
 O(Fragment=2)        -1    7.52081  -0.11922   4.35158 
 Zn(Fragment=2)       -1    9.3362   -0.09428   3.78665 
 O(Fragment=2)        -1    4.32519   1.21983   4.13841 
 Zn(Fragment=2)       -1    6.14635   1.0697    3.59601 
 O(Fragment=2)        -1    7.52238   2.47622   3.63848 
 Zn(Fragment=2)       -1    9.33757   2.1641    3.16616 
 O(Fragment=2)        -1    4.32656   3.43468   2.68004 
 Zn(Fragment=2)       -1    6.14754   2.99416   2.32885 
 O(Fragment=2)        -1    7.52346   4.15683   1.536 
 Zn(Fragment=2)       -1    9.3385    3.62645   1.33672 
 O(Fragment=2)        -1    4.3272    4.36931   0.19834 
 Zn(Fragment=2)       -1    6.14811   3.80626   0.17252 
 O(Fragment=2)        -1    7.52363   4.28067  -1.15278 
 Zn(Fragment=2)       -1    9.33865   3.7342   -1.00287 
 O(Fragment=2)        -1    4.32688   3.66675  -2.35876 
 Zn(Fragment=2)       -1    6.14782   3.1958   -2.04932 
 O(Fragment=2)        -1    7.52283   2.80043  -3.40083 
 Zn(Fragment=2)       -1    9.33795   2.4462   -2.95898 
 O(Fragment=2)        -1    4.3257    1.59533  -4.01454 
 Zn(Fragment=2)       -1    6.1468    1.39597  -3.48801 
 O(Fragment=2)        -1    7.52136   0.28152  -4.34949 
 Zn(Fragment=2)       -1    9.33668   0.25441  -3.78443 
 O(Fragment=2)        -1    4.32413  -1.05373  -4.13655 
 Zn(Fragment=2)       -1    6.14543  -0.90577  -3.59402 
 O(Fragment=2)        -1    7.51979  -2.31393  -3.63638 
 Zn(Fragment=2)       -1    9.33531  -2.00397  -3.16393 
 O(Fragment=2)        -1    4.32275  -3.26857  -2.67818 
 Zn(Fragment=2)       -1    6.14424  -2.83023  -2.32686 
 O(Fragment=2)        -1    1.09665  -3.91101  -1.50321 
 Zn(Fragment=2)       -1    2.90857  -3.37489  -1.30188 
 O(Fragment=2)        -1   -2.14225  -4.15646  -0.19475 
 O(Fragment=2)        -1    1.09654  -4.03236   1.13122 
 Zn(Fragment=2)       -1    2.90843  -3.48002   0.98019 
 O(Fragment=2)        -1   -2.14333  -3.46009   2.33611 
 Zn(Fragment=2)       -1   -0.33285  -2.99768   2.03133 
 O(Fragment=2)        -1    1.09809  -2.58145   3.33656 
 Zn(Fragment=2)       -1    2.909    -2.22361   2.88763 
 O(Fragment=2)        -1   -2.14211  -1.40988   3.97505 
 Zn(Fragment=2)       -1   -0.33197  -1.21536   3.45576 
 O(Fragment=2)        -1    1.09954  -0.1115    4.26676 
 Zn(Fragment=2)       -1    2.91025  -0.08613   3.69263 
 O(Fragment=2)        -1   -2.14055   1.21205   4.0958 
 Zn(Fragment=2)       -1   -0.33061   1.06394   3.56074 
 O(Fragment=2)        -1    1.10108   2.43348   3.56752 
 Zn(Fragment=2)       -1    2.91158   2.1163    3.08751 
 O(Fragment=2)        -1   -2.13919   3.40421   2.65237 
 Zn(Fragment=2)       -1   -0.32943   2.96963   2.30592 
 O(Fragment=2)        -1    1.10214   4.08141   1.50592 
 Zn(Fragment=2)       -1    2.9125    3.54242   1.3034 
 O(Fragment=2)        -1   -2.13855   4.32927   0.19609 
 Zn(Fragment=2)       -1   -0.32888   3.77382   0.17062 
 O(Fragment=2)        -1    1.1023    4.20284  -1.13057 
 Zn(Fragment=2)       -1    2.91264   3.6475   -0.97822 
 O(Fragment=2)        -1   -2.13887   3.6339   -2.33482 
 Zn(Fragment=2)       -1   -0.32916   3.16931  -2.02956 
 O(Fragment=2)        -1    1.10152   2.75139  -3.33492 
 Zn(Fragment=2)       -1    2.91196   2.39141  -2.88587 
 O(Fragment=2)        -1   -2.14004   1.5837   -3.97365 
 Zn(Fragment=2)       -1   -0.33017   1.38702  -3.45423 
 O(Fragment=2)        -1    1.10008   0.28145  -4.26513 
 Zn(Fragment=2)       -1    2.91071   0.25393  -3.69087 
 O(Fragment=2)        -1   -2.1416   -1.03823  -4.0944 
 Zn(Fragment=2)       -1   -0.33152  -0.89228  -3.55921 
 O(Fragment=2)        -1    1.09852  -2.26355  -3.56591 
 Zn(Fragment=2)       -1    2.90938  -1.9485   -3.08575 
 O(Fragment=2)        -1   -2.14301  -3.2304   -2.65086 
 Zn(Fragment=2)       -1   -0.33258  -2.798    -2.30465 
 O(Fragment=2)        -1   -5.38645  -3.90924  -1.50513 
 Zn(Fragment=2)       -1   -3.58316  -3.35837  -1.29711 
 O(Fragment=2)        -1   -8.62752  -4.03137  -0.18938 
 Zn(Fragment=2)       -1   -6.83183  -3.56741  -0.1679 
 O(Fragment=2)        -1   -5.38662  -4.03071   1.13242 
 Zn(Fragment=2)       -1   -3.58331  -3.46307   0.97614 
 O(Fragment=2)        -1   -8.62721  -3.3557    2.26981 
 Zn(Fragment=2)       -1   -6.83155  -2.96796   2.01386 
 O(Fragment=2)        -1   -5.38582  -2.57867   3.3377 
 Zn(Fragment=2)       -1   -3.58262  -2.21167   2.87729 
 O(Fragment=2)        -1   -8.62607  -1.36359   3.86219 
 Zn(Fragment=2)       -1   -6.83055  -1.20059   3.42661 
 O(Fragment=2)        -1   -5.38438  -0.10771   4.26829 
 Zn(Fragment=2)       -1   -3.58138  -0.08166   3.67948 
 O(Fragment=2)        -1   -8.62456   1.18403   3.97953 
 Zn(Fragment=2)       -1   -6.8292    1.05963   3.5307 
 O(Fragment=2)        -1   -5.38284   2.43832   3.56876 
 Zn(Fragment=2)       -1   -3.58005   2.11305   3.07647 
 O(Fragment=2)        -1   -8.62324   3.31407   2.577 
 Zn(Fragment=2)       -1   -6.82803   2.94937   2.2864 
 O(Fragment=2)        -1   -5.38178   4.08694   1.50631 
 Zn(Fragment=2)       -1   -3.57913   3.53418   1.29861 
 O(Fragment=2)        -1   -8.62262   4.21292   0.19032 
 Zn(Fragment=2)       -1   -6.82748   3.74682   0.16897 
 O(Fragment=2)        -1   -5.38162   4.20841  -1.13128 
 Zn(Fragment=2)       -1   -3.57899   3.6389   -0.97503 
 O(Fragment=2)        -1   -8.62293   3.53725  -2.26888 
 Zn(Fragment=2)       -1   -6.82776   3.14738  -2.0128 
 O(Fragment=2)        -1   -5.3824    2.75636  -3.33653 
 Zn(Fragment=2)       -1   -3.57967   2.3872   -2.876 
 O(Fragment=2)        -1   -8.62406   1.54515  -3.86126 
 Zn(Fragment=2)       -1   -6.82876   1.38001  -3.42554 
 O(Fragment=2)        -1   -5.38384   0.2854   -4.26712 
 Zn(Fragment=2)       -1   -3.58091   0.2572   -3.67818 
 O(Fragment=2)        -1   -8.62558  -1.00248  -3.97859 
 Zn(Fragment=2)       -1   -6.83011  -0.88021  -3.52964 
 O(Fragment=2)        -1   -5.38539  -2.26063  -3.5676 
 Zn(Fragment=2)       -1   -3.58224  -1.93752  -3.07518 
 O(Fragment=2)        -1   -8.6269   -3.13252  -2.57606 
 Zn(Fragment=2)       -1   -6.83128  -2.76996  -2.28533 
 O(Fragment=2)        -1   -11.89217  -4.16868  -1.60455 
 Zn(Fragment=2)       -1   -10.11934  -3.39693  -1.31343 
 Zn(Fragment=2)       -1   -12.64285  -5.00705  -0.23458 
 O(Fragment=2)        -1   -11.89235  -4.29816   1.20675 
 Zn(Fragment=2)       -1   -10.11949  -3.50293   0.98803 
 Zn(Fragment=2)       -1   -12.64246  -4.17106   2.80812 
 O(Fragment=2)        -1   -11.89151  -2.75047   3.55725 
 Zn(Fragment=2)       -1   -10.1188  -2.23591   2.91227 
 Zn(Fragment=2)       -1   -12.64106  -1.70628   4.77833 
 O(Fragment=2)        -1   -11.88997  -0.11678   4.54913 
 Zn(Fragment=2)       -1   -10.11754  -0.07984   3.72427 
 Zn(Fragment=2)       -1   -12.63919   1.44582   4.92351 
 O(Fragment=2)        -1   -11.88833   2.59694   3.80353 
 Zn(Fragment=2)       -1   -10.1162   2.14174   3.11389 
 Zn(Fragment=2)       -1   -12.63756   4.08127   3.18819 
 O(Fragment=2)        -1   -11.8872   4.35413   1.60525 
 Zn(Fragment=2)       -1   -10.11528   3.58026   1.31426 
 Zn(Fragment=2)       -1   -12.63679   5.19339   0.23522 
 O(Fragment=2)        -1   -11.88702   4.48361  -1.20605 
 Zn(Fragment=2)       -1   -10.11513   3.68626  -0.98721 
 Zn(Fragment=2)       -1   -12.63718   4.3574   -2.80747 
 O(Fragment=2)        -1   -11.88786   2.93592  -3.55655 
 Zn(Fragment=2)       -1   -10.11582   2.41925  -2.91144 
 Zn(Fragment=2)       -1   -12.63858   1.89263  -4.77769 
 O(Fragment=2)        -1   -11.8894   0.30222  -4.54843 
 Zn(Fragment=2)       -1   -10.11707   0.26317  -3.72344 
 Zn(Fragment=2)       -1   -12.64045  -1.25948  -4.92286 
 O(Fragment=2)        -1   -11.89104  -2.41149  -3.80283 
 Zn(Fragment=2)       -1   -10.11842  -1.95841  -3.11306 
 Zn(Fragment=2)       -1   -12.64208  -3.89492  -3.18755 
 H(Fragment=1)        -1   -13.76013  -4.88069  -3.97609 
 H(Fragment=1)        -1   -13.75809  -1.59339  -6.14063 
 H(Fragment=1)        -1   -13.75575   2.33838  -5.95954 
 H(Fragment=1)        -1   -13.75401   5.41281  -3.50201 
 H(Fragment=1)        -1   -13.75352   6.45557   0.29328 
 H(Fragment=1)        -1   -13.75448   5.06837   3.97666 
 H(Fragment=1)        -1   -13.75652   1.78106   6.14119 
 H(Fragment=1)        -1   -13.75886  -2.1507    5.96011 
 H(Fragment=1)        -1   -13.7606  -5.22513   3.50258 
 H(Fragment=1)        -1   -13.76109  -6.2679   -0.29272 
 H(Fragment=1)        -1    11.71135   3.13896   4.64893 
 H(Fragment=1)        -1    13.26023   3.36035   4.98661 
 H(Fragment=1)        -1    11.71273   5.28636   1.96248 
 H(Fragment=1)        -1    13.26171   5.66374   2.10501 
 H(Fragment=1)        -1    11.71295   5.44459  -1.47311 
 H(Fragment=1)        -1    13.26194   5.83346  -1.58015 
 H(Fragment=1)        -1    11.71192   3.55322  -4.34556 
 H(Fragment=1)        -1    13.26084   3.80469  -4.66126 
 H(Fragment=1)        -1    11.71005   0.33467  -5.5577 
 H(Fragment=1)        -1    13.25883   0.35235  -5.96146 
 H(Fragment=1)        -1    11.70804  -2.98166  -4.64653 
 H(Fragment=1)        -1    13.25667  -3.20489  -4.9841 
 H(Fragment=1)        -1    13.25519  -5.50829  -2.10251 
 H(Fragment=1)        -1    11.70666  -5.12906  -1.96009 
 H(Fragment=1)        -1    11.70644  -5.28729   1.4755 
 H(Fragment=1)        -1    13.25496  -5.67801   1.58265 
 H(Fragment=1)        -1    11.70747  -3.39592   4.34795 
 H(Fragment=1)        -1    13.25606  -3.64924   4.66377 
 H(Fragment=1)        -1    11.70934  -0.17737   5.5601 
 H(Fragment=1)        -1    13.25807  -0.1969    5.96396 
 Pt(Fragment=1)       0    -0.27641  -4.40181  -0.23076 
 N(Fragment=1)        0    -1.03254  -5.93062   0.96038 
 H(Fragment=1)        0    -0.26395  -6.48454   1.36084 
 H(Fragment=1)        0    -1.63682  -6.55421   0.40727 
 H(Fragment=1)        0    -1.62309  -5.59008   1.75688 
 

 GradGradGradGradGradGradGradGradGradGradGradGradGradGradGradGradGradGrad
 Berny optimization.
 Initialization pass.
 Trust Radius=3.00D-01 FncErr=1.00D-07 GrdErr=1.00D-07
 Number of steps in this run=      2 maximum allowed number of steps=      2.
 GradGradGradGradGradGradGradGradGradGradGradGradGradGradGradGradGradGrad

 Stoichiometry    H33NO90PtZn89
 Framework group  C1[X(H33NO90PtZn89)]
 Deg. of freedom   636
 Full point group                 C1      NOp   1
 Largest Abelian subgroup         C1      NOp   1
 Largest concise Abelian subgroup C1      NOp   1
                         Standard orientation:                         
 ---------------------------------------------------------------------
 Center     Atomic      Atomic             Coordinates (Angstroms)
 Number     Number       Type             X           Y           Z
 ---------------------------------------------------------------------
      1          8           0      -12.668230    4.792571   -1.833114
      2          8           0      -10.839858    4.043095   -0.188692
      3         30           0      -12.559808    3.231587   -0.151208
      4          8           0      -12.668026    4.940561    1.380110
      5          8           0      -10.840173    3.367408    2.270573
      6         30           0      -12.560061    2.689084    1.823315
      7          8           0      -12.668985    3.171602    4.066649
      8          8           0      -10.841304    1.375247    3.863001
      9         30           0      -12.560969    1.089595    3.101861
     10          8           0      -12.670740    0.161376    5.200336
     11          8           0      -10.842819   -1.172451    3.980339
     12         30           0      -12.562185   -0.955930    3.196071
     13          8           0      -12.672620   -2.940312    4.348142
     14          8           0      -10.844140   -3.302552    2.577768
     15         30           0      -12.563246   -2.666169    2.069959
     16          8           0      -12.673908   -4.948723    1.835576
     17          8           0      -10.844762   -4.201429    0.191022
     18         30           0      -12.563745   -3.387870    0.153662
     19          8           0      -12.674111   -5.096713   -1.377648
     20          8           0      -10.844447   -3.525742   -2.268243
     21         30           0      -12.563492   -2.845366   -1.820861
     22          8           0      -12.673153   -3.327754   -4.064187
     23          8           0      -10.843316   -1.533581   -3.860671
     24         30           0      -12.562584   -1.245877   -3.099407
     25          8           0      -12.671398   -0.317529   -5.197874
     26          8           0      -10.841801    1.014118   -3.978009
     27         30           0      -12.561367    0.799647   -3.193617
     28          8           0      -12.669518    2.784160   -4.345680
     29          8           0      -10.840480    3.144218   -2.575438
     30         30           0      -12.560307    2.509886   -2.067505
     31          8           0       -7.518710    3.994536   -1.533906
     32         30           0       -9.334370    3.466320   -1.334500
     33          8           0       -4.322047    4.203063   -0.196470
     34         30           0       -6.143676    3.642324   -0.170531
     35          8           0       -7.518539    4.118371    1.154871
     36         30           0       -9.334222    3.574074    1.005092
     37          8           0       -4.322433    3.500636    2.360625
     38         30           0       -6.143960    3.031869    2.051312
     39          8           0       -7.519342    2.638133    3.402926
     40         30           0       -9.334920    2.286070    2.961198
     41          8           0       -4.323610    1.429221    4.016405
     42         30           0       -6.144982    1.232034    3.490004
     43          8           0       -7.520810    0.119223    4.351578
     44         30           0       -9.336197    0.094284    3.786651
     45          8           0       -4.325185   -1.219833    4.138411
     46         30           0       -6.146351   -1.069705    3.596015
     47          8           0       -7.522383   -2.476223    3.638475
     48         30           0       -9.337566   -2.164098    3.166157
     49          8           0       -4.326558   -3.434676    2.680041
     50         30           0       -6.147544   -2.994162    2.328850
     51          8           0       -7.523461   -4.156831    1.535998
     52         30           0       -9.338504   -3.626450    1.336723
     53          8           0       -4.327205   -4.369314    0.198342
     54         30           0       -6.148106   -3.806260    0.172525
     55          8           0       -7.523631   -4.280667   -1.152779
     56         30           0       -9.338652   -3.734203   -1.002869
     57          8           0       -4.326878   -3.666746   -2.358761
     58         30           0       -6.147822   -3.195805   -2.049318
     59          8           0       -7.522829   -2.800429   -3.400833
     60         30           0       -9.337954   -2.446200   -2.958975
     61          8           0       -4.325702   -1.595329   -4.014541
     62         30           0       -6.146800   -1.395970   -3.488011
     63          8           0       -7.521361   -0.281518   -4.349486
     64         30           0       -9.336677   -0.254414   -3.784429
     65          8           0       -4.324126    1.053725   -4.136547
     66         30           0       -6.145431    0.905769   -3.594021
     67          8           0       -7.519787    2.313928   -3.636383
     68         30           0       -9.335307    2.003968   -3.163934
     69          8           0       -4.322752    3.268567   -2.678178
     70         30           0       -6.144238    2.830226   -2.326856
     71          8           0       -1.096649    3.911005   -1.503214
     72         30           0       -2.908568    3.374885   -1.301882
     73          8           0        2.142248    4.156455   -0.194750
     74          8           0       -1.096537    4.032365    1.131217
     75         30           0       -2.908433    3.480023    0.980194
     76          8           0        2.143328    3.460093    2.336113
     77         30           0        0.332849    2.997677    2.031333
     78          8           0       -1.098089    2.581452    3.336565
     79         30           0       -2.909000    2.223614    2.887628
     80          8           0        2.142106    1.409877    3.975046
     81         30           0        0.331969    1.215362    3.455759
     82          8           0       -1.099535    0.111497    4.266758
     83         30           0       -2.910246    0.086132    3.692630
     84          8           0        2.140547   -1.212046    4.095803
     85         30           0        0.330614   -1.063938    3.560735
     86          8           0       -1.101078   -2.433484    3.567521
     87         30           0       -2.911581   -2.116296    3.087509
     88          8           0        2.139188   -3.404205    2.652369
     89         30           0        0.329432   -2.969634    2.305924
     90          8           0       -1.102135   -4.081415    1.505923
     91         30           0       -2.912496   -3.542417    1.303401
     92          8           0        2.138548   -4.329270    0.196088
     93         30           0        0.328876   -3.773815    0.170620
     94          8           0       -1.102302   -4.202843   -1.130574
     95         30           0       -2.912640   -3.647500   -0.978225
     96          8           0        2.138872   -3.633898   -2.334825
     97         30           0        0.329157   -3.169311   -2.029563
     98          8           0       -1.101515   -2.751386   -3.334919
     99         30           0       -2.911959   -2.391409   -2.885866
    100          8           0        2.140036   -1.583697   -3.973647
    101         30           0        0.330169   -1.387023   -3.454229
    102          8           0       -1.100076   -0.281451   -4.265126
    103         30           0       -2.910713   -0.253926   -3.690868
    104          8           0        2.141595    1.038226   -4.094404
    105         30           0        0.331525    0.892277   -3.559206
    106          8           0       -1.098525    2.263554   -3.565909
    107         30           0       -2.909378    1.948501   -3.085747
    108          8           0        2.143012    3.230405   -2.650856
    109         30           0        0.332584    2.797997   -2.304646
    110          8           0        5.386448    3.909237   -1.505133
    111         30           0        3.583159    3.358373   -1.297108
    112          8           0        8.627520    4.031366   -0.189384
    113         30           0        6.831829    3.567408   -0.167902
    114          8           0        5.386617    4.030709    1.132425
    115         30           0        3.583307    3.463069    0.976140
    116          8           0        8.627205    3.355699    2.269810
    117         30           0        6.831550    2.967965    2.013864
    118          8           0        5.385824    2.578668    3.337699
    119         30           0        3.582618    2.211666    2.877291
    120          8           0        8.626074    1.363595    3.862192
    121         30           0        6.830546    1.200594    3.426606
    122          8           0        5.384384    0.107711    4.268291
    123         30           0        3.581376    0.081665    3.679476
    124          8           0        8.624559   -1.184030    3.979526
    125         30           0        6.829202   -1.059627    3.530704
    126          8           0        5.382840   -2.438323    3.568764
    127         30           0        3.580046   -2.113054    3.076473
    128          8           0        8.623238   -3.314069    2.576996
    129         30           0        6.828030   -2.949371    2.286396
    130          8           0        5.381783   -4.086936    1.506313
    131         30           0        3.579134   -3.534183    1.298610
    132          8           0        8.622617   -4.212920    0.190319
    133         30           0        6.827479   -3.746821    0.168966
    134          8           0        5.381616   -4.208414   -1.131275
    135         30           0        3.578990   -3.638899   -0.975031
    136          8           0        8.622931   -3.537253   -2.268875
    137         30           0        6.827758   -3.147377   -2.012801
    138          8           0        5.382403   -2.756356   -3.336532
    139         30           0        3.579669   -2.387204   -2.875995
    140          8           0        8.624062   -1.545149   -3.861257
    141         30           0        6.828762   -1.380007   -3.425543
    142          8           0        5.383843   -0.285400   -4.267124
    143         30           0        3.580910   -0.257203   -3.678179
    144          8           0        8.625578    1.002476   -3.978592
    145         30           0        6.830106    0.880214   -3.529641
    146          8           0        5.385387    2.260634   -3.567597
    147         30           0        3.582241    1.937516   -3.075177
    148          8           0        8.626898    3.132515   -2.576061
    149         30           0        6.831277    2.769959   -2.285333
    150          8           0       11.892171    4.168682   -1.604547
    151         30           0       10.119342    3.396930   -1.313434
    152         30           0       12.642854    5.007048   -0.234575
    153          8           0       11.892349    4.298160    1.206753
    154         30           0       10.119488    3.502928    0.988035
    155         30           0       12.642464    4.171062    2.808121
    156          8           0       11.891510    2.750470    3.557248
    157         30           0       10.118801    2.235912    2.912266
    158         30           0       12.641065    1.706284    4.778333
    159          8           0       11.889975    0.116777    4.549129
    160         30           0       10.117544    0.079841    3.724269
    161         30           0       12.639190   -1.445824    4.923508
    162          8           0       11.888330   -2.596939    3.803531
    163         30           0       10.116198   -2.141741    3.113885
    164         30           0       12.637556   -4.081265    3.188194
    165          8           0       11.887203   -4.354130    1.605247
    166         30           0       10.115275   -3.580264    1.314262
    167         30           0       12.636787   -5.193390    0.235222
    168          8           0       11.887025   -4.483608   -1.206053
    169         30           0       10.115129   -3.686262   -0.987207
    170         30           0       12.637176   -4.357405   -2.807474
    171          8           0       11.887864   -2.935918   -3.556548
    172         30           0       10.115816   -2.419246   -2.911439
    173         30           0       12.638576   -1.892627   -4.777686
    174          8           0       11.889399   -0.302225   -4.548429
    175         30           0       10.117073   -0.263175   -3.723441
    176         30           0       12.640450    1.259481   -4.922862
    177          8           0       11.891044    2.411491   -3.802831
    178         30           0       10.118420    1.958407   -3.113058
    179         30           0       12.642084    3.894923   -3.187547
    180          1           0       13.760131    4.880692   -3.976092
    181          1           0       13.758092    1.593387   -6.140628
    182          1           0       13.755754   -2.338380   -5.959544
    183          1           0       13.754009   -5.412809   -3.502009
    184          1           0       13.753523   -6.455571    0.293282
    185          1           0       13.754482   -5.068368    3.976658
    186          1           0       13.756520   -1.781063    6.141194
    187          1           0       13.758859    2.150705    5.960111
    188          1           0       13.760604    5.225133    3.502576
    189          1           0       13.761090    6.267896   -0.292716
    190          1           0      -11.711353   -3.138961    4.648928
    191          1           0      -13.260229   -3.360345    4.986605
    192          1           0      -11.712730   -5.286361    1.962484
    193          1           0      -13.261706   -5.663737    2.105012
    194          1           0      -11.712948   -5.444592   -1.473105
    195          1           0      -13.261939   -5.833463   -1.580146
    196          1           0      -11.711923   -3.553216   -4.345561
    197          1           0      -13.260840   -3.804692   -4.661264
    198          1           0      -11.710047   -0.334673   -5.557703
    199          1           0      -13.258828   -0.352347   -5.961459
    200          1           0      -11.708036    2.981662   -4.646535
    201          1           0      -13.256671    3.204894   -4.984101
    202          1           0      -13.255194    5.508286   -2.102508
    203          1           0      -11.706659    5.129062   -1.960091
    204          1           0      -11.706442    5.287293    1.475498
    205          1           0      -13.254961    5.678011    1.582650
    206          1           0      -11.707467    3.395916    4.347954
    207          1           0      -13.256060    3.649241    4.663768
    208          1           0      -11.709343    0.177374    5.560096
    209          1           0      -13.258072    0.196896    5.963963
    210         78           0        0.276412    4.401806   -0.230764
    211          7           0        1.032539    5.930620    0.960377
    212          1           0        0.263949    6.484542    1.360842
    213          1           0        1.636822    6.554206    0.407268
    214          1           0        1.623091    5.590080    1.756880
 ---------------------------------------------------------------------
 Rotational constants (GHZ):      0.0042891      0.0009178      0.0009119
 Standard basis: VSTO-6G (5D, 7F)
 There are   763 symmetry adapted cartesian basis functions of A   symmetry.
 There are   762 symmetry adapted basis functions of A   symmetry.
   762 basis functions,  4578 primitive gaussians,   763 cartesian basis functions
   383 alpha electrons      383 beta electrons
       nuclear repulsion energy     17964.6928000120 Hartrees.
 Integral buffers will be    262144 words long.
 Regular integral format.
 Two-electron integral symmetry is turned off.
 Do NDO integrals.
 One-electron integrals computed using PRISM.
 NBasis=   762 RedAO= F EigKep=  0.00D+00  NBF=   762
 NBsUse=   762 1.00D-04 EigRej=  0.00D+00 NBFU=   762
 Nonelectrostatic core Hamiltonian diagonalized for initial guess.
 Overlap will be assumed to be unity.
 Keep J ints in memory in canonical form, NReq=5544419.
 Requested convergence on RMS density matrix=1.00D-08 within 128 cycles.
 Requested convergence on MAX density matrix=1.00D-06.
 Requested convergence on             energy=1.00D-06.
 No special actions if energy rises.
 EnCoef did     6 forward-backward iterations
 EnCoef did     2 forward-backward iterations
 EnCoef did     5 forward-backward iterations
 EnCoef did     9 forward-backward iterations
 EnCoef did     6 forward-backward iterations
 EnCoef did     5 forward-backward iterations
 EnCoef did     4 forward-backward iterations
 EnCoef did   100 forward-backward iterations
 EnCoef did    12 forward-backward iterations
 EnCoef did     2 forward-backward iterations
 EnCoef did     3 forward-backward iterations
 SCF Done:  E(RPM6) =  -10.2532250149     A.U. after   58 cycles
            NFock= 57  Conv=0.53D-08     -V/T= 0.9844
 Range of M.O.s used for correlation:     1   762
 NBasis=   762 NAE=   383 NBE=   383 NFC=     0 NFV=     0
 NROrb=    762 NOA=   383 NOB=   383 NVA=   379 NVB=   379
          Differentiating once with respect to electric field.
                with respect to dipole field.
          Electric field/nuclear overlap derivatives assumed to be zero.
 Keep J ints in memory in canonical form, NReq=3846997.
          There are     3 degrees of freedom in the 1st order CPHF.  IDoFFX=0 NUNeed=     3.
 LinEq1:  Iter=  0 NonCon=     3 RMS=1.74D-01 Max=3.48D+01 NDo=     3
 AX will form     3 AO Fock derivatives at one time.
 LinEq1:  Iter=  1 NonCon=     3 RMS=4.99D-02 Max=2.20D+00 NDo=     3
 LinEq1:  Iter=  2 NonCon=     3 RMS=3.25D-02 Max=5.96D+00 NDo=     3
 LinEq1:  Iter=  3 NonCon=     3 RMS=1.44D-02 Max=1.41D+00 NDo=     3
 LinEq1:  Iter=  4 NonCon=     3 RMS=5.48D-03 Max=4.58D-01 NDo=     3
 LinEq1:  Iter=  5 NonCon=     3 RMS=2.08D-03 Max=1.24D-01 NDo=     3
 LinEq1:  Iter=  6 NonCon=     3 RMS=9.65D-04 Max=1.88D-01 NDo=     3
 LinEq1:  Iter=  7 NonCon=     3 RMS=4.02D-04 Max=3.16D-02 NDo=     3
 LinEq1:  Iter=  8 NonCon=     3 RMS=2.18D-04 Max=3.26D-02 NDo=     3
 LinEq1:  Iter=  9 NonCon=     3 RMS=8.31D-05 Max=6.44D-03 NDo=     3
 LinEq1:  Iter= 10 NonCon=     3 RMS=3.65D-05 Max=3.72D-03 NDo=     3
 LinEq1:  Iter= 11 NonCon=     3 RMS=1.77D-05 Max=1.08D-03 NDo=     3
 LinEq1:  Iter= 12 NonCon=     3 RMS=6.61D-06 Max=6.49D-04 NDo=     3
 LinEq1:  Iter= 13 NonCon=     3 RMS=2.58D-06 Max=1.73D-04 NDo=     3
 LinEq1:  Iter= 14 NonCon=     3 RMS=1.20D-06 Max=1.11D-04 NDo=     3
 LinEq1:  Iter= 15 NonCon=     3 RMS=3.87D-07 Max=2.73D-05 NDo=     3
 LinEq1:  Iter= 16 NonCon=     3 RMS=1.63D-07 Max=1.51D-05 NDo=     3
 LinEq1:  Iter= 17 NonCon=     3 RMS=6.57D-08 Max=5.35D-06 NDo=     3
 LinEq1:  Iter= 18 NonCon=     3 RMS=2.27D-08 Max=1.84D-06 NDo=     3
 LinEq1:  Iter= 19 NonCon=     3 RMS=8.40D-09 Max=4.90D-07 NDo=     3
 LinEq1:  Iter= 20 NonCon=     3 RMS=3.46D-09 Max=2.34D-07 NDo=     3
 LinEq1:  Iter= 21 NonCon=     0 RMS=1.29D-09 Max=5.66D-08 NDo=     3
 Linear equations converged to 1.000D-08 1.000D-07 after    21 iterations.
 End of Minotr F.D. properties file   721 does not exist.
 End of Minotr F.D. properties file   722 does not exist.
 End of Minotr F.D. properties file   788 does not exist.
 Symmetrizing basis deriv contribution to polar:
 IMax=3 JMax=2 DiffMx= 0.00D+00
 G2DrvN: will do    14 centers at a time, making   16 passes.
 PxScal for G2LodP:  IOpCl= 0 ISclPx=1 IMOff=     1 NMtTot=     4 NTT=  290703 ScalPx= 1.04D+01
 Calling FoFCou, ICntrl=  3107 FMM=F I1Cent=   0 AccDes= 0.00D+00.
 PxScal for G2LodP:  IOpCl= 0 ISclPx=1 IMOff=     1 NMtTot=     4 NTT=  290703 ScalPx= 1.04D+01
 Calling FoFCou, ICntrl=  3107 FMM=F I1Cent=   0 AccDes= 0.00D+00.
 PxScal for G2LodP:  IOpCl= 0 ISclPx=1 IMOff=     1 NMtTot=     4 NTT=  290703 ScalPx= 1.04D+01
 Calling FoFCou, ICntrl=  3107 FMM=F I1Cent=   0 AccDes= 0.00D+00.
 PxScal for G2LodP:  IOpCl= 0 ISclPx=1 IMOff=     1 NMtTot=     4 NTT=  290703 ScalPx= 1.04D+01
 Calling FoFCou, ICntrl=  3107 FMM=F I1Cent=   0 AccDes= 0.00D+00.
 PxScal for G2LodP:  IOpCl= 0 ISclPx=1 IMOff=     1 NMtTot=     4 NTT=  290703 ScalPx= 1.04D+01
 Calling FoFCou, ICntrl=  3107 FMM=F I1Cent=   0 AccDes= 0.00D+00.
 PxScal for G2LodP:  IOpCl= 0 ISclPx=1 IMOff=     1 NMtTot=     4 NTT=  290703 ScalPx= 1.04D+01
 Calling FoFCou, ICntrl=  3107 FMM=F I1Cent=   0 AccDes= 0.00D+00.
 PxScal for G2LodP:  IOpCl= 0 ISclPx=1 IMOff=     1 NMtTot=     4 NTT=  290703 ScalPx= 1.04D+01
 Calling FoFCou, ICntrl=  3107 FMM=F I1Cent=   0 AccDes= 0.00D+00.
 PxScal for G2LodP:  IOpCl= 0 ISclPx=1 IMOff=     1 NMtTot=     4 NTT=  290703 ScalPx= 1.04D+01
 Calling FoFCou, ICntrl=  3107 FMM=F I1Cent=   0 AccDes= 0.00D+00.
 PxScal for G2LodP:  IOpCl= 0 ISclPx=1 IMOff=     1 NMtTot=     4 NTT=  290703 ScalPx= 1.04D+01
 Calling FoFCou, ICntrl=  3107 FMM=F I1Cent=   0 AccDes= 0.00D+00.
 PxScal for G2LodP:  IOpCl= 0 ISclPx=1 IMOff=     1 NMtTot=     4 NTT=  290703 ScalPx= 1.04D+01
 Calling FoFCou, ICntrl=  3107 FMM=F I1Cent=   0 AccDes= 0.00D+00.
 PxScal for G2LodP:  IOpCl= 0 ISclPx=1 IMOff=     1 NMtTot=     4 NTT=  290703 ScalPx= 1.04D+01
 Calling FoFCou, ICntrl=  3107 FMM=F I1Cent=   0 AccDes= 0.00D+00.
 PxScal for G2LodP:  IOpCl= 0 ISclPx=1 IMOff=     1 NMtTot=     4 NTT=  290703 ScalPx= 1.04D+01
 Calling FoFCou, ICntrl=  3107 FMM=F I1Cent=   0 AccDes= 0.00D+00.
 PxScal for G2LodP:  IOpCl= 0 ISclPx=1 IMOff=     1 NMtTot=     4 NTT=  290703 ScalPx= 1.04D+01
 Calling FoFCou, ICntrl=  3107 FMM=F I1Cent=   0 AccDes= 0.00D+00.
 PxScal for G2LodP:  IOpCl= 0 ISclPx=1 IMOff=     1 NMtTot=     4 NTT=  290703 ScalPx= 1.04D+01
 Calling FoFCou, ICntrl=  3107 FMM=F I1Cent=   0 AccDes= 0.00D+00.
 PxScal for G2LodP:  IOpCl= 0 ISclPx=1 IMOff=     1 NMtTot=     4 NTT=  290703 ScalPx= 1.04D+01
 Calling FoFCou, ICntrl=  3107 FMM=F I1Cent=   0 AccDes= 0.00D+00.
 PxScal for G2LodP:  IOpCl= 0 ISclPx=1 IMOff=     1 NMtTot=     4 NTT=  290703 ScalPx= 1.04D+01
 Calling FoFCou, ICntrl=  3107 FMM=F I1Cent=   0 AccDes= 0.00D+00.
 End of G2Drv F.D. properties file   721 does not exist.
 End of G2Drv F.D. properties file   722 does not exist.
 End of G2Drv F.D. properties file   788 does not exist.
          IDoAtm=00000000000000000000000000000000000000000000000000
          IDoAtm=00000000000000000000000000000000000000000000000000
          IDoAtm=00000000000000000000000000000000000000000000000000
          IDoAtm=00000000000000000000000000000000000000000000000000
          IDoAtm=00000000011111
          Differentiating once with respect to electric field.
                with respect to dipole field.
          Differentiating once with respect to nuclear coordinates.
          Electric field/nuclear overlap derivatives assumed to be zero.
 Keep J ints in memory in canonical form, NReq=3849779.
          There are    18 degrees of freedom in the 1st order CPHF.  IDoFFX=5 NUNeed=    18.
 Recover   3 previous solutions.
 LinEq1:  Iter=  0 NonCon=    15 RMS=1.00D-03 Max=5.96D-02 NDo=    15
 AX will form    15 AO Fock derivatives at one time.
 LinEq1:  Iter=  1 NonCon=    15 RMS=2.75D-04 Max=1.92D-02 NDo=    15
 LinEq1:  Iter=  2 NonCon=    15 RMS=1.25D-04 Max=2.41D-02 NDo=    15
 LinEq1:  Iter=  3 NonCon=    15 RMS=6.84D-05 Max=1.06D-02 NDo=    15
 LinEq1:  Iter=  4 NonCon=    15 RMS=3.03D-05 Max=4.08D-03 NDo=    15
 LinEq1:  Iter=  5 NonCon=    15 RMS=1.08D-05 Max=1.85D-03 NDo=    15
 LinEq1:  Iter=  6 NonCon=    15 RMS=5.41D-06 Max=5.33D-04 NDo=    15
 LinEq1:  Iter=  7 NonCon=    15 RMS=2.86D-06 Max=4.18D-04 NDo=    15
 LinEq1:  Iter=  8 NonCon=    15 RMS=1.27D-06 Max=1.25D-04 NDo=    15
 LinEq1:  Iter=  9 NonCon=    15 RMS=4.73D-07 Max=3.25D-05 NDo=    15
 LinEq1:  Iter= 10 NonCon=    15 RMS=2.16D-07 Max=2.63D-05 NDo=    15
 LinEq1:  Iter= 11 NonCon=    15 RMS=8.69D-08 Max=9.33D-06 NDo=    15
 LinEq1:  Iter= 12 NonCon=    15 RMS=4.02D-08 Max=3.26D-06 NDo=    15
 LinEq1:  Iter= 13 NonCon=    14 RMS=1.77D-08 Max=1.42D-06 NDo=    15
 LinEq1:  Iter= 14 NonCon=     7 RMS=7.53D-09 Max=4.93D-07 NDo=    15
 LinEq1:  Iter= 15 NonCon=     4 RMS=2.71D-09 Max=1.91D-07 NDo=    15
 LinEq1:  Iter= 16 NonCon=     0 RMS=9.83D-10 Max=4.98D-08 NDo=    15
 Linear equations converged to 1.000D-08 1.000D-07 after    16 iterations.
 Isotropic polarizability for W=    0.000000     3836.31 Bohr**3.
 End of Minotr F.D. properties file   721 does not exist.
 End of Minotr F.D. properties file   722 does not exist.
 End of Minotr F.D. properties file   788 does not exist.

 **********************************************************************

            Population analysis using the SCF density.

 **********************************************************************

 Orbital symmetries:
       Occupied  (A) (A) (A) (A) (A) (A) (A) (A) (A) (A) (A) (A)
                 (A) (A) (A) (A) (A) (A) (A) (A) (A) (A) (A) (A)
                 (A) (A) (A) (A) (A) (A) (A) (A) (A) (A) (A) (A)
                 (A) (A) (A) (A) (A) (A) (A) (A) (A) (A) (A) (A)
                 (A) (A) (A) (A) (A) (A) (A) (A) (A) (A) (A) (A)
                 (A) (A) (A) (A) (A) (A) (A) (A) (A) (A) (A) (A)
                 (A) (A) (A) (A) (A) (A) (A) (A) (A) (A) (A) (A)
                 (A) (A) (A) (A) (A) (A) (A) (A) (A) (A) (A) (A)
                 (A) (A) (A) (A) (A) (A) (A) (A) (A) (A) (A) (A)
                 (A) (A) (A) (A) (A) (A) (A) (A) (A) (A) (A) (A)
                 (A) (A) (A) (A) (A) (A) (A) (A) (A) (A) (A) (A)
                 (A) (A) (A) (A) (A) (A) (A) (A) (A) (A) (A) (A)
                 (A) (A) (A) (A) (A) (A) (A) (A) (A) (A) (A) (A)
                 (A) (A) (A) (A) (A) (A) (A) (A) (A) (A) (A) (A)
                 (A) (A) (A) (A) (A) (A) (A) (A) (A) (A) (A) (A)
                 (A) (A) (A) (A) (A) (A) (A) (A) (A) (A) (A) (A)
                 (A) (A) (A) (A) (A) (A) (A) (A) (A) (A) (A) (A)
                 (A) (A) (A) (A) (A) (A) (A) (A) (A) (A) (A) (A)
                 (A) (A) (A) (A) (A) (A) (A) (A) (A) (A) (A) (A)
                 (A) (A) (A) (A) (A) (A) (A) (A) (A) (A) (A) (A)
                 (A) (A) (A) (A) (A) (A) (A) (A) (A) (A) (A) (A)
                 (A) (A) (A) (A) (A) (A) (A) (A) (A) (A) (A) (A)
                 (A) (A) (A) (A) (A) (A) (A) (A) (A) (A) (A) (A)
                 (A) (A) (A) (A) (A) (A) (A) (A) (A) (A) (A) (A)
                 (A) (A) (A) (A) (A) (A) (A) (A) (A) (A) (A) (A)
                 (A) (A) (A) (A) (A) (A) (A) (A) (A) (A) (A) (A)
                 (A) (A) (A) (A) (A) (A) (A) (A) (A) (A) (A) (A)
                 (A) (A) (A) (A) (A) (A) (A) (A) (A) (A) (A) (A)
                 (A) (A) (A) (A) (A) (A) (A) (A) (A) (A) (A) (A)
                 (A) (A) (A) (A) (A) (A) (A) (A) (A) (A) (A) (A)
                 (A) (A) (A) (A) (A) (A) (A) (A) (A) (A) (A) (A)
                 (A) (A) (A) (A) (A) (A) (A) (A) (A) (A) (A)
       Virtual   (A) (A) (A) (A) (A) (A) (A) (A) (A) (A) (A) (A)
                 (A) (A) (A) (A) (A) (A) (A) (A) (A) (A) (A) (A)
                 (A) (A) (A) (A) (A) (A) (A) (A) (A) (A) (A) (A)
                 (A) (A) (A) (A) (A) (A) (A) (A) (A) (A) (A) (A)
                 (A) (A) (A) (A) (A) (A) (A) (A) (A) (A) (A) (A)
                 (A) (A) (A) (A) (A) (A) (A) (A) (A) (A) (A) (A)
                 (A) (A) (A) (A) (A) (A) (A) (A) (A) (A) (A) (A)
                 (A) (A) (A) (A) (A) (A) (A) (A) (A) (A) (A) (A)
                 (A) (A) (A) (A) (A) (A) (A) (A) (A) (A) (A) (A)
                 (A) (A) (A) (A) (A) (A) (A) (A) (A) (A) (A) (A)
                 (A) (A) (A) (A) (A) (A) (A) (A) (A) (A) (A) (A)
                 (A) (A) (A) (A) (A) (A) (A) (A) (A) (A) (A) (A)
                 (A) (A) (A) (A) (A) (A) (A) (A) (A) (A) (A) (A)
                 (A) (A) (A) (A) (A) (A) (A) (A) (A) (A) (A) (A)
                 (A) (A) (A) (A) (A) (A) (A) (A) (A) (A) (A) (A)
                 (A) (A) (A) (A) (A) (A) (A) (A) (A) (A) (A) (A)
                 (A) (A) (A) (A) (A) (A) (A) (A) (A) (A) (A) (A)
                 (A) (A) (A) (A) (A) (A) (A) (A) (A) (A) (A) (A)
                 (A) (A) (A) (A) (A) (A) (A) (A) (A) (A) (A) (A)
                 (A) (A) (A) (A) (A) (A) (A) (A) (A) (A) (A) (A)
                 (A) (A) (A) (A) (A) (A) (A) (A) (A) (A) (A) (A)
                 (A) (A) (A) (A) (A) (A) (A) (A) (A) (A) (A) (A)
                 (A) (A) (A) (A) (A) (A) (A) (A) (A) (A) (A) (A)
                 (A) (A) (A) (A) (A) (A) (A) (A) (A) (A) (A) (A)
                 (A) (A) (A) (A) (A) (A) (A) (A) (A) (A) (A) (A)
                 (A) (A) (A) (A) (A) (A) (A) (A) (A) (A) (A) (A)
                 (A) (A) (A) (A) (A) (A) (A) (A) (A) (A) (A) (A)
                 (A) (A) (A) (A) (A) (A) (A) (A) (A) (A) (A) (A)
                 (A) (A) (A) (A) (A) (A) (A) (A) (A) (A) (A) (A)
                 (A) (A) (A) (A) (A) (A) (A) (A) (A) (A) (A) (A)
                 (A) (A) (A) (A) (A) (A) (A) (A) (A) (A) (A) (A)
                 (A) (A) (A) (A) (A) (A) (A)
 The electronic state is 1-A.
 Alpha  occ. eigenvalues --   -1.64866  -1.59603  -1.51594  -1.50620  -1.49274
 Alpha  occ. eigenvalues --   -1.46066  -1.45007  -1.40959  -1.39222  -1.38567
 Alpha  occ. eigenvalues --   -1.32043  -1.31348  -1.29657  -1.28337  -1.25140
 Alpha  occ. eigenvalues --   -1.25077  -1.23349  -1.22967  -1.22122  -1.20979
 Alpha  occ. eigenvalues --   -1.19279  -1.19251  -1.19248  -1.18444  -1.18234
 Alpha  occ. eigenvalues --   -1.17946  -1.17903  -1.17489  -1.15765  -1.15503
 Alpha  occ. eigenvalues --   -1.15188  -1.14526  -1.14328  -1.12450  -1.10973
 Alpha  occ. eigenvalues --   -1.10599  -1.10447  -1.08124  -1.07467  -1.06879
 Alpha  occ. eigenvalues --   -1.06174  -1.05935  -1.05187  -1.04631  -1.04147
 Alpha  occ. eigenvalues --   -1.03493  -1.03242  -1.03127  -1.02373  -1.02143
 Alpha  occ. eigenvalues --   -1.01466  -1.01037  -1.00802  -1.00351  -1.00307
 Alpha  occ. eigenvalues --   -1.00078  -0.99993  -0.99870  -0.98995  -0.98629
 Alpha  occ. eigenvalues --   -0.98276  -0.97732  -0.97512  -0.97409  -0.97351
 Alpha  occ. eigenvalues --   -0.97128  -0.96994  -0.96781  -0.96757  -0.95865
 Alpha  occ. eigenvalues --   -0.95633  -0.95453  -0.95264  -0.94676  -0.94524
 Alpha  occ. eigenvalues --   -0.94451  -0.94431  -0.94412  -0.93925  -0.93909
 Alpha  occ. eigenvalues --   -0.93847  -0.93805  -0.93725  -0.93663  -0.93614
 Alpha  occ. eigenvalues --   -0.93294  -0.92791  -0.91939  -0.91930  -0.90574
 Alpha  occ. eigenvalues --   -0.90488  -0.89132  -0.89026  -0.88962  -0.79741
 Alpha  occ. eigenvalues --   -0.79049  -0.79049  -0.77599  -0.77009  -0.77005
 Alpha  occ. eigenvalues --   -0.76791  -0.76648  -0.76493  -0.76191  -0.75961
 Alpha  occ. eigenvalues --   -0.75771  -0.75700  -0.75240  -0.74710  -0.74288
 Alpha  occ. eigenvalues --   -0.74055  -0.73401  -0.73086  -0.73085  -0.72876
 Alpha  occ. eigenvalues --   -0.72532  -0.71774  -0.71429  -0.71306  -0.71098
 Alpha  occ. eigenvalues --   -0.70586  -0.70441  -0.69801  -0.69627  -0.69154
 Alpha  occ. eigenvalues --   -0.68785  -0.68485  -0.67932  -0.67932  -0.67116
 Alpha  occ. eigenvalues --   -0.66723  -0.65904  -0.65388  -0.65375  -0.65212
 Alpha  occ. eigenvalues --   -0.64540  -0.64471  -0.64237  -0.64228  -0.63876
 Alpha  occ. eigenvalues --   -0.63564  -0.63103  -0.62849  -0.62183  -0.62000
 Alpha  occ. eigenvalues --   -0.61908  -0.61714  -0.61664  -0.60732  -0.60705
 Alpha  occ. eigenvalues --   -0.60667  -0.59515  -0.59170  -0.58972  -0.57981
 Alpha  occ. eigenvalues --   -0.57953  -0.57787  -0.57478  -0.57460  -0.57194
 Alpha  occ. eigenvalues --   -0.57120  -0.56916  -0.56842  -0.56731  -0.56672
 Alpha  occ. eigenvalues --   -0.56306  -0.56227  -0.55914  -0.55906  -0.55804
 Alpha  occ. eigenvalues --   -0.55804  -0.55594  -0.55589  -0.55039  -0.55012
 Alpha  occ. eigenvalues --   -0.54768  -0.54670  -0.54580  -0.54509  -0.54262
 Alpha  occ. eigenvalues --   -0.54069  -0.53865  -0.53850  -0.53602  -0.53524
 Alpha  occ. eigenvalues --   -0.53398  -0.53279  -0.53087  -0.53080  -0.53077
 Alpha  occ. eigenvalues --   -0.52879  -0.52870  -0.52802  -0.52781  -0.52780
 Alpha  occ. eigenvalues --   -0.52688  -0.52628  -0.52556  -0.52550  -0.52439
 Alpha  occ. eigenvalues --   -0.52228  -0.52076  -0.51807  -0.51687  -0.51629
 Alpha  occ. eigenvalues --   -0.51445  -0.51342  -0.51296  -0.50895  -0.50793
 Alpha  occ. eigenvalues --   -0.50610  -0.50496  -0.50492  -0.50425  -0.49639
 Alpha  occ. eigenvalues --   -0.49508  -0.49365  -0.49085  -0.49082  -0.48944
 Alpha  occ. eigenvalues --   -0.48930  -0.48769  -0.48601  -0.48492  -0.48382
 Alpha  occ. eigenvalues --   -0.48239  -0.48229  -0.48210  -0.48033  -0.47961
 Alpha  occ. eigenvalues --   -0.47776  -0.47706  -0.47613  -0.47548  -0.47480
 Alpha  occ. eigenvalues --   -0.47435  -0.47373  -0.47305  -0.47293  -0.47230
 Alpha  occ. eigenvalues --   -0.47158  -0.46929  -0.46903  -0.46848  -0.46758
 Alpha  occ. eigenvalues --   -0.46555  -0.46548  -0.46517  -0.46420  -0.46369
 Alpha  occ. eigenvalues --   -0.46355  -0.46290  -0.46150  -0.46036  -0.45963
 Alpha  occ. eigenvalues --   -0.45930  -0.45898  -0.45871  -0.45833  -0.45764
 Alpha  occ. eigenvalues --   -0.45702  -0.45602  -0.45436  -0.45329  -0.45225
 Alpha  occ. eigenvalues --   -0.45121  -0.45089  -0.45042  -0.44976  -0.44968
 Alpha  occ. eigenvalues --   -0.44833  -0.44668  -0.44575  -0.44492  -0.44363
 Alpha  occ. eigenvalues --   -0.44222  -0.44134  -0.44076  -0.44018  -0.43929
 Alpha  occ. eigenvalues --   -0.43775  -0.43727  -0.43656  -0.43653  -0.43637
 Alpha  occ. eigenvalues --   -0.43532  -0.43360  -0.43229  -0.43192  -0.43099
 Alpha  occ. eigenvalues --   -0.43069  -0.43038  -0.43018  -0.42797  -0.42778
 Alpha  occ. eigenvalues --   -0.42624  -0.42587  -0.42477  -0.42407  -0.42331
 Alpha  occ. eigenvalues --   -0.42174  -0.42069  -0.42035  -0.41861  -0.41834
 Alpha  occ. eigenvalues --   -0.41755  -0.41703  -0.41658  -0.41624  -0.41479
 Alpha  occ. eigenvalues --   -0.41452  -0.41360  -0.41341  -0.41279  -0.41191
 Alpha  occ. eigenvalues --   -0.41166  -0.41099  -0.40995  -0.40968  -0.40955
 Alpha  occ. eigenvalues --   -0.40930  -0.40899  -0.40837  -0.40725  -0.40681
 Alpha  occ. eigenvalues --   -0.40619  -0.40588  -0.40538  -0.40524  -0.40417
 Alpha  occ. eigenvalues --   -0.40387  -0.40244  -0.40184  -0.40131  -0.40082
 Alpha  occ. eigenvalues --   -0.40045  -0.39930  -0.39887  -0.39867  -0.39761
 Alpha  occ. eigenvalues --   -0.39526  -0.39494  -0.39366  -0.39322  -0.39137
 Alpha  occ. eigenvalues --   -0.39082  -0.39056  -0.38989  -0.38948  -0.38876
 Alpha  occ. eigenvalues --   -0.38568  -0.38437  -0.38431  -0.38386  -0.38381
 Alpha  occ. eigenvalues --   -0.38285  -0.38236  -0.38092  -0.37807  -0.37576
 Alpha  occ. eigenvalues --   -0.37553  -0.37455  -0.37359  -0.37262  -0.37162
 Alpha  occ. eigenvalues --   -0.36952  -0.36928  -0.36712  -0.36640  -0.36107
 Alpha  occ. eigenvalues --   -0.36065  -0.36061  -0.36060  -0.35473  -0.35375
 Alpha  occ. eigenvalues --   -0.35150  -0.34427  -0.34417  -0.34203  -0.34100
 Alpha  occ. eigenvalues --   -0.33838  -0.33764  -0.32458
 Alpha virt. eigenvalues --   -0.21830  -0.21527  -0.21043  -0.19111  -0.18941
 Alpha virt. eigenvalues --   -0.18113  -0.17614  -0.17109  -0.17105  -0.17077
 Alpha virt. eigenvalues --   -0.16648  -0.16164  -0.15698  -0.15060  -0.14763
 Alpha virt. eigenvalues --   -0.14603  -0.13917  -0.13643  -0.12924  -0.12667
 Alpha virt. eigenvalues --   -0.12236  -0.11778  -0.11622  -0.11518  -0.11444
 Alpha virt. eigenvalues --   -0.10624  -0.10385  -0.09624  -0.09302  -0.09211
 Alpha virt. eigenvalues --   -0.08888  -0.08174  -0.08147  -0.08037  -0.07758
 Alpha virt. eigenvalues --   -0.07509  -0.07145  -0.06845  -0.06486  -0.06100
 Alpha virt. eigenvalues --   -0.05499  -0.05451  -0.05081  -0.05070  -0.04781
 Alpha virt. eigenvalues --   -0.04462  -0.04443  -0.04345  -0.04089  -0.03966
 Alpha virt. eigenvalues --   -0.03874  -0.03745  -0.03706  -0.03351  -0.03320
 Alpha virt. eigenvalues --   -0.02818  -0.02548  -0.01795  -0.01687  -0.01561
 Alpha virt. eigenvalues --   -0.01484  -0.01483  -0.01104  -0.00930  -0.00897
 Alpha virt. eigenvalues --   -0.00798  -0.00356  -0.00194  -0.00147  -0.00019
 Alpha virt. eigenvalues --    0.00004   0.00165   0.00366   0.00561   0.00737
 Alpha virt. eigenvalues --    0.00765   0.00818   0.00847   0.01009   0.01085
 Alpha virt. eigenvalues --    0.01381   0.01554   0.01722   0.01772   0.01779
 Alpha virt. eigenvalues --    0.01835   0.01906   0.01927   0.02361   0.02545
 Alpha virt. eigenvalues --    0.02556   0.02643   0.02952   0.02992   0.03213
 Alpha virt. eigenvalues --    0.03277   0.03354   0.03472   0.03534   0.03560
 Alpha virt. eigenvalues --    0.03597   0.03795   0.03834   0.03891   0.04043
 Alpha virt. eigenvalues --    0.04241   0.04306   0.04355   0.04401   0.04423
 Alpha virt. eigenvalues --    0.04444   0.04572   0.04713   0.04775   0.04894
 Alpha virt. eigenvalues --    0.04948   0.05010   0.05046   0.05390   0.05398
 Alpha virt. eigenvalues --    0.05452   0.05563   0.05594   0.05872   0.05878
 Alpha virt. eigenvalues --    0.05903   0.05939   0.05953   0.06052   0.06183
 Alpha virt. eigenvalues --    0.06244   0.06463   0.06483   0.06626   0.06697
 Alpha virt. eigenvalues --    0.06867   0.06893   0.06951   0.06980   0.07047
 Alpha virt. eigenvalues --    0.07079   0.07159   0.07247   0.07300   0.07313
 Alpha virt. eigenvalues --    0.07358   0.07373   0.07512   0.07520   0.07530
 Alpha virt. eigenvalues --    0.07599   0.07627   0.07657   0.07732   0.07858
 Alpha virt. eigenvalues --    0.07884   0.07921   0.07954   0.08046   0.08147
 Alpha virt. eigenvalues --    0.08172   0.08174   0.08209   0.08379   0.08496
 Alpha virt. eigenvalues --    0.08574   0.08680   0.08687   0.08961   0.09044
 Alpha virt. eigenvalues --    0.09140   0.09308   0.09381   0.09456   0.09550
 Alpha virt. eigenvalues --    0.09637   0.09712   0.09756   0.09832   0.09963
 Alpha virt. eigenvalues --    0.10113   0.10186   0.10322   0.10424   0.10440
 Alpha virt. eigenvalues --    0.10460   0.10661   0.10699   0.10828   0.11018
 Alpha virt. eigenvalues --    0.11135   0.11187   0.11236   0.11295   0.11363
 Alpha virt. eigenvalues --    0.11376   0.11560   0.11605   0.11836   0.11937
 Alpha virt. eigenvalues --    0.12019   0.12165   0.12231   0.12793   0.12817
 Alpha virt. eigenvalues --    0.12848   0.12893   0.12945   0.13014   0.13073
 Alpha virt. eigenvalues --    0.13087   0.13098   0.13128   0.13206   0.13283
 Alpha virt. eigenvalues --    0.13320   0.13420   0.13572   0.13619   0.13623
 Alpha virt. eigenvalues --    0.13759   0.13795   0.13825   0.13877   0.13967
 Alpha virt. eigenvalues --    0.14025   0.14060   0.14128   0.14143   0.14186
 Alpha virt. eigenvalues --    0.14338   0.14549   0.14693   0.14730   0.14805
 Alpha virt. eigenvalues --    0.14920   0.14993   0.15128   0.15149   0.15263
 Alpha virt. eigenvalues --    0.15278   0.15341   0.15436   0.15492   0.15595
 Alpha virt. eigenvalues --    0.15683   0.15993   0.16108   0.16186   0.16282
 Alpha virt. eigenvalues --    0.16346   0.16466   0.16565   0.16604   0.16680
 Alpha virt. eigenvalues --    0.16719   0.16777   0.16805   0.16883   0.16947
 Alpha virt. eigenvalues --    0.17083   0.17145   0.17219   0.17284   0.17412
 Alpha virt. eigenvalues --    0.17492   0.17622   0.17713   0.17777   0.17841
 Alpha virt. eigenvalues --    0.17892   0.17896   0.17910   0.18011   0.18110
 Alpha virt. eigenvalues --    0.18152   0.18328   0.18479   0.18486   0.18523
 Alpha virt. eigenvalues --    0.18567   0.18685   0.18734   0.18769   0.18923
 Alpha virt. eigenvalues --    0.18990   0.19027   0.19191   0.19250   0.19654
 Alpha virt. eigenvalues --    0.19740   0.19986   0.20043   0.20222   0.20228
 Alpha virt. eigenvalues --    0.20348   0.20509   0.20621   0.20740   0.20866
 Alpha virt. eigenvalues --    0.20886   0.20902   0.20909   0.20947   0.20993
 Alpha virt. eigenvalues --    0.21016   0.21092   0.21132   0.21150   0.21208
 Alpha virt. eigenvalues --    0.21213   0.21240   0.21266   0.21676   0.21713
 Alpha virt. eigenvalues --    0.21796   0.21864   0.21919   0.21942   0.22001
 Alpha virt. eigenvalues --    0.22037   0.22230   0.22251   0.22284   0.22303
 Alpha virt. eigenvalues --    0.22379   0.22436   0.22669   0.22711   0.22859
 Alpha virt. eigenvalues --    0.22914   0.23087   0.23150   0.23180   0.23518
 Alpha virt. eigenvalues --    0.23575   0.23595   0.23840   0.23962   0.23973
 Alpha virt. eigenvalues --    0.24087   0.24237   0.24261   0.24489   0.24622
 Alpha virt. eigenvalues --    0.24636   0.25055   0.25142   0.25145   0.25160
 Alpha virt. eigenvalues --    0.25211   0.25495   0.25658   0.25740   0.26605
 Alpha virt. eigenvalues --    0.26611   0.26851   0.27005   0.27016   0.27025
 Alpha virt. eigenvalues --    0.27069   0.27137   0.27444   0.27705   0.27822
 Alpha virt. eigenvalues --    0.28132   0.28155   0.28185   0.28228   0.28343
 Alpha virt. eigenvalues --    0.28846   0.29221   0.29387   0.30328   0.30871
 Alpha virt. eigenvalues --    0.30874   0.33086   0.33208   0.34125
          Condensed to atoms (all electrons):
 Mulliken charges:
               1
     1  O   -0.513290
     2  O   -0.658563
     3  Zn   0.363612
     4  O   -0.513252
     5  O   -0.657788
     6  Zn   0.364172
     7  O   -0.513399
     8  O   -0.655128
     9  Zn   0.365523
    10  O   -0.513541
    11  O   -0.652573
    12  Zn   0.366021
    13  O   -0.513584
    14  O   -0.650988
    15  Zn   0.365949
    16  O   -0.513581
    17  O   -0.650305
    18  Zn   0.365829
    19  O   -0.513576
    20  O   -0.650444
    21  Zn   0.365885
    22  O   -0.513577
    23  O   -0.651491
    24  Zn   0.366062
    25  O   -0.513556
    26  O   -0.653694
    27  Zn   0.365951
    28  O   -0.513453
    29  O   -0.656633
    30  Zn   0.364856
    31  O   -0.436272
    32  Zn   0.421540
    33  O   -0.463015
    34  Zn   0.372432
    35  O   -0.438008
    36  Zn   0.419140
    37  O   -0.433952
    38  Zn   0.371396
    39  O   -0.429941
    40  Zn   0.424156
    41  O   -0.398592
    42  Zn   0.369617
    43  O   -0.420699
    44  Zn   0.426571
    45  O   -0.381537
    46  Zn   0.366484
    47  O   -0.415421
    48  Zn   0.427045
    49  O   -0.377355
    50  Zn   0.365510
    51  O   -0.413207
    52  Zn   0.426997
    53  O   -0.375897
    54  Zn   0.365137
    55  O   -0.412768
    56  Zn   0.427029
    57  O   -0.376039
    58  Zn   0.365378
    59  O   -0.413950
    60  Zn   0.427270
    61  O   -0.377997
    62  Zn   0.366281
    63  O   -0.417665
    64  Zn   0.427486
    65  O   -0.387973
    66  Zn   0.369429
    67  O   -0.426424
    68  Zn   0.426604
    69  O   -0.416333
    70  Zn   0.376472
    71  O   -0.529734
    72  Zn   0.373717
    73  O   -0.673063
    74  O   -0.545713
    75  Zn   0.358072
    76  O   -0.523599
    77  Zn   0.300945
    78  O   -0.393003
    79  Zn   0.362428
    80  O   -0.372980
    81  Zn   0.362702
    82  O   -0.384013
    83  Zn   0.362868
    84  O   -0.380864
    85  Zn   0.363061
    86  O   -0.376983
    87  Zn   0.361130
    88  O   -0.382432
    89  Zn   0.365301
    90  O   -0.376922
    91  Zn   0.361905
    92  O   -0.382953
    93  Zn   0.366133
    94  O   -0.376432
    95  Zn   0.361882
    96  O   -0.382228
    97  Zn   0.365904
    98  O   -0.375151
    99  Zn   0.361116
   100  O   -0.380515
   101  Zn   0.364120
   102  O   -0.377411
   103  Zn   0.360929
   104  O   -0.366030
   105  Zn   0.367136
   106  O   -0.361880
   107  Zn   0.357962
   108  O   -0.451647
   109  Zn   0.282345
   110  O   -0.391838
   111  Zn   0.424154
   112  O   -0.464919
   113  Zn   0.389268
   114  O   -0.404874
   115  Zn   0.403175
   116  O   -0.463818
   117  Zn   0.386595
   118  O   -0.377050
   119  Zn   0.384272
   120  O   -0.458576
   121  Zn   0.378479
   122  O   -0.365441
   123  Zn   0.357082
   124  O   -0.456997
   125  Zn   0.376280
   126  O   -0.366112
   127  Zn   0.361243
   128  O   -0.456886
   129  Zn   0.375786
   130  O   -0.366977
   131  Zn   0.361905
   132  O   -0.456978
   133  Zn   0.375906
   134  O   -0.367081
   135  Zn   0.362224
   136  O   -0.456990
   137  Zn   0.376110
   138  O   -0.366436
   139  Zn   0.362262
   140  O   -0.457081
   141  Zn   0.376839
   142  O   -0.365522
   143  Zn   0.359677
   144  O   -0.457904
   145  Zn   0.378061
   146  O   -0.369005
   147  Zn   0.374717
   148  O   -0.462175
   149  Zn   0.385053
   150  O   -0.283520
   151  Zn   0.442413
   152  Zn  -0.259117
   153  O   -0.283644
   154  Zn   0.442326
   155  Zn  -0.258790
   156  O   -0.283667
   157  Zn   0.441616
   158  Zn  -0.257986
   159  O   -0.283599
   160  Zn   0.440100
   161  Zn  -0.257758
   162  O   -0.283766
   163  Zn   0.439191
   164  Zn  -0.257863
   165  O   -0.283887
   166  Zn   0.438828
   167  Zn  -0.257934
   168  O   -0.283877
   169  Zn   0.438884
   170  Zn  -0.257860
   171  O   -0.283733
   172  Zn   0.439313
   173  Zn  -0.257703
   174  O   -0.283506
   175  Zn   0.440171
   176  Zn  -0.257723
   177  O   -0.283429
   178  Zn   0.441534
   179  Zn  -0.258302
   180  H    0.302602
   181  H    0.302652
   182  H    0.302449
   183  H    0.302228
   184  H    0.302133
   185  H    0.302202
   186  H    0.302379
   187  H    0.302478
   188  H    0.302379
   189  H    0.302432
   190  H    0.394586
   191  H    0.308306
   192  H    0.394250
   193  H    0.308491
   194  H    0.394140
   195  H    0.308523
   196  H    0.394268
   197  H    0.308413
   198  H    0.394643
   199  H    0.308123
   200  H    0.395199
   201  H    0.307636
   202  H    0.307112
   203  H    0.395710
   204  H    0.395885
   205  H    0.306979
   206  H    0.395624
   207  H    0.307383
   208  H    0.395104
   209  H    0.307925
   210  Pt   1.207405
   211  N   -0.359245
   212  H    0.260975
   213  H    0.262442
   214  H    0.296572
 Sum of Mulliken charges =   0.00000
 Mulliken charges with hydrogens summed into heavy atoms:
               1
     1  O    0.189532
     2  O   -0.658563
     3  Zn   0.363612
     4  O    0.189613
     5  O   -0.657788
     6  Zn   0.364172
     7  O    0.189608
     8  O   -0.655128
     9  Zn   0.365523
    10  O    0.189488
    11  O   -0.652573
    12  Zn   0.366021
    13  O    0.189308
    14  O   -0.650988
    15  Zn   0.365949
    16  O    0.189161
    17  O   -0.650305
    18  Zn   0.365829
    19  O    0.189086
    20  O   -0.650444
    21  Zn   0.365885
    22  O    0.189104
    23  O   -0.651491
    24  Zn   0.366062
    25  O    0.189211
    26  O   -0.653694
    27  Zn   0.365951
    28  O    0.189383
    29  O   -0.656633
    30  Zn   0.364856
    31  O   -0.436272
    32  Zn   0.421540
    33  O   -0.463015
    34  Zn   0.372432
    35  O   -0.438008
    36  Zn   0.419140
    37  O   -0.433952
    38  Zn   0.371396
    39  O   -0.429941
    40  Zn   0.424156
    41  O   -0.398592
    42  Zn   0.369617
    43  O   -0.420699
    44  Zn   0.426571
    45  O   -0.381537
    46  Zn   0.366484
    47  O   -0.415421
    48  Zn   0.427045
    49  O   -0.377355
    50  Zn   0.365510
    51  O   -0.413207
    52  Zn   0.426997
    53  O   -0.375897
    54  Zn   0.365137
    55  O   -0.412768
    56  Zn   0.427029
    57  O   -0.376039
    58  Zn   0.365378
    59  O   -0.413950
    60  Zn   0.427270
    61  O   -0.377997
    62  Zn   0.366281
    63  O   -0.417665
    64  Zn   0.427486
    65  O   -0.387973
    66  Zn   0.369429
    67  O   -0.426424
    68  Zn   0.426604
    69  O   -0.416333
    70  Zn   0.376472
    71  O   -0.529734
    72  Zn   0.373717
    73  O   -0.673063
    74  O   -0.545713
    75  Zn   0.358072
    76  O   -0.523599
    77  Zn   0.300945
    78  O   -0.393003
    79  Zn   0.362428
    80  O   -0.372980
    81  Zn   0.362702
    82  O   -0.384013
    83  Zn   0.362868
    84  O   -0.380864
    85  Zn   0.363061
    86  O   -0.376983
    87  Zn   0.361130
    88  O   -0.382432
    89  Zn   0.365301
    90  O   -0.376922
    91  Zn   0.361905
    92  O   -0.382953
    93  Zn   0.366133
    94  O   -0.376432
    95  Zn   0.361882
    96  O   -0.382228
    97  Zn   0.365904
    98  O   -0.375151
    99  Zn   0.361116
   100  O   -0.380515
   101  Zn   0.364120
   102  O   -0.377411
   103  Zn   0.360929
   104  O   -0.366030
   105  Zn   0.367136
   106  O   -0.361880
   107  Zn   0.357962
   108  O   -0.451647
   109  Zn   0.282345
   110  O   -0.391838
   111  Zn   0.424154
   112  O   -0.464919
   113  Zn   0.389268
   114  O   -0.404874
   115  Zn   0.403175
   116  O   -0.463818
   117  Zn   0.386595
   118  O   -0.377050
   119  Zn   0.384272
   120  O   -0.458576
   121  Zn   0.378479
   122  O   -0.365441
   123  Zn   0.357082
   124  O   -0.456997
   125  Zn   0.376280
   126  O   -0.366112
   127  Zn   0.361243
   128  O   -0.456886
   129  Zn   0.375786
   130  O   -0.366977
   131  Zn   0.361905
   132  O   -0.456978
   133  Zn   0.375906
   134  O   -0.367081
   135  Zn   0.362224
   136  O   -0.456990
   137  Zn   0.376110
   138  O   -0.366436
   139  Zn   0.362262
   140  O   -0.457081
   141  Zn   0.376839
   142  O   -0.365522
   143  Zn   0.359677
   144  O   -0.457904
   145  Zn   0.378061
   146  O   -0.369005
   147  Zn   0.374717
   148  O   -0.462175
   149  Zn   0.385053
   150  O   -0.283520
   151  Zn   0.442413
   152  Zn   0.043315
   153  O   -0.283644
   154  Zn   0.442326
   155  Zn   0.043590
   156  O   -0.283667
   157  Zn   0.441616
   158  Zn   0.044491
   159  O   -0.283599
   160  Zn   0.440100
   161  Zn   0.044621
   162  O   -0.283766
   163  Zn   0.439191
   164  Zn   0.044339
   165  O   -0.283887
   166  Zn   0.438828
   167  Zn   0.044199
   168  O   -0.283877
   169  Zn   0.438884
   170  Zn   0.044368
   171  O   -0.283733
   172  Zn   0.439313
   173  Zn   0.044746
   174  O   -0.283506
   175  Zn   0.440171
   176  Zn   0.044929
   177  O   -0.283429
   178  Zn   0.441534
   179  Zn   0.044300
   210  Pt   1.207405
   211  N    0.460744
         Mulliken charges condensed to fragments:
      1     11.720384
      2    -11.720384
 Charge=              0.0000 electrons
 Dipole moment (field-independent basis, Debye):
    X=           -122.8025    Y=             12.0058    Z=              0.3031  Tot=            123.3884
 N-N= 1.796469280001D+04 E-N=-3.479607724974D+04  KE=-6.569032276425D+02
  Exact polarizability:6355.305 -58.8792386.600  89.828 -18.0012767.022
 Approx polarizability:4720.648 -56.8252635.777  35.076 -16.7793028.903
 Calling FoFJK, ICntrl=    100127 FMM=F ISym2X=0 I1Cent= 0 IOpClX= 0 NMat=1 NMatS=1 NMatT=0.
  209 atoms frozen in the vibrational analysis.
 Diagonal vibrational polarizability:
       31.1023893      28.2214065      21.8810629
 Diagonal vibrational hyperpolarizability:
     3786.4869615     433.3770950    2300.4312563
 Harmonic frequencies (cm**-1), IR intensities (KM/Mole), Raman scattering
 activities (A**4/AMU), depolarization ratios for plane and unpolarized
 incident light, reduced masses (AMU), force constants (mDyne/A),
 and normal coordinates:
                      1                      2                      3
                      A                      A                      A
 Frequencies --     88.8241               105.8028               140.0139
 Red. masses --      2.0706                 3.8187                 3.1739
 Frc consts  --      0.0096                 0.0252                 0.0367
 IR Inten    --      9.4292                 0.8594                10.4218
 Raman Activ --    267.2278              1479.7017               632.0283
 Depolar (P) --      0.6951                 0.1950                 0.2914
 Depolar (U) --      0.8201                 0.3264                 0.4513
  Atom  AN      X      Y      Z        X      Y      Z        X      Y      Z
   210  78     0.00   0.06   0.01    -0.01   0.10   0.02     0.02  -0.03   0.06
   211   7     0.14   0.07  -0.08    -0.03  -0.03   0.20     0.06  -0.16   0.26
   212   1     0.22   0.44  -0.47    -0.06  -0.36   0.62     0.09   0.07  -0.03
   213   1     0.57  -0.28  -0.03    -0.40   0.32   0.19     0.43  -0.37   0.42
   214   1    -0.25   0.04   0.19     0.33  -0.10  -0.08    -0.28  -0.27   0.48
                      4                      5                      6
                      A                      A                      A
 Frequencies --    195.1451               230.7077               267.0319
 Red. masses --      3.8512                 4.6722                 7.4469
 Frc consts  --      0.0864                 0.1465                 0.3129
 IR Inten    --     15.8421                13.1416                17.5922
 Raman Activ --    737.4509              1175.8596              1486.7078
 Depolar (P) --      0.3653                 0.2174                 0.1325
 Depolar (U) --      0.5351                 0.3571                 0.2340
  Atom  AN      X      Y      Z        X      Y      Z        X      Y      Z
   210  78     0.04  -0.02   0.10     0.07   0.00  -0.08     0.16   0.02  -0.01
   211   7     0.16   0.11  -0.13     0.32  -0.16   0.03    -0.25   0.17   0.05
   212   1     0.20  -0.10   0.24     0.43  -0.25   0.37    -0.49   0.10  -0.30
   213   1    -0.25   0.29  -0.37     0.14  -0.04  -0.02    -0.13   0.19   0.21
   214   1     0.58   0.20  -0.41     0.55  -0.32  -0.20    -0.51   0.32   0.29
                      7                      8                      9
                      A                      A                      A
 Frequencies --    462.5476               849.3270               864.8592
 Red. masses --      4.9016                 1.1497                 1.1683
 Frc consts  --      0.6179                 0.4886                 0.5149
 IR Inten    --     21.1516                24.8810                16.4618
 Raman Activ --   5021.5280              1615.4070              6480.1031
 Depolar (P) --      0.4085                 0.5627                 0.1756
 Depolar (U) --      0.5800                 0.7202                 0.2987
  Atom  AN      X      Y      Z        X      Y      Z        X      Y      Z
   210  78    -0.02  -0.03  -0.03     0.00   0.00   0.00     0.00   0.00   0.00
   211   7     0.15   0.41   0.28     0.06   0.02  -0.08     0.09  -0.06   0.04
   212   1     0.17   0.38   0.29    -0.28  -0.42  -0.08    -0.36  -0.31  -0.43
   213   1     0.11   0.41   0.28     0.16   0.48   0.58    -0.22   0.06  -0.16
   214   1     0.13   0.39   0.23    -0.23  -0.28   0.03     0.07   0.64   0.29
                     10                     11                     12
                      A                      A                      A
 Frequencies --   1461.7675              1531.0758              1538.7013
 Red. masses --      1.1646                 1.0614                 1.0595
 Frc consts  --      1.4662                 1.4660                 1.4779
 IR Inten    --    160.9408                17.0272                23.8643
 Raman Activ --   2196.9856               322.6513               238.9885
 Depolar (P) --      0.4902                 0.1243                 0.3547
 Depolar (U) --      0.6579                 0.2211                 0.5236
  Atom  AN      X      Y      Z        X      Y      Z        X      Y      Z
   210  78     0.00   0.00   0.00     0.00   0.00   0.00     0.00   0.00   0.00
   211   7    -0.04  -0.08  -0.07     0.01   0.05  -0.04    -0.06   0.02   0.01
   212   1     0.37   0.27   0.32    -0.04  -0.46   0.58    -0.23  -0.21  -0.07
   213   1     0.11   0.27   0.43     0.21  -0.36  -0.23     0.55  -0.30   0.26
   214   1     0.04   0.61   0.19    -0.34   0.17   0.28     0.53   0.21  -0.32
                     13                     14                     15
                      A                      A                      A
 Frequencies --   2561.3023              2702.4910              2735.4354
 Red. masses --      1.0749                 1.0855                 1.0354
 Frc consts  --      4.1545                 4.6709                 4.5645
 IR Inten    --     17.9412                91.3165               307.5834
 Raman Activ --  17904.9542              1222.6319              3929.8566
 Depolar (P) --      0.3331                 0.1397                 0.1539
 Depolar (U) --      0.4998                 0.2452                 0.2668
  Atom  AN      X      Y      Z        X      Y      Z        X      Y      Z
   210  78     0.00   0.00   0.00     0.00   0.00   0.00     0.00   0.00   0.00
   211   7    -0.04   0.03  -0.05    -0.06   0.00   0.04     0.00   0.05   0.00
   212   1     0.06  -0.04  -0.06     0.52  -0.40  -0.26     0.53  -0.36  -0.27
   213   1    -0.10  -0.07   0.05     0.39   0.44  -0.38    -0.40  -0.41   0.39
   214   1     0.55  -0.30   0.76    -0.01  -0.01   0.05    -0.09   0.08  -0.13

 -------------------
 - Thermochemistry -
 -------------------
 Temperature   298.150 Kelvin.  Pressure   1.00000 Atm.
 Atom     1 has atomic number  8 and mass  15.99491
 Atom     2 has atomic number  8 and mass  15.99491
 Atom     3 has atomic number 30 and mass  63.92915
 Atom     4 has atomic number  8 and mass  15.99491
 Atom     5 has atomic number  8 and mass  15.99491
 Atom     6 has atomic number 30 and mass  63.92915
 Atom     7 has atomic number  8 and mass  15.99491
 Atom     8 has atomic number  8 and mass  15.99491
 Atom     9 has atomic number 30 and mass  63.92915
 Atom    10 has atomic number  8 and mass  15.99491
 Atom    11 has atomic number  8 and mass  15.99491
 Atom    12 has atomic number 30 and mass  63.92915
 Atom    13 has atomic number  8 and mass  15.99491
 Atom    14 has atomic number  8 and mass  15.99491
 Atom    15 has atomic number 30 and mass  63.92915
 Atom    16 has atomic number  8 and mass  15.99491
 Atom    17 has atomic number  8 and mass  15.99491
 Atom    18 has atomic number 30 and mass  63.92915
 Atom    19 has atomic number  8 and mass  15.99491
 Atom    20 has atomic number  8 and mass  15.99491
 Atom    21 has atomic number 30 and mass  63.92915
 Atom    22 has atomic number  8 and mass  15.99491
 Atom    23 has atomic number  8 and mass  15.99491
 Atom    24 has atomic number 30 and mass  63.92915
 Atom    25 has atomic number  8 and mass  15.99491
 Atom    26 has atomic number  8 and mass  15.99491
 Atom    27 has atomic number 30 and mass  63.92915
 Atom    28 has atomic number  8 and mass  15.99491
 Atom    29 has atomic number  8 and mass  15.99491
 Atom    30 has atomic number 30 and mass  63.92915
 Atom    31 has atomic number  8 and mass  15.99491
 Atom    32 has atomic number 30 and mass  63.92915
 Atom    33 has atomic number  8 and mass  15.99491
 Atom    34 has atomic number 30 and mass  63.92915
 Atom    35 has atomic number  8 and mass  15.99491
 Atom    36 has atomic number 30 and mass  63.92915
 Atom    37 has atomic number  8 and mass  15.99491
 Atom    38 has atomic number 30 and mass  63.92915
 Atom    39 has atomic number  8 and mass  15.99491
 Atom    40 has atomic number 30 and mass  63.92915
 Atom    41 has atomic number  8 and mass  15.99491
 Atom    42 has atomic number 30 and mass  63.92915
 Atom    43 has atomic number  8 and mass  15.99491
 Atom    44 has atomic number 30 and mass  63.92915
 Atom    45 has atomic number  8 and mass  15.99491
 Atom    46 has atomic number 30 and mass  63.92915
 Atom    47 has atomic number  8 and mass  15.99491
 Atom    48 has atomic number 30 and mass  63.92915
 Atom    49 has atomic number  8 and mass  15.99491
 Atom    50 has atomic number 30 and mass  63.92915
 Atom    51 has atomic number  8 and mass  15.99491
 Atom    52 has atomic number 30 and mass  63.92915
 Atom    53 has atomic number  8 and mass  15.99491
 Atom    54 has atomic number 30 and mass  63.92915
 Atom    55 has atomic number  8 and mass  15.99491
 Atom    56 has atomic number 30 and mass  63.92915
 Atom    57 has atomic number  8 and mass  15.99491
 Atom    58 has atomic number 30 and mass  63.92915
 Atom    59 has atomic number  8 and mass  15.99491
 Atom    60 has atomic number 30 and mass  63.92915
 Atom    61 has atomic number  8 and mass  15.99491
 Atom    62 has atomic number 30 and mass  63.92915
 Atom    63 has atomic number  8 and mass  15.99491
 Atom    64 has atomic number 30 and mass  63.92915
 Atom    65 has atomic number  8 and mass  15.99491
 Atom    66 has atomic number 30 and mass  63.92915
 Atom    67 has atomic number  8 and mass  15.99491
 Atom    68 has atomic number 30 and mass  63.92915
 Atom    69 has atomic number  8 and mass  15.99491
 Atom    70 has atomic number 30 and mass  63.92915
 Atom    71 has atomic number  8 and mass  15.99491
 Atom    72 has atomic number 30 and mass  63.92915
 Atom    73 has atomic number  8 and mass  15.99491
 Atom    74 has atomic number  8 and mass  15.99491
 Atom    75 has atomic number 30 and mass  63.92915
 Atom    76 has atomic number  8 and mass  15.99491
 Atom    77 has atomic number 30 and mass  63.92915
 Atom    78 has atomic number  8 and mass  15.99491
 Atom    79 has atomic number 30 and mass  63.92915
 Atom    80 has atomic number  8 and mass  15.99491
 Atom    81 has atomic number 30 and mass  63.92915
 Atom    82 has atomic number  8 and mass  15.99491
 Atom    83 has atomic number 30 and mass  63.92915
 Atom    84 has atomic number  8 and mass  15.99491
 Atom    85 has atomic number 30 and mass  63.92915
 Atom    86 has atomic number  8 and mass  15.99491
 Atom    87 has atomic number 30 and mass  63.92915
 Atom    88 has atomic number  8 and mass  15.99491
 Atom    89 has atomic number 30 and mass  63.92915
 Atom    90 has atomic number  8 and mass  15.99491
 Atom    91 has atomic number 30 and mass  63.92915
 Atom    92 has atomic number  8 and mass  15.99491
 Atom    93 has atomic number 30 and mass  63.92915
 Atom    94 has atomic number  8 and mass  15.99491
 Atom    95 has atomic number 30 and mass  63.92915
 Atom    96 has atomic number  8 and mass  15.99491
 Atom    97 has atomic number 30 and mass  63.92915
 Atom    98 has atomic number  8 and mass  15.99491
 Atom    99 has atomic number 30 and mass  63.92915
 Atom   100 has atomic number  8 and mass  15.99491
 Atom   101 has atomic number 30 and mass  63.92915
 Atom   102 has atomic number  8 and mass  15.99491
 Atom   103 has atomic number 30 and mass  63.92915
 Atom   104 has atomic number  8 and mass  15.99491
 Atom   105 has atomic number 30 and mass  63.92915
 Atom   106 has atomic number  8 and mass  15.99491
 Atom   107 has atomic number 30 and mass  63.92915
 Atom   108 has atomic number  8 and mass  15.99491
 Atom   109 has atomic number 30 and mass  63.92915
 Atom   110 has atomic number  8 and mass  15.99491
 Atom   111 has atomic number 30 and mass  63.92915
 Atom   112 has atomic number  8 and mass  15.99491
 Atom   113 has atomic number 30 and mass  63.92915
[...]
 ,0.,0.,0.,0.,0.,0.,0.,0.,0.,0.,0.,0.,0.,0.,0.,0.,0.,0.,0.,0.,0.,0.,0.,
 0.,0.,0.,0.,0.,0.,0.,0.,0.,0.,0.,0.,0.,0.,0.,0.,0.,0.,0.,0.,0.,0.,0.,0
 .,0.,0.,0.,0.,0.,0.,0.,0.,0.,0.,0.,0.,0.,0.,0.,0.,0.,0.,0.,0.,0.,0.,0.
 ,0.,0.,0.,0.,0.,0.,0.,0.,0.,0.,0.,0.,0.,0.,0.,0.,0.,0.,0.,0.,0.,0.,0.,
 0.,0.,0.,0.,0.,0.,0.,0.,0.,0.,0.,0.,0.,0.,0.,0.,0.,0.,0.,0.,0.,0.,0.,0
 .,0.,0.,0.,0.,0.,0.,0.,0.,0.,0.,0.,0.,0.,0.,0.,0.,0.,0.,0.,0.,0.,0.,0.
 ,0.,0.,0.,0.,0.,0.,0.,0.,0.,0.,0.,0.,0.,0.,0.,0.,0.,0.,0.,0.,0.,0.,0.,
 0.,0.,0.,0.,0.,0.,0.,0.,0.,0.,0.,0.,0.,0.,0.,0.,0.,0.,0.,0.,0.,0.,0.,0
 .,0.,0.,0.,0.,0.,0.,0.,0.,0.,0.,0.,0.,0.,0.,0.,0.,0.,0.,0.,0.,0.,0.,0.
 ,0.,0.,0.,0.,0.,0.,0.,0.,0.,0.,0.,0.,0.,0.,0.,0.,0.,0.,0.,0.,0.,0.,0.,
 0.,0.,0.,0.,0.,0.,0.,0.,0.,0.,0.,0.,0.,0.,0.,0.,0.,0.,0.,0.,0.,0.,0.,0
 .,0.,0.,0.,0.,0.,0.,0.,0.,0.,0.,0.,0.,0.,0.,0.,0.,0.,0.,0.,0.,0.,0.,0.
 ,0.,0.,0.,0.,0.,0.,0.,0.,0.,0.,0.01250089,0.00119373,-0.00198452,-0.14
 828613,0.06385239,-0.04572245,0.16975479,0.,0.,0.,0.,0.,0.,0.,0.,0.,0.
 ,0.,0.,0.,0.,0.,0.,0.,0.,0.,0.,0.,0.,0.,0.,0.,0.,0.,0.,0.,0.,0.,0.,0.,
 0.,0.,0.,0.,0.,0.,0.,0.,0.,0.,0.,0.,0.,0.,0.,0.,0.,0.,0.,0.,0.,0.,0.,0
 .,0.,0.,0.,0.,0.,0.,0.,0.,0.,0.,0.,0.,0.,0.,0.,0.,0.,0.,0.,0.,0.,0.,0.
 ,0.,0.,0.,0.,0.,0.,0.,0.,0.,0.,0.,0.,0.,0.,0.,0.,0.,0.,0.,0.,0.,0.,0.,
 0.,0.,0.,0.,0.,0.,0.,0.,0.,0.,0.,0.,0.,0.,0.,0.,0.,0.,0.,0.,0.,0.,0.,0
 .,0.,0.,0.,0.,0.,0.,0.,0.,0.,0.,0.,0.,0.,0.,0.,0.,0.,0.,0.,0.,0.,0.,0.
 ,0.,0.,0.,0.,0.,0.,0.,0.,0.,0.,0.,0.,0.,0.,0.,0.,0.,0.,0.,0.,0.,0.,0.,
 0.,0.,0.,0.,0.,0.,0.,0.,0.,0.,0.,0.,0.,0.,0.,0.,0.,0.,0.,0.,0.,0.,0.,0
 .,0.,0.,0.,0.,0.,0.,0.,0.,0.,0.,0.,0.,0.,0.,0.,0.,0.,0.,0.,0.,0.,0.,0.
 ,0.,0.,0.,0.,0.,0.,0.,0.,0.,0.,0.,0.,0.,0.,0.,0.,0.,0.,0.,0.,0.,0.,0.,
 0.,0.,0.,0.,0.,0.,0.,0.,0.,0.,0.,0.,0.,0.,0.,0.,0.,0.,0.,0.,0.,0.,0.,0
 .,0.,0.,0.,0.,0.,0.,0.,0.,0.,0.,0.,0.,0.,0.,0.,0.,0.,0.,0.,0.,0.,0.,0.
 ,0.,0.,0.,0.,0.,0.,0.,0.,0.,0.,0.,0.,0.,0.,0.,0.,0.,0.,0.,0.,0.,0.,0.,
 0.,0.,0.,0.,0.,0.,0.,0.,0.,0.,0.,0.,0.,0.,0.,0.,0.,0.,0.,0.,0.,0.,0.,0
 .,0.,0.,0.,0.,0.,0.,0.,0.,0.,0.,0.,0.,0.,0.,0.,0.,0.,0.,0.,0.,0.,0.,0.
 ,0.,0.,0.,0.,0.,0.,0.,0.,0.,0.,0.,0.,0.,0.,0.,0.,0.,0.,0.,0.,0.,0.,0.,
 0.,0.,0.,0.,0.,0.,0.,0.,0.,0.,0.,0.,0.,0.,0.,0.,0.,0.,0.,0.,0.,0.,0.,0
 .,0.,0.,0.,0.,0.,0.,0.,0.,0.,0.,0.,0.,0.,0.,0.,0.,0.,0.,0.,0.,0.,0.,0.
 ,0.,0.,0.,0.,0.,0.,0.,0.,0.,0.,0.,0.,0.,0.,0.,0.,0.,0.,0.,0.,0.,0.,0.,
 0.,0.,0.,0.,0.,0.,0.,0.,0.,0.,0.,0.,0.,0.,0.,0.,0.,0.,0.,0.,0.,0.,0.,0
 .,0.,0.,0.,0.,0.,0.,0.,0.,0.,0.,0.,0.,0.,0.,0.,0.,0.,0.,0.,0.,0.,0.,0.
 ,0.,0.,0.,0.,0.,0.,0.,0.,0.,0.,0.,0.,0.,0.,0.,0.,0.,0.,0.,0.,0.,0.,0.,
 0.,0.,0.,0.,0.,0.,0.,0.,0.,0.,0.,0.,0.,0.,0.,0.,0.,0.,0.,0.,0.,0.,0.,0
 .,0.,0.,0.,0.,0.,0.,0.,0.,0.,0.,0.,0.,0.,0.,0.,0.,0.,0.,0.,0.,0.,0.,0.
 ,0.,0.,0.,0.,0.,0.,0.,0.,0.,0.,0.,0.,0.,0.,0.,0.,0.,0.,0.,0.,0.,0.,0.,
 0.,0.,0.,0.,0.,0.,0.,0.,0.,0.,0.,0.,0.,0.,0.,0.,0.,0.,0.,0.,0.,0.,0.,0
 .,0.,0.,0.,0.,0.,0.,0.,0.,0.,0.,0.01038309,-0.00855029,0.00736169,0.08
 410176,-0.11088674,0.03845635,-0.08912035,0.11147826,0.,0.,0.,0.,0.,0.
 ,0.,0.,0.,0.,0.,0.,0.,0.,0.,0.,0.,0.,0.,0.,0.,0.,0.,0.,0.,0.,0.,0.,0.,
 0.,0.,0.,0.,0.,0.,0.,0.,0.,0.,0.,0.,0.,0.,0.,0.,0.,0.,0.,0.,0.,0.,0.,0
 .,0.,0.,0.,0.,0.,0.,0.,0.,0.,0.,0.,0.,0.,0.,0.,0.,0.,0.,0.,0.,0.,0.,0.
 ,0.,0.,0.,0.,0.,0.,0.,0.,0.,0.,0.,0.,0.,0.,0.,0.,0.,0.,0.,0.,0.,0.,0.,
 0.,0.,0.,0.,0.,0.,0.,0.,0.,0.,0.,0.,0.,0.,0.,0.,0.,0.,0.,0.,0.,0.,0.,0
 .,0.,0.,0.,0.,0.,0.,0.,0.,0.,0.,0.,0.,0.,0.,0.,0.,0.,0.,0.,0.,0.,0.,0.
 ,0.,0.,0.,0.,0.,0.,0.,0.,0.,0.,0.,0.,0.,0.,0.,0.,0.,0.,0.,0.,0.,0.,0.,
 0.,0.,0.,0.,0.,0.,0.,0.,0.,0.,0.,0.,0.,0.,0.,0.,0.,0.,0.,0.,0.,0.,0.,0
 .,0.,0.,0.,0.,0.,0.,0.,0.,0.,0.,0.,0.,0.,0.,0.,0.,0.,0.,0.,0.,0.,0.,0.
 ,0.,0.,0.,0.,0.,0.,0.,0.,0.,0.,0.,0.,0.,0.,0.,0.,0.,0.,0.,0.,0.,0.,0.,
 0.,0.,0.,0.,0.,0.,0.,0.,0.,0.,0.,0.,0.,0.,0.,0.,0.,0.,0.,0.,0.,0.,0.,0
 .,0.,0.,0.,0.,0.,0.,0.,0.,0.,0.,0.,0.,0.,0.,0.,0.,0.,0.,0.,0.,0.,0.,0.
 ,0.,0.,0.,0.,0.,0.,0.,0.,0.,0.,0.,0.,0.,0.,0.,0.,0.,0.,0.,0.,0.,0.,0.,
 0.,0.,0.,0.,0.,0.,0.,0.,0.,0.,0.,0.,0.,0.,0.,0.,0.,0.,0.,0.,0.,0.,0.,0
 .,0.,0.,0.,0.,0.,0.,0.,0.,0.,0.,0.,0.,0.,0.,0.,0.,0.,0.,0.,0.,0.,0.,0.
 ,0.,0.,0.,0.,0.,0.,0.,0.,0.,0.,0.,0.,0.,0.,0.,0.,0.,0.,0.,0.,0.,0.,0.,
 0.,0.,0.,0.,0.,0.,0.,0.,0.,0.,0.,0.,0.,0.,0.,0.,0.,0.,0.,0.,0.,0.,0.,0
 .,0.,0.,0.,0.,0.,0.,0.,0.,0.,0.,0.,0.,0.,0.,0.,0.,0.,0.,0.,0.,0.,0.,0.
 ,0.,0.,0.,0.,0.,0.,0.,0.,0.,0.,0.,0.,0.,0.,0.,0.,0.,0.,0.,0.,0.,0.,0.,
 0.,0.,0.,0.,0.,0.,0.,0.,0.,0.,0.,0.,0.,0.,0.,0.,0.,0.,0.,0.,0.,0.,0.,0
 .,0.,0.,0.,0.,0.,0.,0.,0.,0.,0.,0.,0.,0.,0.,0.,0.,0.,0.,0.,0.,0.,0.,0.
 ,0.,0.,0.,0.,0.,0.,0.,0.,0.,0.,0.,0.,0.,0.,0.,0.,0.,0.,0.,0.,0.,0.,0.,
 0.,0.,0.,0.,0.,0.,0.,0.,0.,0.,0.,0.,0.,0.,0.,0.,0.,0.,0.,0.,0.,0.,0.,0
 .,0.,0.,0.,0.,0.,0.,0.,0.,0.,0.,0.,0.,0.,0.,0.,0.,0.,0.,0.,0.,0.,0.,0.
 ,0.,0.,0.,0.,0.,0.,0.,0.,0.,0.,0.,0.,0.,0.,0.,0.,0.,0.,0.,0.,0.,0.,0.,
 0.,0.,0.,0.,0.,0.,0.,0.,0.,0.,0.,0.,0.,0.,0.,0.,0.,0.,0.,0.,0.,0.,0.,0
 .,0.,0.,0.,0.,0.,0.,0.,0.,0.,0.,0.,0.,0.,0.,-0.00663160,0.00791121,-0.
 00354370,-0.06041310,0.03730457,-0.08121434,0.06302917,-0.04266029,0.0
 7928477,0.,0.,0.,0.,0.,0.,0.,0.,0.,0.,0.,0.,0.,0.,0.,0.,0.,0.,0.,0.,0.
 ,0.,0.,0.,0.,0.,0.,0.,0.,0.,0.,0.,0.,0.,0.,0.,0.,0.,0.,0.,0.,0.,0.,0.,
 0.,0.,0.,0.,0.,0.,0.,0.,0.,0.,0.,0.,0.,0.,0.,0.,0.,0.,0.,0.,0.,0.,0.,0
 .,0.,0.,0.,0.,0.,0.,0.,0.,0.,0.,0.,0.,0.,0.,0.,0.,0.,0.,0.,0.,0.,0.,0.
 ,0.,0.,0.,0.,0.,0.,0.,0.,0.,0.,0.,0.,0.,0.,0.,0.,0.,0.,0.,0.,0.,0.,0.,
 0.,0.,0.,0.,0.,0.,0.,0.,0.,0.,0.,0.,0.,0.,0.,0.,0.,0.,0.,0.,0.,0.,0.,0
 .,0.,0.,0.,0.,0.,0.,0.,0.,0.,0.,0.,0.,0.,0.,0.,0.,0.,0.,0.,0.,0.,0.,0.
 ,0.,0.,0.,0.,0.,0.,0.,0.,0.,0.,0.,0.,0.,0.,0.,0.,0.,0.,0.,0.,0.,0.,0.,
 0.,0.,0.,0.,0.,0.,0.,0.,0.,0.,0.,0.,0.,0.,0.,0.,0.,0.,0.,0.,0.,0.,0.,0
 .,0.,0.,0.,0.,0.,0.,0.,0.,0.,0.,0.,0.,0.,0.,0.,0.,0.,0.,0.,0.,0.,0.,0.
 ,0.,0.,0.,0.,0.,0.,0.,0.,0.,0.,0.,0.,0.,0.,0.,0.,0.,0.,0.,0.,0.,0.,0.,
 0.,0.,0.,0.,0.,0.,0.,0.,0.,0.,0.,0.,0.,0.,0.,0.,0.,0.,0.,0.,0.,0.,0.,0
 .,0.,0.,0.,0.,0.,0.,0.,0.,0.,0.,0.,0.,0.,0.,0.,0.,0.,0.,0.,0.,0.,0.,0.
 ,0.,0.,0.,0.,0.,0.,0.,0.,0.,0.,0.,0.,0.,0.,0.,0.,0.,0.,0.,0.,0.,0.,0.,
 0.,0.,0.,0.,0.,0.,0.,0.,0.,0.,0.,0.,0.,0.,0.,0.,0.,0.,0.,0.,0.,0.,0.,0
 .,0.,0.,0.,0.,0.,0.,0.,0.,0.,0.,0.,0.,0.,0.,0.,0.,0.,0.,0.,0.,0.,0.,0.
 ,0.,0.,0.,0.,0.,0.,0.,0.,0.,0.,0.,0.,0.,0.,0.,0.,0.,0.,0.,0.,0.,0.,0.,
 0.,0.,0.,0.,0.,0.,0.,0.,0.,0.,0.,0.,0.,0.,0.,0.,0.,0.,0.,0.,0.,0.,0.,0
 .,0.,0.,0.,0.,0.,0.,0.,0.,0.,0.,0.,0.,0.,0.,0.,0.,0.,0.,0.,0.,0.,0.,0.
 ,0.,0.,0.,0.,0.,0.,0.,0.,0.,0.,0.,0.,0.,0.,0.,0.,0.,0.,0.,0.,0.,0.,0.,
 0.,0.,0.,0.,0.,0.,0.,0.,0.,0.,0.,0.,0.,0.,0.,0.,0.,0.,0.,0.,0.,0.,0.,0
 .,0.,0.,0.,0.,0.,0.,0.,0.,0.,0.,0.,0.,0.,0.,0.,0.,0.,0.,0.,0.,0.,0.,0.
 ,0.,0.,0.,0.,0.,0.,0.,0.,0.,0.,0.,0.,0.,0.,0.,0.,0.,0.,0.,0.,0.,0.,0.,
 0.,0.,0.,0.,0.,0.,0.,0.,0.,0.,0.,0.,0.,0.,0.,0.,0.,0.,0.,0.,0.,0.,0.,0
 .,0.,0.,0.,0.,0.,0.,0.,0.,0.,0.,0.,0.,0.,0.,0.,0.,0.,0.,0.,0.,0.,0.,0.
 ,0.,0.,0.,0.,0.,0.,0.,0.,0.,0.,0.,0.,0.,0.,0.,0.,0.,0.,0.,0.,0.,0.,0.,
 0.,0.,0.,0.,0.,0.,0.,0.,0.,0.,0.,0.,0.,0.,0.,0.,0.,0.,0.,0.,0.,0.,0.,-
 0.00304910,-0.00831096,0.00189073,-0.11320249,-0.06025685,-0.06350595,
 -0.01606885,-0.01475098,-0.01624232,0.11960994,0.,0.,0.,0.,0.,0.,0.,0.
 ,0.,0.,0.,0.,0.,0.,0.,0.,0.,0.,0.,0.,0.,0.,0.,0.,0.,0.,0.,0.,0.,0.,0.,
 0.,0.,0.,0.,0.,0.,0.,0.,0.,0.,0.,0.,0.,0.,0.,0.,0.,0.,0.,0.,0.,0.,0.,0
 .,0.,0.,0.,0.,0.,0.,0.,0.,0.,0.,0.,0.,0.,0.,0.,0.,0.,0.,0.,0.,0.,0.,0.
 ,0.,0.,0.,0.,0.,0.,0.,0.,0.,0.,0.,0.,0.,0.,0.,0.,0.,0.,0.,0.,0.,0.,0.,
 0.,0.,0.,0.,0.,0.,0.,0.,0.,0.,0.,0.,0.,0.,0.,0.,0.,0.,0.,0.,0.,0.,0.,0
 .,0.,0.,0.,0.,0.,0.,0.,0.,0.,0.,0.,0.,0.,0.,0.,0.,0.,0.,0.,0.,0.,0.,0.
 ,0.,0.,0.,0.,0.,0.,0.,0.,0.,0.,0.,0.,0.,0.,0.,0.,0.,0.,0.,0.,0.,0.,0.,
 0.,0.,0.,0.,0.,0.,0.,0.,0.,0.,0.,0.,0.,0.,0.,0.,0.,0.,0.,0.,0.,0.,0.,0
 .,0.,0.,0.,0.,0.,0.,0.,0.,0.,0.,0.,0.,0.,0.,0.,0.,0.,0.,0.,0.,0.,0.,0.
 ,0.,0.,0.,0.,0.,0.,0.,0.,0.,0.,0.,0.,0.,0.,0.,0.,0.,0.,0.,0.,0.,0.,0.,
 0.,0.,0.,0.,0.,0.,0.,0.,0.,0.,0.,0.,0.,0.,0.,0.,0.,0.,0.,0.,0.,0.,0.,0
 .,0.,0.,0.,0.,0.,0.,0.,0.,0.,0.,0.,0.,0.,0.,0.,0.,0.,0.,0.,0.,0.,0.,0.
 ,0.,0.,0.,0.,0.,0.,0.,0.,0.,0.,0.,0.,0.,0.,0.,0.,0.,0.,0.,0.,0.,0.,0.,
 0.,0.,0.,0.,0.,0.,0.,0.,0.,0.,0.,0.,0.,0.,0.,0.,0.,0.,0.,0.,0.,0.,0.,0
 .,0.,0.,0.,0.,0.,0.,0.,0.,0.,0.,0.,0.,0.,0.,0.,0.,0.,0.,0.,0.,0.,0.,0.
 ,0.,0.,0.,0.,0.,0.,0.,0.,0.,0.,0.,0.,0.,0.,0.,0.,0.,0.,0.,0.,0.,0.,0.,
 0.,0.,0.,0.,0.,0.,0.,0.,0.,0.,0.,0.,0.,0.,0.,0.,0.,0.,0.,0.,0.,0.,0.,0
 .,0.,0.,0.,0.,0.,0.,0.,0.,0.,0.,0.,0.,0.,0.,0.,0.,0.,0.,0.,0.,0.,0.,0.
 ,0.,0.,0.,0.,0.,0.,0.,0.,0.,0.,0.,0.,0.,0.,0.,0.,0.,0.,0.,0.,0.,0.,0.,
 0.,0.,0.,0.,0.,0.,0.,0.,0.,0.,0.,0.,0.,0.,0.,0.,0.,0.,0.,0.,0.,0.,0.,0
 .,0.,0.,0.,0.,0.,0.,0.,0.,0.,0.,0.,0.,0.,0.,0.,0.,0.,0.,0.,0.,0.,0.,0.
 ,0.,0.,0.,0.,0.,0.,0.,0.,0.,0.,0.,0.,0.,0.,0.,0.,0.,0.,0.,0.,0.,0.,0.,
 0.,0.,0.,0.,0.,0.,0.,0.,0.,0.,0.,0.,0.,0.,0.,0.,0.,0.,0.,0.,0.,0.,0.,0
 .,0.,0.,0.,0.,0.,0.,0.,0.,0.,0.,0.,0.,0.,0.,0.,0.,0.,0.,0.,0.,0.,0.,0.
 ,0.,0.,0.,0.,0.,0.,0.,0.,0.,0.,0.,0.,0.,0.,0.,0.,0.,0.,0.,0.,0.,0.,0.,
 0.,0.,0.,0.,0.,0.,0.,0.,0.,0.,0.,0.,0.,0.,0.,0.,0.,0.,0.,0.,0.,0.,0.,0
 .,0.,0.,0.,0.,0.,0.,0.,0.,0.,0.,0.,0.,-0.01221216,-0.01328093,-0.00177
 947,-0.06765221,-0.12543955,-0.07036944,0.00921041,0.01601620,0.009222
 45,0.07490736,0.12857442,0.,0.,0.,0.,0.,0.,0.,0.,0.,0.,0.,0.,0.,0.,0.,
 0.,0.,0.,0.,0.,0.,0.,0.,0.,0.,0.,0.,0.,0.,0.,0.,0.,0.,0.,0.,0.,0.,0.,0
 .,0.,0.,0.,0.,0.,0.,0.,0.,0.,0.,0.,0.,0.,0.,0.,0.,0.,0.,0.,0.,0.,0.,0.
 ,0.,0.,0.,0.,0.,0.,0.,0.,0.,0.,0.,0.,0.,0.,0.,0.,0.,0.,0.,0.,0.,0.,0.,
 0.,0.,0.,0.,0.,0.,0.,0.,0.,0.,0.,0.,0.,0.,0.,0.,0.,0.,0.,0.,0.,0.,0.,0
 .,0.,0.,0.,0.,0.,0.,0.,0.,0.,0.,0.,0.,0.,0.,0.,0.,0.,0.,0.,0.,0.,0.,0.
 ,0.,0.,0.,0.,0.,0.,0.,0.,0.,0.,0.,0.,0.,0.,0.,0.,0.,0.,0.,0.,0.,0.,0.,
 0.,0.,0.,0.,0.,0.,0.,0.,0.,0.,0.,0.,0.,0.,0.,0.,0.,0.,0.,0.,0.,0.,0.,0
 .,0.,0.,0.,0.,0.,0.,0.,0.,0.,0.,0.,0.,0.,0.,0.,0.,0.,0.,0.,0.,0.,0.,0.
 ,0.,0.,0.,0.,0.,0.,0.,0.,0.,0.,0.,0.,0.,0.,0.,0.,0.,0.,0.,0.,0.,0.,0.,
 0.,0.,0.,0.,0.,0.,0.,0.,0.,0.,0.,0.,0.,0.,0.,0.,0.,0.,0.,0.,0.,0.,0.,0
 .,0.,0.,0.,0.,0.,0.,0.,0.,0.,0.,0.,0.,0.,0.,0.,0.,0.,0.,0.,0.,0.,0.,0.
 ,0.,0.,0.,0.,0.,0.,0.,0.,0.,0.,0.,0.,0.,0.,0.,0.,0.,0.,0.,0.,0.,0.,0.,
 0.,0.,0.,0.,0.,0.,0.,0.,0.,0.,0.,0.,0.,0.,0.,0.,0.,0.,0.,0.,0.,0.,0.,0
 .,0.,0.,0.,0.,0.,0.,0.,0.,0.,0.,0.,0.,0.,0.,0.,0.,0.,0.,0.,0.,0.,0.,0.
 ,0.,0.,0.,0.,0.,0.,0.,0.,0.,0.,0.,0.,0.,0.,0.,0.,0.,0.,0.,0.,0.,0.,0.,
 0.,0.,0.,0.,0.,0.,0.,0.,0.,0.,0.,0.,0.,0.,0.,0.,0.,0.,0.,0.,0.,0.,0.,0
 .,0.,0.,0.,0.,0.,0.,0.,0.,0.,0.,0.,0.,0.,0.,0.,0.,0.,0.,0.,0.,0.,0.,0.
 ,0.,0.,0.,0.,0.,0.,0.,0.,0.,0.,0.,0.,0.,0.,0.,0.,0.,0.,0.,0.,0.,0.,0.,
 0.,0.,0.,0.,0.,0.,0.,0.,0.,0.,0.,0.,0.,0.,0.,0.,0.,0.,0.,0.,0.,0.,0.,0
 .,0.,0.,0.,0.,0.,0.,0.,0.,0.,0.,0.,0.,0.,0.,0.,0.,0.,0.,0.,0.,0.,0.,0.
 ,0.,0.,0.,0.,0.,0.,0.,0.,0.,0.,0.,0.,0.,0.,0.,0.,0.,0.,0.,0.,0.,0.,0.,
 0.,0.,0.,0.,0.,0.,0.,0.,0.,0.,0.,0.,0.,0.,0.,0.,0.,0.,0.,0.,0.,0.,0.,0
 .,0.,0.,0.,0.,0.,0.,0.,0.,0.,0.,0.,0.,0.,0.,0.,0.,0.,0.,0.,0.,0.,0.,0.
 ,0.,0.,0.,0.,0.,0.,0.,0.,0.,0.,0.,0.,0.,0.,0.,0.,0.,0.,0.,0.,0.,0.,0.,
 0.,0.,0.,0.,0.,0.,0.,0.,0.,0.,0.,0.,0.,0.,0.,0.,0.,0.,0.,0.,0.,0.,0.,0
 .,0.,0.,0.,0.,0.,0.,0.,0.,0.,0.,0.,0.,0.,0.,0.,0.,0.,0.,0.,0.,0.,0.,0.
 ,0.,0.,0.,0.,0.,0.00450109,0.00542288,0.00865835,-0.04817315,-0.048273
 76,-0.09740862,-0.01114092,-0.00739946,-0.00633875,0.06865181,0.073589
 81,0.11223817,0.,0.,0.,0.,0.,0.,0.,0.,0.,0.,0.,0.,0.,0.,0.,0.,0.,0.,0.
 ,0.,0.,0.,0.,0.,0.,0.,0.,0.,0.,0.,0.,0.,0.,0.,0.,0.,0.,0.,0.,0.,0.,0.,
 0.,0.,0.,0.,0.,0.,0.,0.,0.,0.,0.,0.,0.,0.,0.,0.,0.,0.,0.,0.,0.,0.,0.,0
 .,0.,0.,0.,0.,0.,0.,0.,0.,0.,0.,0.,0.,0.,0.,0.,0.,0.,0.,0.,0.,0.,0.,0.
 ,0.,0.,0.,0.,0.,0.,0.,0.,0.,0.,0.,0.,0.,0.,0.,0.,0.,0.,0.,0.,0.,0.,0.,
 0.,0.,0.,0.,0.,0.,0.,0.,0.,0.,0.,0.,0.,0.,0.,0.,0.,0.,0.,0.,0.,0.,0.,0
 .,0.,0.,0.,0.,0.,0.,0.,0.,0.,0.,0.,0.,0.,0.,0.,0.,0.,0.,0.,0.,0.,0.,0.
 ,0.,0.,0.,0.,0.,0.,0.,0.,0.,0.,0.,0.,0.,0.,0.,0.,0.,0.,0.,0.,0.,0.,0.,
 0.,0.,0.,0.,0.,0.,0.,0.,0.,0.,0.,0.,0.,0.,0.,0.,0.,0.,0.,0.,0.,0.,0.,0
 .,0.,0.,0.,0.,0.,0.,0.,0.,0.,0.,0.,0.,0.,0.,0.,0.,0.,0.,0.,0.,0.,0.,0.
 ,0.,0.,0.,0.,0.,0.,0.,0.,0.,0.,0.,0.,0.,0.,0.,0.,0.,0.,0.,0.,0.,0.,0.,
 0.,0.,0.,0.,0.,0.,0.,0.,0.,0.,0.,0.,0.,0.,0.,0.,0.,0.,0.,0.,0.,0.,0.,0
 .,0.,0.,0.,0.,0.,0.,0.,0.,0.,0.,0.,0.,0.,0.,0.,0.,0.,0.,0.,0.,0.,0.,0.
 ,0.,0.,0.,0.,0.,0.,0.,0.,0.,0.,0.,0.,0.,0.,0.,0.,0.,0.,0.,0.,0.,0.,0.,
 0.,0.,0.,0.,0.,0.,0.,0.,0.,0.,0.,0.,0.,0.,0.,0.,0.,0.,0.,0.,0.,0.,0.,0
 .,0.,0.,0.,0.,0.,0.,0.,0.,0.,0.,0.,0.,0.,0.,0.,0.,0.,0.,0.,0.,0.,0.,0.
 ,0.,0.,0.,0.,0.,0.,0.,0.,0.,0.,0.,0.,0.,0.,0.,0.,0.,0.,0.,0.,0.,0.,0.,
 0.,0.,0.,0.,0.,0.,0.,0.,0.,0.,0.,0.,0.,0.,0.,0.,0.,0.,0.,0.,0.,0.,0.,0
 .,0.,0.,0.,0.,0.,0.,0.,0.,0.,0.,0.,0.,0.,0.,0.,0.,0.,0.,0.,0.,0.,0.,0.
 ,0.,0.,0.,0.,0.,0.,0.,0.,0.,0.,0.,0.,0.,0.,0.,0.,0.,0.,0.,0.,0.,0.,0.,
 0.,0.,0.,0.,0.,0.,0.,0.,0.,0.,0.,0.,0.,0.,0.,0.,0.,0.,0.,0.,0.,0.,0.,0
 .,0.,0.,0.,0.,0.,0.,0.,0.,0.,0.,0.,0.,0.,0.,0.,0.,0.,0.,0.,0.,0.,0.,0.
 ,0.,0.,0.,0.,0.,0.,0.,0.,0.,0.,0.,0.,0.,0.,0.,0.,0.,0.,0.,0.,0.,0.,0.,
 0.,0.,0.,0.,0.,0.,0.,0.,0.,0.,0.,0.,0.,0.,0.,0.,0.,0.,0.,0.,0.,0.,0.,0
 .,0.,0.,0.,0.,0.,0.,0.,0.,0.,0.,0.,0.,0.,0.,0.,0.,0.,0.,0.,0.,0.,0.,0.
 ,0.,0.,0.,0.,0.,0.,0.,0.,0.,0.,0.,0.,0.,0.,0.,0.,0.,0.,0.,0.,0.,0.,0.,
 0.,0.,0.,0.,0.,0.,0.,0.,0.,0.,0.,0.,0.,0.,0.,0.,0.,0.,0.,0.,0.,0.,0.,0
 .,0.,-0.00204289,-0.00463425,0.00895692,-0.10207191,0.03575028,0.06686
 891,-0.01536644,0.01176455,0.01844312,0.01437628,-0.00587571,-0.013698
 46,0.10980918,0.,0.,0.,0.,0.,0.,0.,0.,0.,0.,0.,0.,0.,0.,0.,0.,0.,0.,0.
 ,0.,0.,0.,0.,0.,0.,0.,0.,0.,0.,0.,0.,0.,0.,0.,0.,0.,0.,0.,0.,0.,0.,0.,
 0.,0.,0.,0.,0.,0.,0.,0.,0.,0.,0.,0.,0.,0.,0.,0.,0.,0.,0.,0.,0.,0.,0.,0
 .,0.,0.,0.,0.,0.,0.,0.,0.,0.,0.,0.,0.,0.,0.,0.,0.,0.,0.,0.,0.,0.,0.,0.
 ,0.,0.,0.,0.,0.,0.,0.,0.,0.,0.,0.,0.,0.,0.,0.,0.,0.,0.,0.,0.,0.,0.,0.,
 0.,0.,0.,0.,0.,0.,0.,0.,0.,0.,0.,0.,0.,0.,0.,0.,0.,0.,0.,0.,0.,0.,0.,0
 .,0.,0.,0.,0.,0.,0.,0.,0.,0.,0.,0.,0.,0.,0.,0.,0.,0.,0.,0.,0.,0.,0.,0.
 ,0.,0.,0.,0.,0.,0.,0.,0.,0.,0.,0.,0.,0.,0.,0.,0.,0.,0.,0.,0.,0.,0.,0.,
 0.,0.,0.,0.,0.,0.,0.,0.,0.,0.,0.,0.,0.,0.,0.,0.,0.,0.,0.,0.,0.,0.,0.,0
 .,0.,0.,0.,0.,0.,0.,0.,0.,0.,0.,0.,0.,0.,0.,0.,0.,0.,0.,0.,0.,0.,0.,0.
 ,0.,0.,0.,0.,0.,0.,0.,0.,0.,0.,0.,0.,0.,0.,0.,0.,0.,0.,0.,0.,0.,0.,0.,
 0.,0.,0.,0.,0.,0.,0.,0.,0.,0.,0.,0.,0.,0.,0.,0.,0.,0.,0.,0.,0.,0.,0.,0
 .,0.,0.,0.,0.,0.,0.,0.,0.,0.,0.,0.,0.,0.,0.,0.,0.,0.,0.,0.,0.,0.,0.,0.
 ,0.,0.,0.,0.,0.,0.,0.,0.,0.,0.,0.,0.,0.,0.,0.,0.,0.,0.,0.,0.,0.,0.,0.,
 0.,0.,0.,0.,0.,0.,0.,0.,0.,0.,0.,0.,0.,0.,0.,0.,0.,0.,0.,0.,0.,0.,0.,0
 .,0.,0.,0.,0.,0.,0.,0.,0.,0.,0.,0.,0.,0.,0.,0.,0.,0.,0.,0.,0.,0.,0.,0.
 ,0.,0.,0.,0.,0.,0.,0.,0.,0.,0.,0.,0.,0.,0.,0.,0.,0.,0.,0.,0.,0.,0.,0.,
 0.,0.,0.,0.,0.,0.,0.,0.,0.,0.,0.,0.,0.,0.,0.,0.,0.,0.,0.,0.,0.,0.,0.,0
 .,0.,0.,0.,0.,0.,0.,0.,0.,0.,0.,0.,0.,0.,0.,0.,0.,0.,0.,0.,0.,0.,0.,0.
 ,0.,0.,0.,0.,0.,0.,0.,0.,0.,0.,0.,0.,0.,0.,0.,0.,0.,0.,0.,0.,0.,0.,0.,
 0.,0.,0.,0.,0.,0.,0.,0.,0.,0.,0.,0.,0.,0.,0.,0.,0.,0.,0.,0.,0.,0.,0.,0
 .,0.,0.,0.,0.,0.,0.,0.,0.,0.,0.,0.,0.,0.,0.,0.,0.,0.,0.,0.,0.,0.,0.,0.
 ,0.,0.,0.,0.,0.,0.,0.,0.,0.,0.,0.,0.,0.,0.,0.,0.,0.,0.,0.,0.,0.,0.,0.,
 0.,0.,0.,0.,0.,0.,0.,0.,0.,0.,0.,0.,0.,0.,0.,0.,0.,0.,0.,0.,0.,0.,0.,0
 .,0.,0.,0.,0.,0.,0.,0.,0.,0.,0.,0.,0.,0.,0.,0.,0.,0.,0.,0.,0.,0.,0.,0.
 ,0.,0.,0.,0.,0.,0.,0.,0.,0.,0.,0.,0.,0.,0.,0.,0.,0.,0.,0.,0.,0.,0.,0.,
 0.,0.,0.,0.,0.,0.,0.,0.,0.,0.,0.,0.,0.,0.,0.,0.,0.,0.,0.,0.,0.,0.,0.,0
 .,0.,-0.00775939,0.00720150,0.01040624,0.01633377,-0.06151673,-0.02009
 555,0.01304265,-0.00462649,-0.01343253,0.01012869,-0.00620569,-0.01956
 488,-0.03126151,0.06686845,0.,0.,0.,0.,0.,0.,0.,0.,0.,0.,0.,0.,0.,0.,0
 .,0.,0.,0.,0.,0.,0.,0.,0.,0.,0.,0.,0.,0.,0.,0.,0.,0.,0.,0.,0.,0.,0.,0.
 ,0.,0.,0.,0.,0.,0.,0.,0.,0.,0.,0.,0.,0.,0.,0.,0.,0.,0.,0.,0.,0.,0.,0.,
 0.,0.,0.,0.,0.,0.,0.,0.,0.,0.,0.,0.,0.,0.,0.,0.,0.,0.,0.,0.,0.,0.,0.,0
 .,0.,0.,0.,0.,0.,0.,0.,0.,0.,0.,0.,0.,0.,0.,0.,0.,0.,0.,0.,0.,0.,0.,0.
 ,0.,0.,0.,0.,0.,0.,0.,0.,0.,0.,0.,0.,0.,0.,0.,0.,0.,0.,0.,0.,0.,0.,0.,
 0.,0.,0.,0.,0.,0.,0.,0.,0.,0.,0.,0.,0.,0.,0.,0.,0.,0.,0.,0.,0.,0.,0.,0
 .,0.,0.,0.,0.,0.,0.,0.,0.,0.,0.,0.,0.,0.,0.,0.,0.,0.,0.,0.,0.,0.,0.,0.
 ,0.,0.,0.,0.,0.,0.,0.,0.,0.,0.,0.,0.,0.,0.,0.,0.,0.,0.,0.,0.,0.,0.,0.,
 0.,0.,0.,0.,0.,0.,0.,0.,0.,0.,0.,0.,0.,0.,0.,0.,0.,0.,0.,0.,0.,0.,0.,0
 .,0.,0.,0.,0.,0.,0.,0.,0.,0.,0.,0.,0.,0.,0.,0.,0.,0.,0.,0.,0.,0.,0.,0.
 ,0.,0.,0.,0.,0.,0.,0.,0.,0.,0.,0.,0.,0.,0.,0.,0.,0.,0.,0.,0.,0.,0.,0.,
 0.,0.,0.,0.,0.,0.,0.,0.,0.,0.,0.,0.,0.,0.,0.,0.,0.,0.,0.,0.,0.,0.,0.,0
 .,0.,0.,0.,0.,0.,0.,0.,0.,0.,0.,0.,0.,0.,0.,0.,0.,0.,0.,0.,0.,0.,0.,0.
 ,0.,0.,0.,0.,0.,0.,0.,0.,0.,0.,0.,0.,0.,0.,0.,0.,0.,0.,0.,0.,0.,0.,0.,
 0.,0.,0.,0.,0.,0.,0.,0.,0.,0.,0.,0.,0.,0.,0.,0.,0.,0.,0.,0.,0.,0.,0.,0
 .,0.,0.,0.,0.,0.,0.,0.,0.,0.,0.,0.,0.,0.,0.,0.,0.,0.,0.,0.,0.,0.,0.,0.
 ,0.,0.,0.,0.,0.,0.,0.,0.,0.,0.,0.,0.,0.,0.,0.,0.,0.,0.,0.,0.,0.,0.,0.,
 0.,0.,0.,0.,0.,0.,0.,0.,0.,0.,0.,0.,0.,0.,0.,0.,0.,0.,0.,0.,0.,0.,0.,0
 .,0.,0.,0.,0.,0.,0.,0.,0.,0.,0.,0.,0.,0.,0.,0.,0.,0.,0.,0.,0.,0.,0.,0.
 ,0.,0.,0.,0.,0.,0.,0.,0.,0.,0.,0.,0.,0.,0.,0.,0.,0.,0.,0.,0.,0.,0.,0.,
 0.,0.,0.,0.,0.,0.,0.,0.,0.,0.,0.,0.,0.,0.,0.,0.,0.,0.,0.,0.,0.,0.,0.,0
 .,0.,0.,0.,0.,0.,0.,0.,0.,0.,0.,0.,0.,0.,0.,0.,0.,0.,0.,0.,0.,0.,0.,0.
 ,0.,0.,0.,0.,0.,0.,0.,0.,0.,0.,0.,0.,0.,0.,0.,0.,0.,0.,0.,0.,0.,0.,0.,
 0.,0.,0.,0.,0.,0.,0.,0.,0.,0.,0.,0.,0.,0.,0.,0.,0.,0.,0.,0.,0.,0.,0.,0
 .,0.,0.,0.,0.,0.,0.,0.,0.,0.,0.,0.,0.,0.,0.,0.,0.,0.,0.,0.,0.,0.,0.,0.
 ,0.,0.,0.,0.,0.,0.,0.,0.,0.,0.,0.,0.,0.,0.,0.,0.,0.,0.,0.,0.,0.,0.,0.,
 0.,0.,0.,0.,0.,0.,0.00977657,0.00570708,-0.01146067,0.06874087,-0.0481
 3857,-0.14770944,-0.00443833,0.00242523,0.01363344,0.00838959,-0.01162
 729,-0.01644662,-0.07973946,0.04480211,0.16075704||0.,0.,0.,0.,0.,0.,0
 .,0.,0.,0.,0.,0.,0.,0.,0.,0.,0.,0.,0.,0.,0.,0.,0.,0.,0.,0.,0.,0.,0.,0.
 ,0.,0.,0.,0.,0.,0.,0.,0.,0.,0.,0.,0.,0.,0.,0.,0.,0.,0.,0.,0.,0.,0.,0.,
 0.,0.,0.,0.,0.,0.,0.,0.,0.,0.,0.,0.,0.,0.,0.,0.,0.,0.,0.,0.,0.,0.,0.,0
 .,0.,0.,0.,0.,0.,0.,0.,0.,0.,0.,0.,0.,0.,0.,0.,0.,0.,0.,0.,0.,0.,0.,0.
 ,0.,0.,0.,0.,0.,0.,0.,0.,0.,0.,0.,0.,0.,0.,0.,0.,0.,0.,0.,0.,0.,0.,0.,
 0.,0.,0.,0.,0.,0.,0.,0.,0.,0.,0.,0.,0.,0.,0.,0.,0.,0.,0.,0.,0.,0.,0.,0
 .,0.,0.,0.,0.,0.,0.,0.,0.,0.,0.,0.,0.,0.,0.,0.,0.,0.,0.,0.,0.,0.,0.,0.
 ,0.,0.,0.,0.,0.,0.,0.,0.,0.,0.,0.,0.,0.,0.,0.,0.,0.,0.,0.,0.,0.,0.,0.,
 0.,0.,0.,0.,0.,0.,0.,0.,0.,0.,0.,0.,0.,0.,0.,0.,0.,0.,0.,0.,0.,0.,0.,0
 .,0.,0.,0.,0.,0.,0.,0.,0.,0.,0.,0.,0.,0.,0.,0.,0.,0.,0.,0.,0.,0.,0.,0.
 ,0.,0.,0.,0.,0.,0.,0.,0.,0.,0.,0.,0.,0.,0.,0.,0.,0.,0.,0.,0.,0.,0.,0.,
 0.,0.,0.,0.,0.,0.,0.,0.,0.,0.,0.,0.,0.,0.,0.,0.,0.,0.,0.,0.,0.,0.,0.,0
 .,0.,0.,0.,0.,0.,0.,0.,0.,0.,0.,0.,0.,0.,0.,0.,0.,0.,0.,0.,0.,0.,0.,0.
 ,0.,0.,0.,0.,0.,0.,0.,0.,0.,0.,0.,0.,0.,0.,0.,0.,0.,0.,0.,0.,0.,0.,0.,
 0.,0.,0.,0.,0.,0.,0.,0.,0.,0.,0.,0.,0.,0.,0.,0.,0.,0.,0.,0.,0.,0.,0.,0
 .,0.,0.,0.,0.,0.,0.,0.,0.,0.,0.,0.,0.,0.,0.,0.,0.,0.,0.,0.,0.,0.,0.,0.
 ,0.,0.,0.,0.,0.,0.,0.,0.,0.,0.,0.,0.,0.,0.,0.,0.,0.,0.,0.,0.,0.,0.,0.,
 0.,0.,0.,0.,0.,0.,0.,0.,0.,0.,0.,0.,0.,0.,0.,0.,0.,0.,0.,0.,0.,0.,0.,0
 .,0.,0.,0.,0.,0.,0.,0.,0.,0.,0.,0.,0.,0.,0.,0.,0.,0.,0.,0.,0.,0.,0.,0.
 ,0.,0.,0.,0.,0.,0.,0.,0.,0.,0.,0.,0.,0.,0.,0.,0.,0.,0.,0.,0.,0.,0.,0.,
 0.,0.,0.,0.,0.,0.,0.,0.,0.,0.,0.,0.,0.,0.,0.,0.,0.,0.,0.,0.,0.,0.,0.,0
 .,0.,0.,0.,0.,0.,0.,0.,0.,0.,0.,0.,0.,0.,0.,0.,0.,0.,0.,0.,0.,0.,0.,0.
 ,0.,0.,0.,0.,0.,0.,0.,0.,0.,0.,0.,0.,0.,0.,0.,0.,0.,0.,0.,0.,0.,0.,0.,
 0.,0.,0.,0.,0.,0.,0.,0.,0.,0.,0.,0.,0.,0.,0.,0.,0.,0.,0.,0.,0.,0.,0.,0
 .,0.,0.,0.,0.,0.,0.,0.,0.,0.,0.,0.,0.,0.,0.,0.,0.,0.,0.,0.,0.,0.,0.,0.
 ,0.,0.,0.,0.,0.,0.,0.,0.,0.,0.,0.,0.,0.,0.,0.,0.,0.,0.,0.,0.,0.,0.,0.,
 0.,0.,0.,0.,0.,0.,0.,0.,0.,0.,0.,0.,0.,0.,-0.00000867,-0.00001613,0.00
 004390,0.00000426,-0.00000674,0.00001439,-0.00003043,0.00000929,-0.000
 00729,0.00001455,-0.00000350,-0.00000094,0.00001097,-0.00001602,-0.000
 01644|||@


 LEARN FROM YESTERDAY,
 LIVE FOR TODAY,
 LOOK TO TOMORROW,
 REST THIS AFTERNOON.

           -- SNOOPY
 Job cpu time:       0 days  0 hours 13 minutes  8.0 seconds.
 File lengths (MBytes):  RWF=   2851 Int=      0 D2E=      0 Chk=     41 Scr=      1
 Normal termination of Gaussian 09 at Tue Apr 22 20:42:58 2025.
