 Entering Link 1 = C:\Gaussian\G09W\l1.exe PID=     18076.
  
 Copyright (c) 1988,1990,1992,1993,1995,1998,2003,2009,2013,
            Gaussian, Inc.  All Rights Reserved.
  
 This is part of the Gaussian(R) 09 program.  It is based on
 the Gaussian(R) 03 system (copyright 2003, Gaussian, Inc.),
 the Gaussian(R) 98 system (copyright 1998, Gaussian, Inc.),
 the Gaussian(R) 94 system (copyright 1995, Gaussian, Inc.),
 the Gaussian 92(TM) system (copyright 1992, Gaussian, Inc.),
 the Gaussian 90(TM) system (copyright 1990, Gaussian, Inc.),
 the Gaussian 88(TM) system (copyright 1988, Gaussian, Inc.),
 the Gaussian 86(TM) system (copyright 1986, Carnegie Mellon
 University), and the Gaussian 82(TM) system (copyright 1983,
 Carnegie Mellon University). Gaussian is a federally registered
 trademark of Gaussian, Inc.
  
 This software contains proprietary and confidential information,
 including trade secrets, belonging to Gaussian, Inc.
  
 This software is provided under written license and may be
 used, copied, transmitted, or stored only in accord with that
 written license.
  
 The following legend is applicable only to US Government
 contracts under FAR:
  
                    RESTRICTED RIGHTS LEGEND
  
 Use, reproduction and disclosure by the US Government is
 subject to restrictions as set forth in subparagraphs (a)
 and (c) of the Commercial Computer Software - Restricted
 Rights clause in FAR 52.227-19.
  
 Gaussian, Inc.
 340 Quinnipiac St., Bldg. 40, Wallingford CT 06492
  
  
 ---------------------------------------------------------------
 Warning -- This program may not be used in any manner that
 competes with the business of Gaussian, Inc. or will provide
 assistance to any competitor of Gaussian, Inc.  The licensee
 of this program is prohibited from giving any competitor of
 Gaussian, Inc. access to this program.  By using this program,
 the user acknowledges that Gaussian, Inc. is engaged in the
 business of creating and licensing software in the field of
 computational chemistry and represents and warrants to the
 licensee that it is not a competitor of Gaussian, Inc. and that
 it will not use this program in any manner prohibited above.
 ---------------------------------------------------------------
  

 Cite this work as:
 Gaussian 09, Revision D.01,
 M. J. Frisch, G. W. Trucks, H. B. Schlegel, G. E. Scuseria, 
 M. A. Robb, J. R. Cheeseman, G. Scalmani, V. Barone, B. Mennucci, 
 G. A. Petersson, H. Nakatsuji, M. Caricato, X. Li, H. P. Hratchian, 
 A. F. Izmaylov, J. Bloino, G. Zheng, J. L. Sonnenberg, M. Hada, 
 M. Ehara, K. Toyota, R. Fukuda, J. Hasegawa, M. Ishida, T. Nakajima, 
 Y. Honda, O. Kitao, H. Nakai, T. Vreven, J. A. Montgomery, Jr., 
 J. E. Peralta, F. Ogliaro, M. Bearpark, J. J. Heyd, E. Brothers, 
 K. N. Kudin, V. N. Staroverov, T. Keith, R. Kobayashi, J. Normand, 
 K. Raghavachari, A. Rendell, J. C. Burant, S. S. Iyengar, J. Tomasi, 
 M. Cossi, N. Rega, J. M. Millam, M. Klene, J. E. Knox, J. B. Cross, 
 V. Bakken, C. Adamo, J. Jaramillo, R. Gomperts, R. E. Stratmann, 
 O. Yazyev, A. J. Austin, R. Cammi, C. Pomelli, J. W. Ochterski, 
 R. L. Martin, K. Morokuma, V. G. Zakrzewski, G. A. Voth, 
 P. Salvador, J. J. Dannenberg, S. Dapprich, A. D. Daniels, 
 O. Farkas, J. B. Foresman, J. V. Ortiz, J. Cioslowski, 
 and D. J. Fox, Gaussian, Inc., Wallingford CT, 2013.
 
 ******************************************
 Gaussian 09:  IA32W-G09RevD.01 24-Apr-2013
                15-Mar-2026 
 ******************************************
 %chk=C:\Users\User\Desktop\IMRG\ECE+ML\Re_Gr_NS.chk
 ---------------------------------------
 # opt freq pm6 scf=qc geom=connectivity
 ---------------------------------------
 1/14=-1,18=20,19=15,26=1,38=1,57=2/1,3;
 2/9=110,12=2,17=6,18=5,40=1/2;
 3/5=2,16=1,25=1,41=3900000,71=1/1,2,3;
 4/35=1/1;
 5/5=2,8=3,35=1,38=5/8;
 6/7=2,8=2,9=2,10=2,28=1/1;
 7//1,2,3,16;
 1/14=-1,18=20,19=15,26=1/3(2);
 2/9=110/2;
 99//99;
 2/9=110/2;
 3/5=2,16=1,25=1,41=3900000,71=1,135=20/1,2,3;
 4/5=5,16=3,35=1/1;
 5/5=2,8=3,35=1,38=5/8;
 7//1,2,3,16;
 1/14=-1,18=20,19=15,26=1/3(-5);
 2/9=110/2;
 6/7=2,8=2,9=2,10=2,19=2,28=1/1;
 99/9=1/99;
 --------
 Re_Gr_NS
 --------
 Symbolic Z-matrix:
 Charge =  0 Multiplicity = 2
 C                     0.17695   1.02371   2.99497 
 C                     1.43495   0.29741   2.57781 
 C                     2.69295   1.02371   2.99497 
 C                     5.20895   1.02371   2.99497 
 C                     7.72495   1.02371   2.99497 
 C                     3.95095   0.29741   2.57781 
 C                     6.46695   0.29741   2.57781 
 C                    -1.08105   3.20263   2.99497 
 C                    -2.33905   5.38155   2.99497 
 C                     0.17695   2.47633   2.57781 
 C                    -1.08105   4.65525   2.57781 
 C                    -2.33905   6.83417   2.57781 
 C                     1.43495   3.20263   2.99497 
 C                     0.17695   5.38155   2.99497 
 C                    -1.08105   7.56047   2.99497 
 C                     3.95095   3.20263   2.99497 
 C                     2.69295   5.38155   2.99497 
 C                     1.43495   7.56047   2.99497 
 C                     6.46695   3.20263   2.99497 
 C                     5.20895   5.38155   2.99497 
 C                     3.95095   7.56047   2.99497 
 C                     2.69295   2.47633   2.57781 
 C                     0.17695   6.83417   2.57781 
 C                     5.20895   2.47633   2.57781 
 C                     3.95095   4.65525   2.57781 
 C                     2.69295   6.83417   2.57781 
 C                     7.72495   2.47633   2.57781 
 C                     6.46695   4.65525   2.57781 
 C                     5.20895   6.83417   2.57781 
 H                     8.6156    2.99054   2.87315 
 H                     7.3576    5.16946   2.87315 
 H                     6.0996    7.34838   2.87315 
 H                     3.95095   8.58891   2.69962 
 H                     1.43495   8.58891   2.69962 
 H                    -1.08105   8.58891   2.69962 
 H                    -3.2297    7.34838   2.87315 
 H                    -3.2297    4.86734   2.69962 
 H                    -1.9717    2.68842   2.69962 
 H                    -0.7137    0.5095    2.69962 
 H                     1.43495  -0.73103   2.87315 
 H                     3.95095  -0.73103   2.87315 
 H                     6.49522  -0.60455   3.15277 
 H                     8.37341   0.35071   3.51599 
 Re                    1.43495   4.65525   2.57781 
 

 GradGradGradGradGradGradGradGradGradGradGradGradGradGradGradGradGradGrad
 Berny optimization.
 Initialization pass.
                           ----------------------------
                           !    Initial Parameters    !
                           ! (Angstroms and Degrees)  !
 --------------------------                            --------------------------
 ! Name  Definition              Value          Derivative Info.                !
 --------------------------------------------------------------------------------
 ! R1    R(1,2)                  1.5113         estimate D2E/DX2                !
 ! R2    R(1,10)                 1.5113         estimate D2E/DX2                !
 ! R3    R(1,39)                 1.07           estimate D2E/DX2                !
 ! R4    R(2,3)                  1.5113         estimate D2E/DX2                !
 ! R5    R(2,40)                 1.07           estimate D2E/DX2                !
 ! R6    R(3,6)                  1.5113         estimate D2E/DX2                !
 ! R7    R(3,22)                 1.5113         estimate D2E/DX2                !
 ! R8    R(4,6)                  1.5113         estimate D2E/DX2                !
 ! R9    R(4,7)                  1.5113         estimate D2E/DX2                !
 ! R10   R(4,24)                 1.5113         estimate D2E/DX2                !
 ! R11   R(5,7)                  1.5113         estimate D2E/DX2                !
 ! R12   R(5,27)                 1.5113         estimate D2E/DX2                !
 ! R13   R(5,43)                 1.07           estimate D2E/DX2                !
 ! R14   R(6,41)                 1.07           estimate D2E/DX2                !
 ! R15   R(7,42)                 1.07           estimate D2E/DX2                !
 ! R16   R(8,10)                 1.5113         estimate D2E/DX2                !
 ! R17   R(8,11)                 1.5113         estimate D2E/DX2                !
 ! R18   R(8,38)                 1.07           estimate D2E/DX2                !
 ! R19   R(9,11)                 1.5113         estimate D2E/DX2                !
 ! R20   R(9,12)                 1.5113         estimate D2E/DX2                !
 ! R21   R(9,37)                 1.07           estimate D2E/DX2                !
 ! R22   R(10,13)                1.5113         estimate D2E/DX2                !
 ! R23   R(11,14)                1.5113         estimate D2E/DX2                !
 ! R24   R(12,15)                1.5113         estimate D2E/DX2                !
 ! R25   R(12,36)                1.07           estimate D2E/DX2                !
 ! R26   R(13,22)                1.5113         estimate D2E/DX2                !
 ! R27   R(13,44)                1.5113         estimate D2E/DX2                !
 ! R28   R(14,23)                1.5113         estimate D2E/DX2                !
 ! R29   R(14,44)                1.5113         estimate D2E/DX2                !
 ! R30   R(15,23)                1.5113         estimate D2E/DX2                !
 ! R31   R(15,35)                1.07           estimate D2E/DX2                !
 ! R32   R(16,22)                1.5113         estimate D2E/DX2                !
 ! R33   R(16,24)                1.5113         estimate D2E/DX2                !
 ! R34   R(16,25)                1.5113         estimate D2E/DX2                !
 ! R35   R(17,25)                1.5113         estimate D2E/DX2                !
 ! R36   R(17,26)                1.5113         estimate D2E/DX2                !
 ! R37   R(17,44)                1.5113         estimate D2E/DX2                !
 ! R38   R(18,23)                1.5113         estimate D2E/DX2                !
 ! R39   R(18,26)                1.5113         estimate D2E/DX2                !
 ! R40   R(18,34)                1.07           estimate D2E/DX2                !
 ! R41   R(19,24)                1.5113         estimate D2E/DX2                !
 ! R42   R(19,27)                1.5113         estimate D2E/DX2                !
 ! R43   R(19,28)                1.5113         estimate D2E/DX2                !
 ! R44   R(20,25)                1.5113         estimate D2E/DX2                !
 ! R45   R(20,28)                1.5113         estimate D2E/DX2                !
 ! R46   R(20,29)                1.5113         estimate D2E/DX2                !
 ! R47   R(21,26)                1.5113         estimate D2E/DX2                !
 ! R48   R(21,29)                1.5113         estimate D2E/DX2                !
 ! R49   R(21,33)                1.07           estimate D2E/DX2                !
 ! R50   R(27,30)                1.07           estimate D2E/DX2                !
 ! R51   R(28,31)                1.07           estimate D2E/DX2                !
 ! R52   R(29,32)                1.07           estimate D2E/DX2                !
 ! A1    A(2,1,10)             112.6884         estimate D2E/DX2                !
 ! A2    A(2,1,39)             112.6884         estimate D2E/DX2                !
 ! A3    A(10,1,39)            112.6884         estimate D2E/DX2                !
 ! A4    A(1,2,3)              112.6884         estimate D2E/DX2                !
 ! A5    A(1,2,40)             112.6884         estimate D2E/DX2                !
 ! A6    A(3,2,40)             112.6884         estimate D2E/DX2                !
 ! A7    A(2,3,6)              112.6884         estimate D2E/DX2                !
 ! A8    A(2,3,22)             112.6884         estimate D2E/DX2                !
 ! A9    A(6,3,22)             112.6884         estimate D2E/DX2                !
 ! A10   A(6,4,7)              112.6884         estimate D2E/DX2                !
 ! A11   A(6,4,24)             112.6884         estimate D2E/DX2                !
 ! A12   A(7,4,24)             112.6884         estimate D2E/DX2                !
 ! A13   A(7,5,27)             112.6884         estimate D2E/DX2                !
 ! A14   A(7,5,43)             109.6693         estimate D2E/DX2                !
 ! A15   A(27,5,43)            137.6415         estimate D2E/DX2                !
 ! A16   A(3,6,4)              112.6884         estimate D2E/DX2                !
 ! A17   A(3,6,41)             112.6884         estimate D2E/DX2                !
 ! A18   A(4,6,41)             112.6884         estimate D2E/DX2                !
 ! A19   A(4,7,5)              112.6884         estimate D2E/DX2                !
 ! A20   A(4,7,42)             106.187          estimate D2E/DX2                !
 ! A21   A(5,7,42)             103.5792         estimate D2E/DX2                !
 ! A22   A(10,8,11)            112.6884         estimate D2E/DX2                !
 ! A23   A(10,8,38)            112.6884         estimate D2E/DX2                !
 ! A24   A(11,8,38)            112.6884         estimate D2E/DX2                !
 ! A25   A(11,9,12)            112.6884         estimate D2E/DX2                !
 ! A26   A(11,9,37)            112.6884         estimate D2E/DX2                !
 ! A27   A(12,9,37)            112.6884         estimate D2E/DX2                !
 ! A28   A(1,10,8)             112.6884         estimate D2E/DX2                !
 ! A29   A(1,10,13)            112.6884         estimate D2E/DX2                !
 ! A30   A(8,10,13)            112.6884         estimate D2E/DX2                !
 ! A31   A(8,11,9)             112.6884         estimate D2E/DX2                !
 ! A32   A(8,11,14)            112.6884         estimate D2E/DX2                !
 ! A33   A(9,11,14)            112.6884         estimate D2E/DX2                !
 ! A34   A(9,12,15)            112.6884         estimate D2E/DX2                !
 ! A35   A(9,12,36)            112.6884         estimate D2E/DX2                !
 ! A36   A(15,12,36)           112.6884         estimate D2E/DX2                !
 ! A37   A(10,13,22)           112.6884         estimate D2E/DX2                !
 ! A38   A(10,13,44)           112.6884         estimate D2E/DX2                !
 ! A39   A(22,13,44)           112.6884         estimate D2E/DX2                !
 ! A40   A(11,14,23)           112.6884         estimate D2E/DX2                !
 ! A41   A(11,14,44)           112.6884         estimate D2E/DX2                !
 ! A42   A(23,14,44)           112.6884         estimate D2E/DX2                !
 ! A43   A(12,15,23)           112.6884         estimate D2E/DX2                !
 ! A44   A(12,15,35)           112.6884         estimate D2E/DX2                !
 ! A45   A(23,15,35)           112.6884         estimate D2E/DX2                !
 ! A46   A(22,16,24)           112.6884         estimate D2E/DX2                !
 ! A47   A(22,16,25)           112.6884         estimate D2E/DX2                !
 ! A48   A(24,16,25)           112.6884         estimate D2E/DX2                !
 ! A49   A(25,17,26)           112.6884         estimate D2E/DX2                !
 ! A50   A(25,17,44)           112.6884         estimate D2E/DX2                !
 ! A51   A(26,17,44)           112.6884         estimate D2E/DX2                !
 ! A52   A(23,18,26)           112.6884         estimate D2E/DX2                !
 ! A53   A(23,18,34)           112.6884         estimate D2E/DX2                !
 ! A54   A(26,18,34)           112.6884         estimate D2E/DX2                !
 ! A55   A(24,19,27)           112.6884         estimate D2E/DX2                !
 ! A56   A(24,19,28)           112.6884         estimate D2E/DX2                !
 ! A57   A(27,19,28)           112.6884         estimate D2E/DX2                !
 ! A58   A(25,20,28)           112.6884         estimate D2E/DX2                !
 ! A59   A(25,20,29)           112.6884         estimate D2E/DX2                !
 ! A60   A(28,20,29)           112.6884         estimate D2E/DX2                !
 ! A61   A(26,21,29)           112.6884         estimate D2E/DX2                !
 ! A62   A(26,21,33)           112.6884         estimate D2E/DX2                !
 ! A63   A(29,21,33)           112.6884         estimate D2E/DX2                !
 ! A64   A(3,22,13)            112.6884         estimate D2E/DX2                !
 ! A65   A(3,22,16)            112.6884         estimate D2E/DX2                !
 ! A66   A(13,22,16)           112.6884         estimate D2E/DX2                !
 ! A67   A(14,23,15)           112.6884         estimate D2E/DX2                !
 ! A68   A(14,23,18)           112.6884         estimate D2E/DX2                !
 ! A69   A(15,23,18)           112.6884         estimate D2E/DX2                !
 ! A70   A(4,24,16)            112.6884         estimate D2E/DX2                !
 ! A71   A(4,24,19)            112.6884         estimate D2E/DX2                !
 ! A72   A(16,24,19)           112.6884         estimate D2E/DX2                !
 ! A73   A(16,25,17)           112.6884         estimate D2E/DX2                !
 ! A74   A(16,25,20)           112.6884         estimate D2E/DX2                !
 ! A75   A(17,25,20)           112.6884         estimate D2E/DX2                !
 ! A76   A(17,26,18)           112.6884         estimate D2E/DX2                !
 ! A77   A(17,26,21)           112.6884         estimate D2E/DX2                !
 ! A78   A(18,26,21)           112.6884         estimate D2E/DX2                !
 ! A79   A(5,27,19)            112.6884         estimate D2E/DX2                !
 ! A80   A(5,27,30)            112.6884         estimate D2E/DX2                !
 ! A81   A(19,27,30)           112.6884         estimate D2E/DX2                !
 ! A82   A(19,28,20)           112.6884         estimate D2E/DX2                !
 ! A83   A(19,28,31)           112.6884         estimate D2E/DX2                !
 ! A84   A(20,28,31)           112.6884         estimate D2E/DX2                !
 ! A85   A(20,29,21)           112.6884         estimate D2E/DX2                !
 ! A86   A(20,29,32)           112.6884         estimate D2E/DX2                !
 ! A87   A(21,29,32)           112.6884         estimate D2E/DX2                !
 ! A88   A(13,44,14)           112.6884         estimate D2E/DX2                !
 ! A89   A(13,44,17)           112.6884         estimate D2E/DX2                !
 ! A90   A(14,44,17)           112.6884         estimate D2E/DX2                !
 ! D1    D(10,1,2,3)            51.1032         estimate D2E/DX2                !
 ! D2    D(10,1,2,40)          180.0            estimate D2E/DX2                !
 ! D3    D(39,1,2,3)           180.0            estimate D2E/DX2                !
 ! D4    D(39,1,2,40)          -51.1032         estimate D2E/DX2                !
 ! D5    D(2,1,10,8)           180.0            estimate D2E/DX2                !
 ! D6    D(2,1,10,13)          -51.1032         estimate D2E/DX2                !
 ! D7    D(39,1,10,8)           51.1032         estimate D2E/DX2                !
 ! D8    D(39,1,10,13)         180.0            estimate D2E/DX2                !
 ! D9    D(1,2,3,6)            180.0            estimate D2E/DX2                !
 ! D10   D(1,2,3,22)           -51.1032         estimate D2E/DX2                !
 ! D11   D(40,2,3,6)            51.1032         estimate D2E/DX2                !
 ! D12   D(40,2,3,22)         -180.0            estimate D2E/DX2                !
 ! D13   D(2,3,6,4)            180.0            estimate D2E/DX2                !
 ! D14   D(2,3,6,41)           -51.1032         estimate D2E/DX2                !
 ! D15   D(22,3,6,4)            51.1032         estimate D2E/DX2                !
 ! D16   D(22,3,6,41)          180.0            estimate D2E/DX2                !
 ! D17   D(2,3,22,13)           51.1032         estimate D2E/DX2                !
 ! D18   D(2,3,22,16)          180.0            estimate D2E/DX2                !
 ! D19   D(6,3,22,13)          180.0            estimate D2E/DX2                !
 ! D20   D(6,3,22,16)          -51.1032         estimate D2E/DX2                !
 ! D21   D(7,4,6,3)            180.0            estimate D2E/DX2                !
 ! D22   D(7,4,6,41)            51.1032         estimate D2E/DX2                !
 ! D23   D(24,4,6,3)           -51.1032         estimate D2E/DX2                !
 ! D24   D(24,4,6,41)          180.0            estimate D2E/DX2                !
 ! D25   D(6,4,7,5)            180.0            estimate D2E/DX2                !
 ! D26   D(6,4,7,42)           -67.2727         estimate D2E/DX2                !
 ! D27   D(24,4,7,5)            51.1032         estimate D2E/DX2                !
 ! D28   D(24,4,7,42)          163.8304         estimate D2E/DX2                !
 ! D29   D(6,4,24,16)           51.1032         estimate D2E/DX2                !
 ! D30   D(6,4,24,19)          180.0            estimate D2E/DX2                !
 ! D31   D(7,4,24,16)          180.0            estimate D2E/DX2                !
 ! D32   D(7,4,24,19)          -51.1032         estimate D2E/DX2                !
 ! D33   D(27,5,7,4)           -51.1032         estimate D2E/DX2                !
 ! D34   D(27,5,7,42)         -165.4227         estimate D2E/DX2                !
 ! D35   D(43,5,7,4)           128.6399         estimate D2E/DX2                !
 ! D36   D(43,5,7,42)           14.3203         estimate D2E/DX2                !
 ! D37   D(7,5,27,19)           51.1032         estimate D2E/DX2                !
 ! D38   D(7,5,27,30)          180.0            estimate D2E/DX2                !
 ! D39   D(43,5,27,19)        -128.5377         estimate D2E/DX2                !
 ! D40   D(43,5,27,30)           0.3591         estimate D2E/DX2                !
 ! D41   D(11,8,10,1)          180.0            estimate D2E/DX2                !
 ! D42   D(11,8,10,13)          51.1032         estimate D2E/DX2                !
 ! D43   D(38,8,10,1)          -51.1032         estimate D2E/DX2                !
 ! D44   D(38,8,10,13)        -180.0            estimate D2E/DX2                !
 ! D45   D(10,8,11,9)          180.0            estimate D2E/DX2                !
 ! D46   D(10,8,11,14)         -51.1032         estimate D2E/DX2                !
 ! D47   D(38,8,11,9)           51.1032         estimate D2E/DX2                !
 ! D48   D(38,8,11,14)         180.0            estimate D2E/DX2                !
 ! D49   D(12,9,11,8)         -180.0            estimate D2E/DX2                !
 ! D50   D(12,9,11,14)          51.1032         estimate D2E/DX2                !
 ! D51   D(37,9,11,8)          -51.1032         estimate D2E/DX2                !
 ! D52   D(37,9,11,14)         180.0            estimate D2E/DX2                !
 ! D53   D(11,9,12,15)         -51.1032         estimate D2E/DX2                !
 ! D54   D(11,9,12,36)        -180.0            estimate D2E/DX2                !
 ! D55   D(37,9,12,15)         180.0            estimate D2E/DX2                !
 ! D56   D(37,9,12,36)          51.1032         estimate D2E/DX2                !
 ! D57   D(1,10,13,22)          51.1032         estimate D2E/DX2                !
 ! D58   D(1,10,13,44)         180.0            estimate D2E/DX2                !
 ! D59   D(8,10,13,22)         180.0            estimate D2E/DX2                !
 ! D60   D(8,10,13,44)         -51.1032         estimate D2E/DX2                !
 ! D61   D(8,11,14,23)         180.0            estimate D2E/DX2                !
 ! D62   D(8,11,14,44)          51.1032         estimate D2E/DX2                !
 ! D63   D(9,11,14,23)         -51.1032         estimate D2E/DX2                !
 ! D64   D(9,11,14,44)         180.0            estimate D2E/DX2                !
 ! D65   D(9,12,15,23)          51.1032         estimate D2E/DX2                !
 ! D66   D(9,12,15,35)         180.0            estimate D2E/DX2                !
 ! D67   D(36,12,15,23)        180.0            estimate D2E/DX2                !
 ! D68   D(36,12,15,35)        -51.1032         estimate D2E/DX2                !
 ! D69   D(10,13,22,3)         -51.1032         estimate D2E/DX2                !
 ! D70   D(10,13,22,16)        180.0            estimate D2E/DX2                !
 ! D71   D(44,13,22,3)         180.0            estimate D2E/DX2                !
 ! D72   D(44,13,22,16)         51.1032         estimate D2E/DX2                !
 ! D73   D(10,13,44,14)         51.1032         estimate D2E/DX2                !
 ! D74   D(10,13,44,17)        180.0            estimate D2E/DX2                !
 ! D75   D(22,13,44,14)       -180.0            estimate D2E/DX2                !
 ! D76   D(22,13,44,17)        -51.1032         estimate D2E/DX2                !
 ! D77   D(11,14,23,15)         51.1032         estimate D2E/DX2                !
 ! D78   D(11,14,23,18)        180.0            estimate D2E/DX2                !
 ! D79   D(44,14,23,15)        180.0            estimate D2E/DX2                !
 ! D80   D(44,14,23,18)        -51.1032         estimate D2E/DX2                !
 ! D81   D(11,14,44,13)        -51.1032         estimate D2E/DX2                !
 ! D82   D(11,14,44,17)        180.0            estimate D2E/DX2                !
 ! D83   D(23,14,44,13)       -180.0            estimate D2E/DX2                !
 ! D84   D(23,14,44,17)         51.1032         estimate D2E/DX2                !
 ! D85   D(12,15,23,14)        -51.1032         estimate D2E/DX2                !
 ! D86   D(12,15,23,18)        180.0            estimate D2E/DX2                !
 ! D87   D(35,15,23,14)        180.0            estimate D2E/DX2                !
 ! D88   D(35,15,23,18)         51.1032         estimate D2E/DX2                !
 ! D89   D(24,16,22,3)          51.1032         estimate D2E/DX2                !
 ! D90   D(24,16,22,13)        180.0            estimate D2E/DX2                !
 ! D91   D(25,16,22,3)         180.0            estimate D2E/DX2                !
 ! D92   D(25,16,22,13)        -51.1032         estimate D2E/DX2                !
 ! D93   D(22,16,24,4)         -51.1032         estimate D2E/DX2                !
 ! D94   D(22,16,24,19)        180.0            estimate D2E/DX2                !
 ! D95   D(25,16,24,4)         180.0            estimate D2E/DX2                !
 ! D96   D(25,16,24,19)         51.1032         estimate D2E/DX2                !
 ! D97   D(22,16,25,17)         51.1032         estimate D2E/DX2                !
 ! D98   D(22,16,25,20)        180.0            estimate D2E/DX2                !
 ! D99   D(24,16,25,17)        180.0            estimate D2E/DX2                !
 ! D100  D(24,16,25,20)        -51.1032         estimate D2E/DX2                !
 ! D101  D(26,17,25,16)       -180.0            estimate D2E/DX2                !
 ! D102  D(26,17,25,20)         51.1032         estimate D2E/DX2                !
 ! D103  D(44,17,25,16)        -51.1032         estimate D2E/DX2                !
 ! D104  D(44,17,25,20)        180.0            estimate D2E/DX2                !
 ! D105  D(25,17,26,18)        180.0            estimate D2E/DX2                !
 ! D106  D(25,17,26,21)        -51.1032         estimate D2E/DX2                !
 ! D107  D(44,17,26,18)         51.1032         estimate D2E/DX2                !
 ! D108  D(44,17,26,21)        180.0            estimate D2E/DX2                !
 ! D109  D(25,17,44,13)         51.1032         estimate D2E/DX2                !
 ! D110  D(25,17,44,14)        180.0            estimate D2E/DX2                !
 ! D111  D(26,17,44,13)        180.0            estimate D2E/DX2                !
 ! D112  D(26,17,44,14)        -51.1032         estimate D2E/DX2                !
 ! D113  D(26,18,23,14)         51.1032         estimate D2E/DX2                !
 ! D114  D(26,18,23,15)        180.0            estimate D2E/DX2                !
 ! D115  D(34,18,23,14)        180.0            estimate D2E/DX2                !
 ! D116  D(34,18,23,15)        -51.1032         estimate D2E/DX2                !
 ! D117  D(23,18,26,17)        -51.1032         estimate D2E/DX2                !
 ! D118  D(23,18,26,21)        180.0            estimate D2E/DX2                !
 ! D119  D(34,18,26,17)        180.0            estimate D2E/DX2                !
 ! D120  D(34,18,26,21)         51.1032         estimate D2E/DX2                !
 ! D121  D(27,19,24,4)          51.1032         estimate D2E/DX2                !
 ! D122  D(27,19,24,16)        180.0            estimate D2E/DX2                !
 ! D123  D(28,19,24,4)         180.0            estimate D2E/DX2                !
 ! D124  D(28,19,24,16)        -51.1032         estimate D2E/DX2                !
 ! D125  D(24,19,27,5)         -51.1032         estimate D2E/DX2                !
 ! D126  D(24,19,27,30)        180.0            estimate D2E/DX2                !
 ! D127  D(28,19,27,5)         180.0            estimate D2E/DX2                !
 ! D128  D(28,19,27,30)         51.1032         estimate D2E/DX2                !
 ! D129  D(24,19,28,20)         51.1032         estimate D2E/DX2                !
 ! D130  D(24,19,28,31)        180.0            estimate D2E/DX2                !
 ! D131  D(27,19,28,20)        180.0            estimate D2E/DX2                !
 ! D132  D(27,19,28,31)        -51.1032         estimate D2E/DX2                !
 ! D133  D(28,20,25,16)         51.1032         estimate D2E/DX2                !
 ! D134  D(28,20,25,17)        180.0            estimate D2E/DX2                !
 ! D135  D(29,20,25,16)        180.0            estimate D2E/DX2                !
 ! D136  D(29,20,25,17)        -51.1032         estimate D2E/DX2                !
 ! D137  D(25,20,28,19)        -51.1032         estimate D2E/DX2                !
 ! D138  D(25,20,28,31)        180.0            estimate D2E/DX2                !
 ! D139  D(29,20,28,19)       -180.0            estimate D2E/DX2                !
 ! D140  D(29,20,28,31)         51.1032         estimate D2E/DX2                !
 ! D141  D(25,20,29,21)         51.1032         estimate D2E/DX2                !
 ! D142  D(25,20,29,32)        180.0            estimate D2E/DX2                !
 ! D143  D(28,20,29,21)        180.0            estimate D2E/DX2                !
 ! D144  D(28,20,29,32)        -51.1032         estimate D2E/DX2                !
 ! D145  D(29,21,26,17)         51.1032         estimate D2E/DX2                !
 ! D146  D(29,21,26,18)       -180.0            estimate D2E/DX2                !
 ! D147  D(33,21,26,17)        180.0            estimate D2E/DX2                !
 ! D148  D(33,21,26,18)        -51.1032         estimate D2E/DX2                !
 ! D149  D(26,21,29,20)        -51.1032         estimate D2E/DX2                !
 ! D150  D(26,21,29,32)        180.0            estimate D2E/DX2                !
 ! D151  D(33,21,29,20)        180.0            estimate D2E/DX2                !
 ! D152  D(33,21,29,32)         51.1032         estimate D2E/DX2                !
 --------------------------------------------------------------------------------
 Trust Radius=3.00D-01 FncErr=1.00D-07 GrdErr=1.00D-07
 Number of steps in this run=    264 maximum allowed number of steps=    264.
 GradGradGradGradGradGradGradGradGradGradGradGradGradGradGradGradGradGrad

                          Input orientation:                          
 ---------------------------------------------------------------------
 Center     Atomic      Atomic             Coordinates (Angstroms)
 Number     Number       Type             X           Y           Z
 ---------------------------------------------------------------------
      1          6           0        0.176948    1.023714    2.994967
      2          6           0        1.434948    0.297407    2.577810
      3          6           0        2.692948    1.023714    2.994967
      4          6           0        5.208948    1.023714    2.994967
      5          6           0        7.724948    1.023714    2.994967
      6          6           0        3.950948    0.297407    2.577810
      7          6           0        6.466948    0.297407    2.577810
      8          6           0       -1.081052    3.202634    2.994967
      9          6           0       -2.339052    5.381554    2.994967
     10          6           0        0.176948    2.476327    2.577810
     11          6           0       -1.081052    4.655247    2.577810
     12          6           0       -2.339052    6.834167    2.577810
     13          6           0        1.434948    3.202634    2.994967
     14          6           0        0.176948    5.381554    2.994967
     15          6           0       -1.081052    7.560474    2.994967
     16          6           0        3.950948    3.202634    2.994967
     17          6           0        2.692948    5.381554    2.994967
     18          6           0        1.434948    7.560474    2.994967
     19          6           0        6.466948    3.202634    2.994967
     20          6           0        5.208948    5.381554    2.994967
     21          6           0        3.950948    7.560474    2.994967
     22          6           0        2.692948    2.476327    2.577810
     23          6           0        0.176948    6.834167    2.577810
     24          6           0        5.208948    2.476327    2.577810
     25          6           0        3.950948    4.655247    2.577810
     26          6           0        2.692948    6.834167    2.577810
     27          6           0        7.724948    2.476327    2.577810
     28          6           0        6.466948    4.655247    2.577810
     29          6           0        5.208948    6.834167    2.577810
     30          1           0        8.615597    2.990544    2.873152
     31          1           0        7.357597    5.169464    2.873152
     32          1           0        6.099597    7.348383    2.873152
     33          1           0        3.950948    8.588906    2.699625
     34          1           0        1.434948    8.588906    2.699625
     35          1           0       -1.081052    8.588906    2.699625
     36          1           0       -3.229701    7.348383    2.873152
     37          1           0       -3.229701    4.867338    2.699625
     38          1           0       -1.971701    2.688418    2.699625
     39          1           0       -0.713701    0.509498    2.699625
     40          1           0        1.434948   -0.731025    2.873152
     41          1           0        3.950948   -0.731025    2.873152
     42          1           0        6.495217   -0.604546    3.152772
     43          1           0        8.373408    0.350713    3.515994
     44         75           0        1.434948    4.655247    2.577810
 ---------------------------------------------------------------------
                    Distance matrix (angstroms):
                    1          2          3          4          5
     1  C    0.000000
     2  C    1.511326   0.000000
     3  C    2.516000   1.511326   0.000000
     4  C    5.032000   3.865827   2.516000   0.000000
     5  C    7.548000   6.345521   5.032000   2.516000   0.000000
     6  C    3.865827   2.516000   1.511326   1.511326   3.865827
     7  C    6.345521   5.032000   3.865827   1.511326   1.511326
     8  C    2.516000   3.865827   4.357840   6.656710   9.071567
     9  C    5.032000   6.345521   6.656710   8.715680  10.966990
    10  C    1.511326   2.516000   2.935023   5.254058   7.697818
    11  C    3.865827   5.032000   5.254058   7.275036   9.534552
    12  C    6.345521   7.548000   7.697818   9.534552  11.628391
    13  C    2.516000   2.935023   2.516000   4.357840   6.656710
    14  C    4.357840   5.254058   5.032000   6.656710   8.715680
    15  C    6.656710   7.697818   7.548000   9.071567  10.966990
    16  C    4.357840   3.865827   2.516000   2.516000   4.357840
    17  C    5.032000   5.254058   4.357840   5.032000   6.656710
    18  C    6.656710   7.275036   6.656710   7.548000   9.071567
    19  C    6.656710   5.825409   4.357840   2.516000   2.516000
    20  C    6.656710   6.345521   5.032000   4.357840   5.032000
    21  C    7.548000   7.697818   6.656710   6.656710   7.548000
    22  C    2.935023   2.516000   1.511326   2.935023   5.254058
    23  C    5.825409   6.656710   6.345521   7.697818   9.534552
    24  C    5.254058   4.357840   2.935023   1.511326   2.935023
    25  C    5.254058   5.032000   3.865827   3.865827   5.254058
    26  C    6.345521   6.656710   5.825409   6.345521   7.697818
    27  C    7.697818   6.656710   5.254058   2.935023   1.511326
    28  C    7.275036   6.656710   5.254058   3.865827   3.865827
    29  C    7.697818   7.548000   6.345521   5.825409   6.345521
    30  H    8.665682   7.674759   6.241877   3.935545   2.162524
    31  H    8.292394   7.674759   6.241877   4.671056   4.163775
    32  H    8.665682   8.459458   7.184813   6.388234   6.531313
    33  H    8.459458   8.665682   7.674759   7.674759   8.459458
    34  H    7.674759   8.292394   7.674759   8.459458   9.842940
    35  H    7.674759   8.665682   8.459458   9.842940  11.613139
    36  H    7.184813   8.459458   8.665682  10.546425  12.649925
    37  H    5.144504   6.531313   7.066713   9.277471  11.613139
    38  H    2.734073   4.163775   4.961594   7.377003   9.842940
    39  H    1.070000   2.162524   3.457875   5.952261   8.459458
    40  H    2.162524   1.070000   2.162524   4.163775   6.531313
    41  H    4.163775   2.734073   2.162524   2.162524   4.163775
    42  H    6.526612   5.172082   4.139249   2.081015   2.046551
    43  H    8.240531   7.001804   5.743868   3.276920   1.070000
    44  Re   3.865827   4.357840   3.865827   5.254058   7.275036
                    6          7          8          9         10
     6  C    0.000000
     7  C    2.516000   0.000000
     8  C    5.825409   8.098559   0.000000
     9  C    8.098559  10.176846   2.516000   0.000000
    10  C    4.357840   6.656710   1.511326   3.865827   0.000000
    11  C    6.656710   8.715680   1.511326   1.511326   2.516000
    12  C    9.071567  10.966990   3.865827   1.511326   5.032000
    13  C    3.865827   5.825409   2.516000   4.357840   1.511326
    14  C    6.345521   8.098559   2.516000   2.516000   2.935023
    15  C    8.845743  10.483246   4.357840   2.516000   5.254058
    16  C    2.935023   3.865827   5.032000   6.656710   3.865827
    17  C    5.254058   6.345521   4.357840   5.032000   3.865827
    18  C    7.697818   8.845743   5.032000   4.357840   5.254058
    19  C    3.865827   2.935023   7.548000   9.071567   6.345521
    20  C    5.254058   5.254058   6.656710   7.548000   5.825409
    21  C    7.275036   7.697818   6.656710   6.656710   6.345521
    22  C    2.516000   4.357840   3.865827   5.825409   2.516000
    23  C    7.548000   9.071567   3.865827   2.935023   4.357840
    24  C    2.516000   2.516000   6.345521   8.098559   5.032000
    25  C    4.357840   5.032000   5.254058   6.345521   4.357840
    26  C    6.656710   7.548000   5.254058   5.254058   5.032000
    27  C    4.357840   2.516000   8.845743  10.483246   7.548000
    28  C    5.032000   4.357840   7.697818   8.845743   6.656710
    29  C    6.656710   6.656710   7.275036   7.697818   6.656710
    30  H    5.394363   3.457875   9.699733  11.213211   8.459458
    31  H    5.952261   4.961594   8.665682   9.699733   7.674759
    32  H    7.377003   7.066713   8.292394   8.665682   7.674759
    33  H    8.292394   8.665682   7.377003   7.066713   7.184813
    34  H    8.665682   9.699733   5.952261   4.961594   6.241877
    35  H    9.699733  11.213211   5.394363   3.457875   6.241877
    36  H   10.068029  11.992851   4.671056   2.162524   5.952261
    37  H    8.512392  10.720266   2.734073   1.070000   4.163775
    38  H    6.388234   8.771691   1.070000   2.734073   2.162524
    39  H    4.671056   7.184813   2.734073   5.144504   2.162524
    40  H    2.734073   5.144504   4.671056   7.184813   3.457875
    41  H    1.070000   2.734073   6.388234   8.771691   4.961594
    42  H    2.759965   1.070000   8.480529  10.672516   7.052864
    43  H    4.521192   2.125469   9.888970  11.846418   8.519412
    44  Re   5.032000   6.656710   2.935023   3.865827   2.516000
                   11         12         13         14         15
    11  C    0.000000
    12  C    2.516000   0.000000
    13  C    2.935023   5.254058   0.000000
    14  C    1.511326   2.935023   2.516000   0.000000
    15  C    2.935023   1.511326   5.032000   2.516000   0.000000
    16  C    5.254058   7.275036   2.516000   4.357840   6.656710
    17  C    3.865827   5.254058   2.516000   2.516000   4.357840
    18  C    3.865827   3.865827   4.357840   2.516000   2.516000
    19  C    7.697818   9.534552   5.032000   6.656710   8.715680
    20  C    6.345521   7.697818   4.357840   5.032000   6.656710
    21  C    5.825409   6.345521   5.032000   4.357840   5.032000
    22  C    4.357840   6.656710   1.511326   3.865827   6.345521
    23  C    2.516000   2.516000   3.865827   1.511326   1.511326
    24  C    6.656710   8.715680   3.865827   5.825409   8.098559
    25  C    5.032000   6.656710   2.935023   3.865827   5.825409
    26  C    4.357840   5.032000   3.865827   2.935023   3.865827
    27  C    9.071567  10.966990   6.345521   8.098559  10.176846
    28  C    7.548000   9.071567   5.254058   6.345521   8.098559
    29  C    6.656710   7.548000   5.254058   5.254058   6.345521
    30  H    9.842940  11.613139   7.184813   8.771691  10.720266
    31  H    8.459458   9.842940   6.241877   7.184813   8.771691
    32  H    7.674759   8.459458   6.241877   6.241877   7.184813
    33  H    6.388234   6.531313   5.952261   4.961594   5.144504
    34  H    4.671056   4.163775   5.394363   3.457875   2.734073
    35  H    3.935545   2.162524   5.952261   3.457875   1.070000
    36  H    3.457875   1.070000   6.241877   3.935545   2.162524
    37  H    2.162524   2.162524   4.961594   3.457875   3.457875
    38  H    2.162524   4.163775   3.457875   3.457875   4.961594
    39  H    4.163775   6.531313   3.457875   4.961594   7.066713
    40  H    5.952261   8.459458   3.935545   6.241877   8.665682
    41  H    7.377003   9.842940   4.671056   7.184813   9.699733
    42  H    9.240988  11.563276   6.334497   8.705103  11.139673
    43  H   10.430533  12.556757   7.519784   9.631344  11.901215
    44  Re   2.516000   4.357840   1.511326   1.511326   3.865827
                   16         17         18         19         20
    16  C    0.000000
    17  C    2.516000   0.000000
    18  C    5.032000   2.516000   0.000000
    19  C    2.516000   4.357840   6.656710   0.000000
    20  C    2.516000   2.516000   4.357840   2.516000   0.000000
    21  C    4.357840   2.516000   2.516000   5.032000   2.516000
    22  C    1.511326   2.935023   5.254058   3.865827   3.865827
    23  C    5.254058   2.935023   1.511326   7.275036   5.254058
    24  C    1.511326   3.865827   6.345521   1.511326   2.935023
    25  C    1.511326   1.511326   3.865827   2.935023   1.511326
    26  C    3.865827   1.511326   1.511326   5.254058   2.935023
    27  C    3.865827   5.825409   8.098559   1.511326   3.865827
    28  C    2.935023   3.865827   5.825409   1.511326   1.511326
    29  C    3.865827   2.935023   3.865827   3.865827   1.511326
    30  H    4.671056   6.388234   8.512392   2.162524   4.163775
    31  H    3.935545   4.671056   6.388234   2.162524   2.162524
    32  H    4.671056   3.935545   4.671056   4.163775   2.162524
    33  H    5.394363   3.457875   2.734073   5.952261   3.457875
    34  H    5.952261   3.457875   1.070000   7.377003   4.961594
    35  H    7.377003   4.961594   2.734073   9.277471   7.066713
    36  H    8.292394   6.241877   4.671056  10.546425   8.665682
    37  H    7.377003   5.952261   5.394363   9.842940   8.459458
    38  H    5.952261   5.394363   5.952261   8.459458   7.674759
    39  H    5.394363   5.952261   7.377003   7.674759   7.674759
    40  H    4.671056   6.241877   8.292394   6.388234   7.184813
    41  H    3.935545   6.241877   8.665682   4.671056   6.241877
    42  H    4.581793   7.093345   9.607225   3.810554   6.124768
    43  H    5.288012   7.605817  10.019698   3.469800   5.966124
    44  Re   2.935023   1.511326   2.935023   5.254058   3.865827
                   21         22         23         24         25
    21  C    0.000000
    22  C    5.254058   0.000000
    23  C    3.865827   5.032000   0.000000
    24  C    5.254058   2.516000   6.656710   0.000000
    25  C    2.935023   2.516000   4.357840   2.516000   0.000000
    26  C    1.511326   4.357840   2.516000   5.032000   2.516000
    27  C    6.345521   5.032000   8.715680   2.516000   4.357840
    28  C    3.865827   4.357840   6.656710   2.516000   2.516000
    29  C    1.511326   5.032000   5.032000   4.357840   2.516000
    30  H    6.531313   5.952261   9.277471   3.457875   4.961594
    31  H    4.163775   5.394363   7.377003   3.457875   3.457875
    32  H    2.162524   5.952261   5.952261   4.961594   3.457875
    33  H    1.070000   6.241877   4.163775   6.241877   3.935545
    34  H    2.734073   6.241877   2.162524   7.184813   4.671056
    35  H    5.144504   7.184813   2.162524   8.771691   6.388234
    36  H    7.184813   7.674759   3.457875   9.748587   7.674759
    37  H    7.674759   6.388234   3.935545   8.771691   7.184813
    38  H    7.674759   4.671056   4.671056   7.184813   6.241877
    39  H    8.459458   3.935545   6.388234   6.241877   6.241877
    40  H    8.665682   3.457875   7.674759   4.961594   5.952261
    41  H    8.292394   3.457875   8.459458   3.457875   5.394363
    42  H    8.553698   4.927435   9.776787   3.387750   5.871057
    43  H    8.474094   6.137267  10.492727   3.925841   6.242384
    44  Re   3.865827   2.516000   2.516000   4.357840   2.516000
                   26         27         28         29         30
    26  C    0.000000
    27  C    6.656710   0.000000
    28  C    4.357840   2.516000   0.000000
    29  C    2.516000   5.032000   2.516000   0.000000
    30  H    7.066713   1.070000   2.734073   5.144504   0.000000
    31  H    4.961594   2.734073   1.070000   2.734073   2.516000
    32  H    3.457875   5.144504   2.734073   1.070000   5.032000
    33  H    2.162524   7.184813   4.671056   2.162524   7.289082
    34  H    2.162524   8.771691   6.388234   4.163775   9.106783
    35  H    4.163775  10.720266   8.512392   6.531313  11.198070
    36  H    5.952261  11.992851  10.068029   8.459458  12.621483
    37  H    6.241877  11.213211   9.699733   8.665682  11.994313
    38  H    6.241877   9.699733   8.665682   8.292394  10.593029
    39  H    7.184813   8.665682   8.292394   8.665682   9.655127
    40  H    7.674759   7.066713   7.377003   8.459458   8.087755
    41  H    7.674759   4.961594   5.952261   7.674759   5.967329
    42  H    8.373905   3.366689   5.291201   7.570966   4.183164
    43  H    8.670812   2.412245   4.800395   7.275244   2.727747
    44  Re   2.516000   6.656710   5.032000   4.357840   7.377003
                   31         32         33         34         35
    31  H    0.000000
    32  H    2.516000   0.000000
    33  H    4.829902   2.487107   0.000000
    34  H    6.841087   4.829902   2.516000   0.000000
    35  H    9.106783   7.289082   5.032000   2.516000   0.000000
    36  H   10.809188   9.329297   7.289082   4.829902   2.487107
    37  H   10.593029   9.655127   8.087755   5.967329   4.297297
    38  H    9.655127   9.321547   8.360235   6.813297   5.967329
    39  H    9.321547   9.655127   9.329297   8.360235   8.087755
    40  H    8.360235   9.329297   9.655127   9.321547   9.655127
    41  H    6.813297   8.360235   9.321547   9.655127  10.593029
    42  H    5.844747   7.967671   9.549775  10.503867  11.921609
    43  H    4.966435   7.385855   9.385757  10.801690  12.566666
    44  Re   5.952261   5.394363   4.671056   3.935545   4.671056
                   36         37         38         39         40
    36  H    0.000000
    37  H    2.487107   0.000000
    38  H    4.829902   2.516000   0.000000
    39  H    7.289082   5.032000   2.516000   0.000000
    40  H    9.329297   7.289082   4.829902   2.487107   0.000000
    41  H   10.809188   9.106783   6.841087   4.829902   2.516000
    42  H   12.565878  11.167850   9.096024   7.308552   5.069567
    43  H   13.565130  12.477920  10.637321   9.125087   7.051640
    44  Re   5.394363   4.671056   3.935545   4.671056   5.394363
                   41         42         43         44
    41  H    0.000000
    42  H    2.562712   0.000000
    43  H    4.597995   2.138235   0.000000
    44  Re   5.952261   7.321361   8.218967   0.000000
 Stoichiometry    C29H14Re(2)
 Framework group  C1[X(C29H14Re)]
 Deg. of freedom   126
 Full point group                 C1      NOp   1
 Largest Abelian subgroup         C1      NOp   1
 Largest concise Abelian subgroup C1      NOp   1
                         Standard orientation:                         
 ---------------------------------------------------------------------
 Center     Atomic      Atomic             Coordinates (Angstroms)
 Number     Number       Type             X           Y           Z
 ---------------------------------------------------------------------
      1          6           0       -0.339619   -3.773989    0.258345
      2          6           0        1.110131   -3.772416   -0.168655
      3          6           0        1.838192   -2.514144    0.244605
      4          6           0        4.016002   -1.254300    0.230865
      5          6           0        6.193813    0.005545    0.217125
      6          6           0        3.287941   -2.512572   -0.182395
      7          6           0        5.465752   -1.252727   -0.196135
      8          6           0       -2.519546   -2.517835    0.274165
      9          6           0       -4.699474   -1.261681    0.289984
     10          6           0       -1.069797   -2.516262   -0.152835
     11          6           0       -3.249724   -1.260109   -0.137015
     12          6           0       -5.429652   -0.003955   -0.121196
     13          6           0       -0.341736   -1.257991    0.260425
     14          6           0       -2.521663   -0.001837    0.276244
     15          6           0       -4.701591    1.254317    0.292064
     16          6           0        1.836075    0.001854    0.246685
     17          6           0       -0.343853    1.258008    0.262504
     18          6           0       -2.523780    2.514161    0.278324
     19          6           0        4.013885    1.261699    0.232945
     20          6           0        1.833958    2.517852    0.248764
     21          6           0       -0.345970    3.774006    0.264584
     22          6           0        1.108014   -1.256418   -0.166575
     23          6           0       -3.251841    1.255889   -0.134936
     24          6           0        3.285824    0.003427   -0.180315
     25          6           0        1.105897    1.259580   -0.164496
     26          6           0       -1.074031    2.515734   -0.148676
     27          6           0        5.463635    1.263271   -0.194055
     28          6           0        3.283707    2.519425   -0.178236
     29          6           0        1.103780    3.775579   -0.162416
     30          1           0        5.979093    2.154112    0.098528
     31          1           0        3.799166    3.410266    0.114347
     32          1           0        1.619238    4.666420    0.130167
     33          1           0       -0.862927    4.664461   -0.026527
     34          1           0       -3.040737    3.404616   -0.012787
     35          1           0       -5.218548    2.144772    0.000953
     36          1           0       -6.456057   -0.005069    0.181115
     37          1           0       -5.214932   -2.152523   -0.002599
     38          1           0       -3.035005   -3.408676   -0.018418
     39          1           0       -0.855077   -4.664830   -0.034238
     40          1           0        1.627088   -4.662871    0.122456
     41          1           0        3.804898   -3.403026    0.108716
     42          1           0        5.945745   -2.019775    0.374955
     43          1           0        7.095627   -0.252728    0.731835
     44         75           0       -1.071914   -0.000264   -0.150756
 ---------------------------------------------------------------------
 Rotational constants (GHZ):      0.2984178      0.1251192      0.0888267
 Standard basis: VSTO-6G (5D, 7F)
 There are   140 symmetry adapted cartesian basis functions of A   symmetry.
 There are   139 symmetry adapted basis functions of A   symmetry.
   139 basis functions,   840 primitive gaussians,   140 cartesian basis functions
    69 alpha electrons       68 beta electrons
       nuclear repulsion energy      1290.6806788078 Hartrees.
 Integral buffers will be    262144 words long.
 Regular integral format.
 Two-electron integral symmetry is turned off.
 Do NDO integrals.
 One-electron integrals computed using PRISM.
 NBasis=   139 RedAO= F EigKep=  0.00D+00  NBF=   139
 NBsUse=   139 1.00D-04 EigRej=  0.00D+00 NBFU=   139
 Nonelectrostatic core Hamiltonian diagonalized for initial guess.
 Initial guess <Sx>= 0.0000 <Sy>= 0.0000 <Sz>= 0.5000 <S**2>= 0.7500 S= 0.5000
 Keep J ints in memory in canonical form, NReq=2111950.
 Gradient too large for Newton-Raphson -- use scaled steepest descent instead.
 Gradient too large for Newton-Raphson -- use scaled steepest descent instead.
     Accept linear search using points  2 and  3.
 Gradient too large for Newton-Raphson -- use scaled steepest descent instead.
     Accept linear search using points  2 and  3.
 Gradient too large for Newton-Raphson -- use scaled steepest descent instead.
     Accept linear search using points  1 and  2.
 Gradient too large for Newton-Raphson -- use scaled steepest descent instead.
 Gradient too large for Newton-Raphson -- use scaled steepest descent instead.
     Accept linear search using points  1 and  2.
 Gradient too large for Newton-Raphson -- use scaled steepest descent instead.
     Minimum is close to point  2 DX=  9.27D-02 DF= -7.29D-06 DXR=  7.17D-02 DFR=  5.17D-03 which will be used.
 Gradient too large for Newton-Raphson -- use scaled steepest descent instead.
 Gradient too large for Newton-Raphson -- use scaled steepest descent instead.
     Accept linear search using points  1 and  2.
     Minimum is close to point  2 DX= -8.39D-02 DF= -4.19D-06 DXR=  6.90D-02 DFR=  7.02D-03 which will be used.
 Gradient too large for Newton-Raphson -- use scaled steepest descent instead.
     Accept linear search using points  1 and  2.
     Minimum is close to point  2 DX= -1.12D-01 DF= -5.62D-06 DXR=  9.44D-02 DFR=  1.29D-02 which will be used.
 Gradient too large for Newton-Raphson -- use scaled steepest descent instead.
     Accept linear search using points  1 and  2.
     Minimum is close to point  2 DX= -3.91D-02 DF= -5.56D-07 DXR=  3.36D-02 DFR=  1.53D-03 which will be used.
 LinEq1:  Iter=  0 NonCon=     1 RMS=3.04D-04 Max=1.17D-02 NDo=     1
 AX will form     1 AO Fock derivatives at one time.
 LinEq1:  Iter=  1 NonCon=     1 RMS=2.36D-04 Max=9.42D-03 NDo=     1
 LinEq1:  Iter=  2 NonCon=     1 RMS=6.47D-05 Max=2.66D-03 NDo=     1
 LinEq1:  Iter=  3 NonCon=     1 RMS=1.20D-05 Max=2.62D-04 NDo=     1
 LinEq1:  Iter=  4 NonCon=     1 RMS=2.95D-06 Max=6.48D-05 NDo=     1
 LinEq1:  Iter=  5 NonCon=     1 RMS=1.10D-06 Max=3.51D-05 NDo=     1
 LinEq1:  Iter=  6 NonCon=     1 RMS=4.35D-07 Max=8.64D-06 NDo=     1
 LinEq1:  Iter=  7 NonCon=     1 RMS=1.86D-07 Max=4.59D-06 NDo=     1
 LinEq1:  Iter=  8 NonCon=     1 RMS=8.10D-08 Max=2.19D-06 NDo=     1
 LinEq1:  Iter=  9 NonCon=     1 RMS=2.92D-08 Max=5.19D-07 NDo=     1
 LinEq1:  Iter= 10 NonCon=     1 RMS=1.27D-08 Max=2.20D-07 NDo=     1
 LinEq1:  Iter= 11 NonCon=     1 RMS=5.18D-09 Max=1.30D-07 NDo=     1
 LinEq1:  Iter= 12 NonCon=     0 RMS=1.88D-09 Max=3.38D-08 NDo=     1
 Linear equations converged to 9.828D-09 9.828D-08 after    12 iterations.
     Accept linear search using points  1 and  2.
 Gradient too large for Newton-Raphson -- use scaled steepest descent instead.
 LinEq1:  Iter=  0 NonCon=     1 RMS=2.21D-04 Max=4.83D-03 NDo=     1
 LinEq1:  Iter=  1 NonCon=     1 RMS=1.58D-04 Max=4.35D-03 NDo=     1
 LinEq1:  Iter=  2 NonCon=     1 RMS=4.49D-05 Max=1.16D-03 NDo=     1
 LinEq1:  Iter=  3 NonCon=     1 RMS=2.58D-05 Max=9.21D-04 NDo=     1
 LinEq1:  Iter=  4 NonCon=     1 RMS=8.72D-06 Max=1.96D-04 NDo=     1
 LinEq1:  Iter=  5 NonCon=     1 RMS=4.30D-06 Max=9.87D-05 NDo=     1
 LinEq1:  Iter=  6 NonCon=     1 RMS=1.59D-06 Max=3.08D-05 NDo=     1
 LinEq1:  Iter=  7 NonCon=     1 RMS=6.10D-07 Max=1.47D-05 NDo=     1
 LinEq1:  Iter=  8 NonCon=     1 RMS=1.94D-07 Max=4.62D-06 NDo=     1
 LinEq1:  Iter=  9 NonCon=     1 RMS=8.36D-08 Max=1.81D-06 NDo=     1
 LinEq1:  Iter= 10 NonCon=     1 RMS=3.32D-08 Max=7.38D-07 NDo=     1
 LinEq1:  Iter= 11 NonCon=     1 RMS=1.40D-08 Max=2.70D-07 NDo=     1
 LinEq1:  Iter= 12 NonCon=     1 RMS=5.44D-09 Max=1.80D-07 NDo=     1
 LinEq1:  Iter= 13 NonCon=     0 RMS=2.11D-09 Max=4.01D-08 NDo=     1
 Linear equations converged to 9.828D-09 9.828D-08 after    13 iterations.
 Incorrect curvature in search direction -- initial direction reversed.
     Minimum is close to point  5 DX= -3.07D-01 DF= -9.18D-05 DXR=  6.68D-02 DFR=  1.34D-02 which will be used.
 Gradient too large for Newton-Raphson -- use scaled steepest descent instead.
     Minimum is close to point  2 DX=  1.22D-01 DF= -5.05D-05 DXR=  8.59D-02 DFR=  7.43D-03 which will be used.
 Gradient too large for Newton-Raphson -- use scaled steepest descent instead.
 Gradient too large for Newton-Raphson -- use scaled steepest descent instead.
     Accept linear search using points  1 and  2.
 Gradient too large for Newton-Raphson -- use scaled steepest descent instead.
     Accept linear search using points  1 and  2.
     Minimum is close to point  2 DX= -1.16D-01 DF= -4.93D-05 DXR=  7.84D-02 DFR=  1.13D-02 which will be used.
 Gradient too large for Newton-Raphson -- use scaled steepest descent instead.
     Accept linear search using points  1 and  2.
 Gradient too large for Newton-Raphson -- use scaled steepest descent instead.
     Minimum is close to point  2 DX=  2.31D-02 DF= -1.36D-06 DXR=  1.63D-02 DFR=  2.64D-04 which will be used.
 Gradient too large for Newton-Raphson -- use scaled steepest descent instead.
     Minimum is close to point  2 DX=  1.54D-01 DF= -5.21D-05 DXR=  9.92D-02 DFR=  9.94D-03 which will be used.
 Gradient too large for Newton-Raphson -- use scaled steepest descent instead.
 Gradient too large for Newton-Raphson -- use scaled steepest descent instead.
     Accept linear search using points  1 and  2.
     Minimum is close to point  2 DX= -1.40D-01 DF= -8.30D-05 DXR=  9.62D-02 DFR=  1.67D-02 which will be used.
 Gradient too large for Newton-Raphson -- use scaled steepest descent instead.
     Accept linear search using points  1 and  2.
 Gradient too large for Newton-Raphson -- use scaled steepest descent instead.
     Minimum is close to point  2 DX=  5.46D-02 DF= -7.69D-06 DXR=  3.75D-02 DFR=  1.41D-03 which will be used.
 Gradient too large for Newton-Raphson -- use scaled steepest descent instead.
 Gradient too large for Newton-Raphson -- use scaled steepest descent instead.
     Accept linear search using points  1 and  2.
     Minimum is close to point  2 DX= -1.15D-01 DF= -7.13D-05 DXR=  7.29D-02 DFR=  1.05D-02 which will be used.
 Gradient too large for Newton-Raphson -- use scaled steepest descent instead.
     Accept linear search using points  1 and  2.
 Gradient too large for Newton-Raphson -- use scaled steepest descent instead.
     Accept linear search using points  1 and  2.
     Minimum is close to point  2 DX= -3.75D-02 DF= -1.11D-05 DXR=  2.40D-02 DFR=  1.20D-03 which will be used.
 Gradient too large for Newton-Raphson -- use scaled steepest descent instead.
     Minimum is close to point  2 DX=  1.16D-02 DF= -5.71D-07 DXR=  7.66D-03 DFR=  5.86D-05 which will be used.
 Gradient too large for Newton-Raphson -- use scaled steepest descent instead.
 Gradient too large for Newton-Raphson -- use scaled steepest descent instead.
     Accept linear search using points  1 and  2.
     Minimum is close to point  2 DX= -5.82D-02 DF= -2.23D-05 DXR=  3.77D-02 DFR=  2.85D-03 which will be used.
 Gradient too large for Newton-Raphson -- use scaled steepest descent instead.
     Accept linear search using points  1 and  2.
     Minimum is close to point  2 DX= -9.53D-02 DF= -4.52D-05 DXR=  6.33D-02 DFR=  7.59D-03 which will be used.
 Gradient too large for Newton-Raphson -- use scaled steepest descent instead.
     Accept linear search using points  1 and  2.
     Minimum is close to point  2 DX= -1.16D-01 DF= -4.92D-05 DXR=  8.36D-02 DFR=  1.20D-02 which will be used.
 Gradient too large for Newton-Raphson -- use scaled steepest descent instead.
     Accept linear search using points  1 and  2.
     Minimum is close to point  2 DX= -5.70D-02 DF= -7.85D-06 DXR=  4.24D-02 DFR=  2.99D-03 which will be used.
 Gradient too large for Newton-Raphson -- use scaled steepest descent instead.
     Minimum is close to point  2 DX=  4.56D-02 DF= -1.47D-06 DXR=  3.16D-02 DFR=  9.98D-04 which will be used.
 Gradient too large for Newton-Raphson -- use scaled steepest descent instead.
 Gradient too large for Newton-Raphson -- use scaled steepest descent instead.
     Accept linear search using points  1 and  2.
     Minimum is close to point  2 DX= -1.02D-01 DF= -3.95D-06 DXR=  6.84D-02 DFR=  8.77D-03 which will be used.
 Gradient too large for Newton-Raphson -- use scaled steepest descent instead.
     Accept linear search using points  1 and  2.
 LinEq1:  Iter=  0 NonCon=     1 RMS=1.65D-04 Max=4.88D-03 NDo=     1
 LinEq1:  Iter=  1 NonCon=     1 RMS=8.56D-05 Max=3.84D-03 NDo=     1
 LinEq1:  Iter=  2 NonCon=     1 RMS=5.83D-06 Max=1.70D-04 NDo=     1
 LinEq1:  Iter=  3 NonCon=     1 RMS=1.76D-06 Max=4.16D-05 NDo=     1
 LinEq1:  Iter=  4 NonCon=     1 RMS=5.30D-07 Max=1.00D-05 NDo=     1
 LinEq1:  Iter=  5 NonCon=     1 RMS=1.11D-07 Max=1.58D-06 NDo=     1
 LinEq1:  Iter=  6 NonCon=     1 RMS=2.90D-08 Max=5.96D-07 NDo=     1
 LinEq1:  Iter=  7 NonCon=     1 RMS=7.84D-09 Max=1.51D-07 NDo=     1
 LinEq1:  Iter=  8 NonCon=     0 RMS=1.90D-09 Max=2.81D-08 NDo=     1
 Linear equations converged to 9.828D-09 9.828D-08 after     8 iterations.
     Accept linear search using points  1 and  2.
     Minimum is close to point  2 DX= -4.23D-02 DF= -6.55D-07 DXR=  4.42D-02 DFR=  2.02D-03 which will be used.
 LinEq1:  Iter=  0 NonCon=     1 RMS=8.61D-06 Max=4.08D-04 NDo=     1
 LinEq1:  Iter=  1 NonCon=     1 RMS=1.34D-06 Max=2.42D-05 NDo=     1
 LinEq1:  Iter=  2 NonCon=     1 RMS=4.31D-07 Max=6.24D-06 NDo=     1
 LinEq1:  Iter=  3 NonCon=     1 RMS=9.27D-08 Max=2.39D-06 NDo=     1
 LinEq1:  Iter=  4 NonCon=     1 RMS=2.44D-08 Max=4.20D-07 NDo=     1
 LinEq1:  Iter=  5 NonCon=     1 RMS=6.86D-09 Max=9.03D-08 NDo=     1
 LinEq1:  Iter=  6 NonCon=     0 RMS=1.67D-09 Max=2.63D-08 NDo=     1
 Linear equations converged to 2.803D-09 2.803D-08 after     6 iterations.
     Minimum is close to point  2 DX=  4.33D-03 DF= -1.75D-11 DXR=  4.31D-03 DFR=  1.86D-05 which will be used.
 LinEq1:  Iter=  0 NonCon=     1 RMS=1.03D-07 Max=2.12D-06 NDo=     1
 LinEq1:  Iter=  1 NonCon=     1 RMS=3.94D-08 Max=1.07D-06 NDo=     1
 LinEq1:  Iter=  2 NonCon=     1 RMS=1.13D-08 Max=1.84D-07 NDo=     1
 LinEq1:  Iter=  3 NonCon=     1 RMS=3.18D-09 Max=5.26D-08 NDo=     1
 LinEq1:  Iter=  4 NonCon=     1 RMS=7.06D-10 Max=1.87D-08 NDo=     1
 LinEq1:  Iter=  5 NonCon=     1 RMS=1.76D-10 Max=4.06D-09 NDo=     1
 LinEq1:  Iter=  6 NonCon=     1 RMS=4.20D-11 Max=1.21D-09 NDo=     1
 LinEq1:  Iter=  7 NonCon=     0 RMS=1.09D-11 Max=1.78D-10 NDo=     1
 Linear equations converged to 5.104D-11 5.104D-10 after     7 iterations.
 SCF Done:  E(UPM6) =   1.58105606696     a.u. after   43 cycles
            Convg  =    0.5135D-07                   135 Fock formations.
              S**2 =  7.0265                  -V/T =  1.0169
 <Sx>= 0.0000 <Sy>= 0.0000 <Sz>= 0.5000 <S**2>= 7.0265 S= 2.1975
 <L.S>= 0.000000000000E+00
 Annihilation of the first spin contaminant:
 S**2 before annihilation     7.0265,   after    24.2255

 **********************************************************************

            Population analysis using the SCF density.

 **********************************************************************

 Orbital symmetries:
 Alpha Orbitals:
       Occupied  (A) (A) (A) (A) (A) (A) (A) (A) (A) (A) (A) (A)
                 (A) (A) (A) (A) (A) (A) (A) (A) (A) (A) (A) (A)
                 (A) (A) (A) (A) (A) (A) (A) (A) (A) (A) (A) (A)
                 (A) (A) (A) (A) (A) (A) (A) (A) (A) (A) (A) (A)
                 (A) (A) (A) (A) (A) (A) (A) (A) (A) (A) (A) (A)
                 (A) (A) (A) (A) (A) (A) (A) (A) (A)
       Virtual   (A) (A) (A) (A) (A) (A) (A) (A) (A) (A) (A) (A)
                 (A) (A) (A) (A) (A) (A) (A) (A) (A) (A) (A) (A)
                 (A) (A) (A) (A) (A) (A) (A) (A) (A) (A) (A) (A)
                 (A) (A) (A) (A) (A) (A) (A) (A) (A) (A) (A) (A)
                 (A) (A) (A) (A) (A) (A) (A) (A) (A) (A) (A) (A)
                 (A) (A) (A) (A) (A) (A) (A) (A) (A) (A)
 Beta  Orbitals:
       Occupied  (A) (A) (A) (A) (A) (A) (A) (A) (A) (A) (A) (A)
                 (A) (A) (A) (A) (A) (A) (A) (A) (A) (A) (A) (A)
                 (A) (A) (A) (A) (A) (A) (A) (A) (A) (A) (A) (A)
                 (A) (A) (A) (A) (A) (A) (A) (A) (A) (A) (A) (A)
                 (A) (A) (A) (A) (A) (A) (A) (A) (A) (A) (A) (A)
                 (A) (A) (A) (A) (A) (A) (A) (A)
       Virtual   (A) (A) (A) (A) (A) (A) (A) (A) (A) (A) (A) (A)
                 (A) (A) (A) (A) (A) (A) (A) (A) (A) (A) (A) (A)
                 (A) (A) (A) (A) (A) (A) (A) (A) (A) (A) (A) (A)
                 (A) (A) (A) (A) (A) (A) (A) (A) (A) (A) (A) (A)
                 (A) (A) (A) (A) (A) (A) (A) (A) (A) (A) (A) (A)
                 (A) (A) (A) (A) (A) (A) (A) (A) (A) (A) (A)
 The electronic state is 2-A.
 Alpha  occ. eigenvalues --   -1.08927  -1.08459  -1.05246  -1.03183  -1.00469
 Alpha  occ. eigenvalues --   -0.98797  -0.95985  -0.95872  -0.94262  -0.90953
 Alpha  occ. eigenvalues --   -0.89782  -0.89544  -0.86422  -0.84313  -0.82767
 Alpha  occ. eigenvalues --   -0.78923  -0.76968  -0.76278  -0.75739  -0.72121
 Alpha  occ. eigenvalues --   -0.71810  -0.69881  -0.67206  -0.65541  -0.64487
 Alpha  occ. eigenvalues --   -0.59853  -0.58940  -0.58679  -0.56554  -0.56316
 Alpha  occ. eigenvalues --   -0.55095  -0.54716  -0.52556  -0.52202  -0.51827
 Alpha  occ. eigenvalues --   -0.51435  -0.49514  -0.49047  -0.48870  -0.48427
 Alpha  occ. eigenvalues --   -0.47787  -0.47660  -0.47079  -0.46491  -0.45976
 Alpha  occ. eigenvalues --   -0.44992  -0.44842  -0.44280  -0.43875  -0.43658
 Alpha  occ. eigenvalues --   -0.42825  -0.42435  -0.41929  -0.41161  -0.40651
 Alpha  occ. eigenvalues --   -0.39878  -0.39643  -0.39543  -0.38850  -0.38626
 Alpha  occ. eigenvalues --   -0.36613  -0.36426  -0.35935  -0.35107  -0.34720
 Alpha  occ. eigenvalues --   -0.32922  -0.32121  -0.30104  -0.29631
 Alpha virt. eigenvalues --   -0.05498  -0.00919  -0.00163   0.00557   0.01104
 Alpha virt. eigenvalues --    0.01286   0.01694   0.01921   0.02161   0.03286
 Alpha virt. eigenvalues --    0.03840   0.04062   0.04170   0.04582   0.05471
 Alpha virt. eigenvalues --    0.05886   0.06789   0.09506   0.12523   0.12693
 Alpha virt. eigenvalues --    0.12787   0.13316   0.13547   0.13605   0.14250
 Alpha virt. eigenvalues --    0.14492   0.14952   0.14968   0.15242   0.15449
 Alpha virt. eigenvalues --    0.15646   0.15662   0.15823   0.16086   0.16193
 Alpha virt. eigenvalues --    0.16399   0.16495   0.16570   0.16711   0.17023
 Alpha virt. eigenvalues --    0.17245   0.17557   0.17611   0.17718   0.17776
 Alpha virt. eigenvalues --    0.18228   0.18271   0.18452   0.18740   0.18817
 Alpha virt. eigenvalues --    0.19311   0.19513   0.19864   0.20348   0.21671
 Alpha virt. eigenvalues --    0.21934   0.22148   0.22388   0.22444   0.22454
 Alpha virt. eigenvalues --    0.22528   0.22588   0.22629   0.22773   0.22789
 Alpha virt. eigenvalues --    0.22821   0.22893   0.22923   0.23058   0.23199
  Beta  occ. eigenvalues --   -1.08686  -1.08437  -1.05205  -1.03139  -1.00487
  Beta  occ. eigenvalues --   -0.98917  -0.95933  -0.95782  -0.94192  -0.90917
  Beta  occ. eigenvalues --   -0.90011  -0.89476  -0.86219  -0.84410  -0.83189
  Beta  occ. eigenvalues --   -0.78872  -0.77035  -0.76297  -0.75898  -0.72060
  Beta  occ. eigenvalues --   -0.71702  -0.69975  -0.67238  -0.65482  -0.64388
  Beta  occ. eigenvalues --   -0.59788  -0.59230  -0.58765  -0.56706  -0.56034
  Beta  occ. eigenvalues --   -0.54924  -0.54771  -0.52565  -0.52359  -0.51869
  Beta  occ. eigenvalues --   -0.51622  -0.49325  -0.48933  -0.48484  -0.48300
  Beta  occ. eigenvalues --   -0.48099  -0.47593  -0.47152  -0.46151  -0.45882
  Beta  occ. eigenvalues --   -0.44968  -0.44903  -0.44242  -0.43748  -0.43503
  Beta  occ. eigenvalues --   -0.42574  -0.42412  -0.42167  -0.41555  -0.40770
  Beta  occ. eigenvalues --   -0.40253  -0.39234  -0.39176  -0.38870  -0.38539
  Beta  occ. eigenvalues --   -0.36889  -0.36044  -0.35804  -0.35352  -0.34105
  Beta  occ. eigenvalues --   -0.33822  -0.33556  -0.27923
  Beta virt. eigenvalues --   -0.03140  -0.01506  -0.01281  -0.00463   0.00073
  Beta virt. eigenvalues --    0.00498   0.01740   0.02300   0.02503   0.02817
  Beta virt. eigenvalues --    0.03470   0.04198   0.04557   0.04833   0.05189
  Beta virt. eigenvalues --    0.06062   0.06730   0.07045   0.08022   0.12553
  Beta virt. eigenvalues --    0.12624   0.13428   0.13525   0.13742   0.14389
  Beta virt. eigenvalues --    0.14539   0.14789   0.14924   0.15191   0.15336
  Beta virt. eigenvalues --    0.15535   0.15789   0.15932   0.16119   0.16210
  Beta virt. eigenvalues --    0.16362   0.16422   0.16560   0.16603   0.16655
  Beta virt. eigenvalues --    0.17019   0.17136   0.17327   0.17466   0.17828
  Beta virt. eigenvalues --    0.18032   0.18087   0.18337   0.18444   0.18678
  Beta virt. eigenvalues --    0.18898   0.19276   0.19316   0.19569   0.20170
  Beta virt. eigenvalues --    0.21617   0.21759   0.22125   0.22152   0.22276
  Beta virt. eigenvalues --    0.22388   0.22502   0.22713   0.22769   0.22836
  Beta virt. eigenvalues --    0.22940   0.22977   0.23103   0.23192   0.23251
  Beta virt. eigenvalues --    0.23386
          Condensed to atoms (all electrons):
               1          2          3          4          5          6
     1  C    4.116717   0.000000   0.000000   0.000000   0.000000   0.000000
     2  C    0.000000   4.158785   0.000000   0.000000   0.000000   0.000000
     3  C    0.000000   0.000000   3.979299   0.000000   0.000000   0.000000
     4  C    0.000000   0.000000   0.000000   4.002572   0.000000   0.000000
     5  C    0.000000   0.000000   0.000000   0.000000   4.172692   0.000000
     6  C    0.000000   0.000000   0.000000   0.000000   0.000000   4.148609
     7  C    0.000000   0.000000   0.000000   0.000000   0.000000   0.000000
     8  C    0.000000   0.000000   0.000000   0.000000   0.000000   0.000000
     9  C    0.000000   0.000000   0.000000   0.000000   0.000000   0.000000
    10  C    0.000000   0.000000   0.000000   0.000000   0.000000   0.000000
    11  C    0.000000   0.000000   0.000000   0.000000   0.000000   0.000000
    12  C    0.000000   0.000000   0.000000   0.000000   0.000000   0.000000
    13  C    0.000000   0.000000   0.000000   0.000000   0.000000   0.000000
    14  C    0.000000   0.000000   0.000000   0.000000   0.000000   0.000000
    15  C    0.000000   0.000000   0.000000   0.000000   0.000000   0.000000
    16  C    0.000000   0.000000   0.000000   0.000000   0.000000   0.000000
    17  C    0.000000   0.000000   0.000000   0.000000   0.000000   0.000000
    18  C    0.000000   0.000000   0.000000   0.000000   0.000000   0.000000
    19  C    0.000000   0.000000   0.000000   0.000000   0.000000   0.000000
    20  C    0.000000   0.000000   0.000000   0.000000   0.000000   0.000000
    21  C    0.000000   0.000000   0.000000   0.000000   0.000000   0.000000
    22  C    0.000000   0.000000   0.000000   0.000000   0.000000   0.000000
    23  C    0.000000   0.000000   0.000000   0.000000   0.000000   0.000000
    24  C    0.000000   0.000000   0.000000   0.000000   0.000000   0.000000
    25  C    0.000000   0.000000   0.000000   0.000000   0.000000   0.000000
    26  C    0.000000   0.000000   0.000000   0.000000   0.000000   0.000000
    27  C    0.000000   0.000000   0.000000   0.000000   0.000000   0.000000
    28  C    0.000000   0.000000   0.000000   0.000000   0.000000   0.000000
    29  C    0.000000   0.000000   0.000000   0.000000   0.000000   0.000000
    30  H    0.000000   0.000000   0.000000   0.000000   0.000000   0.000000
    31  H    0.000000   0.000000   0.000000   0.000000   0.000000   0.000000
    32  H    0.000000   0.000000   0.000000   0.000000   0.000000   0.000000
    33  H    0.000000   0.000000   0.000000   0.000000   0.000000   0.000000
    34  H    0.000000   0.000000   0.000000   0.000000   0.000000   0.000000
    35  H    0.000000   0.000000   0.000000   0.000000   0.000000   0.000000
    36  H    0.000000   0.000000   0.000000   0.000000   0.000000   0.000000
    37  H    0.000000   0.000000   0.000000   0.000000   0.000000   0.000000
    38  H    0.000000   0.000000   0.000000   0.000000   0.000000   0.000000
    39  H    0.000000   0.000000   0.000000   0.000000   0.000000   0.000000
    40  H    0.000000   0.000000   0.000000   0.000000   0.000000   0.000000
    41  H    0.000000   0.000000   0.000000   0.000000   0.000000   0.000000
    42  H    0.000000   0.000000   0.000000   0.000000   0.000000   0.000000
    43  H    0.000000   0.000000   0.000000   0.000000   0.000000   0.000000
    44  Re   0.000000   0.000000   0.000000   0.000000   0.000000   0.000000
               7          8          9         10         11         12
     1  C    0.000000   0.000000   0.000000   0.000000   0.000000   0.000000
     2  C    0.000000   0.000000   0.000000   0.000000   0.000000   0.000000
     3  C    0.000000   0.000000   0.000000   0.000000   0.000000   0.000000
     4  C    0.000000   0.000000   0.000000   0.000000   0.000000   0.000000
     5  C    0.000000   0.000000   0.000000   0.000000   0.000000   0.000000
     6  C    0.000000   0.000000   0.000000   0.000000   0.000000   0.000000
     7  C    4.139128   0.000000   0.000000   0.000000   0.000000   0.000000
     8  C    0.000000   4.181026   0.000000   0.000000   0.000000   0.000000
     9  C    0.000000   0.000000   4.106321   0.000000   0.000000   0.000000
    10  C    0.000000   0.000000   0.000000   3.969122   0.000000   0.000000
    11  C    0.000000   0.000000   0.000000   0.000000   3.979703   0.000000
    12  C    0.000000   0.000000   0.000000   0.000000   0.000000   4.161695
    13  C    0.000000   0.000000   0.000000   0.000000   0.000000   0.000000
    14  C    0.000000   0.000000   0.000000   0.000000   0.000000   0.000000
    15  C    0.000000   0.000000   0.000000   0.000000   0.000000   0.000000
    16  C    0.000000   0.000000   0.000000   0.000000   0.000000   0.000000
    17  C    0.000000   0.000000   0.000000   0.000000   0.000000   0.000000
    18  C    0.000000   0.000000   0.000000   0.000000   0.000000   0.000000
    19  C    0.000000   0.000000   0.000000   0.000000   0.000000   0.000000
    20  C    0.000000   0.000000   0.000000   0.000000   0.000000   0.000000
    21  C    0.000000   0.000000   0.000000   0.000000   0.000000   0.000000
    22  C    0.000000   0.000000   0.000000   0.000000   0.000000   0.000000
    23  C    0.000000   0.000000   0.000000   0.000000   0.000000   0.000000
    24  C    0.000000   0.000000   0.000000   0.000000   0.000000   0.000000
    25  C    0.000000   0.000000   0.000000   0.000000   0.000000   0.000000
    26  C    0.000000   0.000000   0.000000   0.000000   0.000000   0.000000
    27  C    0.000000   0.000000   0.000000   0.000000   0.000000   0.000000
    28  C    0.000000   0.000000   0.000000   0.000000   0.000000   0.000000
    29  C    0.000000   0.000000   0.000000   0.000000   0.000000   0.000000
    30  H    0.000000   0.000000   0.000000   0.000000   0.000000   0.000000
    31  H    0.000000   0.000000   0.000000   0.000000   0.000000   0.000000
    32  H    0.000000   0.000000   0.000000   0.000000   0.000000   0.000000
    33  H    0.000000   0.000000   0.000000   0.000000   0.000000   0.000000
    34  H    0.000000   0.000000   0.000000   0.000000   0.000000   0.000000
    35  H    0.000000   0.000000   0.000000   0.000000   0.000000   0.000000
    36  H    0.000000   0.000000   0.000000   0.000000   0.000000   0.000000
    37  H    0.000000   0.000000   0.000000   0.000000   0.000000   0.000000
    38  H    0.000000   0.000000   0.000000   0.000000   0.000000   0.000000
    39  H    0.000000   0.000000   0.000000   0.000000   0.000000   0.000000
    40  H    0.000000   0.000000   0.000000   0.000000   0.000000   0.000000
    41  H    0.000000   0.000000   0.000000   0.000000   0.000000   0.000000
    42  H    0.000000   0.000000   0.000000   0.000000   0.000000   0.000000
    43  H    0.000000   0.000000   0.000000   0.000000   0.000000   0.000000
    44  Re   0.000000   0.000000   0.000000   0.000000   0.000000   0.000000
              13         14         15         16         17         18
     1  C    0.000000   0.000000   0.000000   0.000000   0.000000   0.000000
     2  C    0.000000   0.000000   0.000000   0.000000   0.000000   0.000000
     3  C    0.000000   0.000000   0.000000   0.000000   0.000000   0.000000
     4  C    0.000000   0.000000   0.000000   0.000000   0.000000   0.000000
     5  C    0.000000   0.000000   0.000000   0.000000   0.000000   0.000000
     6  C    0.000000   0.000000   0.000000   0.000000   0.000000   0.000000
     7  C    0.000000   0.000000   0.000000   0.000000   0.000000   0.000000
     8  C    0.000000   0.000000   0.000000   0.000000   0.000000   0.000000
     9  C    0.000000   0.000000   0.000000   0.000000   0.000000   0.000000
    10  C    0.000000   0.000000   0.000000   0.000000   0.000000   0.000000
    11  C    0.000000   0.000000   0.000000   0.000000   0.000000   0.000000
    12  C    0.000000   0.000000   0.000000   0.000000   0.000000   0.000000
    13  C    4.577562   0.000000   0.000000   0.000000   0.000000   0.000000
    14  C    0.000000   4.548066   0.000000   0.000000   0.000000   0.000000
    15  C    0.000000   0.000000   4.105124   0.000000   0.000000   0.000000
    16  C    0.000000   0.000000   0.000000   4.031683   0.000000   0.000000
    17  C    0.000000   0.000000   0.000000   0.000000   4.620729   0.000000
    18  C    0.000000   0.000000   0.000000   0.000000   0.000000   4.173119
    19  C    0.000000   0.000000   0.000000   0.000000   0.000000   0.000000
    20  C    0.000000   0.000000   0.000000   0.000000   0.000000   0.000000
    21  C    0.000000   0.000000   0.000000   0.000000   0.000000   0.000000
    22  C    0.000000   0.000000   0.000000   0.000000   0.000000   0.000000
    23  C    0.000000   0.000000   0.000000   0.000000   0.000000   0.000000
    24  C    0.000000   0.000000   0.000000   0.000000   0.000000   0.000000
    25  C    0.000000   0.000000   0.000000   0.000000   0.000000   0.000000
    26  C    0.000000   0.000000   0.000000   0.000000   0.000000   0.000000
    27  C    0.000000   0.000000   0.000000   0.000000   0.000000   0.000000
[...]
 00000211,-0.00000616,0.00009291,-0.00015892,-0.00048425,-0.00155632,-0
 .00006332,-0.04718665,0.03068527,-0.00000158,0.00004050,0.00000683,-0.
 00112620,0.00092991,-0.00013943,-0.00662198,0.02759942,-0.00510191,-0.
 00681810,-0.02974562,0.00364533,0.00008309,0.00010886,0.00000828,-0.03
 367044,-0.00297947,0.00128596,-0.00158467,-0.00099703,0.00014507,-0.00
 005805,0.00001807,0.00001703,-0.00000925,0.00000214,0.00000309,0.00009
 826,-0.00005888,-0.00000315,0.00001107,-0.00002302,-0.00000506,-0.0000
 0197,-0.00000681,-0.00000011,-0.00009201,0.00040641,-0.00017273,0.0000
 2555,0.00001358,0.00001038,0.00000486,-0.00000195,0.00000008,0.0000306
 3,0.00003892,0.00002212,-0.00002294,0.00001856,0.00001538,0.00000235,-
 0.00000263,0.00000016,0.00004308,-0.00054893,0.00002824,0.00004621,-0.
 00009564,0.00000407,0.00003957,-0.00001923,0.00000553,-0.00242163,0.00
 086947,-0.00046023,-0.00001123,0.00000450,0.00000657,-0.00222891,-0.00
 085538,-0.00049543,0.00002558,-0.00000081,0.00002781,-0.00002060,-0.00
 001689,-0.00001214,0.00006573,-0.00005249,0.00000769,-0.00019027,0.000
 04920,-0.00002073,-0.00003578,0.00006612,-0.00000418,-0.00002248,-0.00
 000493,-0.00000280,0.00000827,-0.00002773,0.00000009,0.00000474,0.0000
 0150,0.00000056,0.00000068,0.00000527,0.00000056,0.00000004,0.00000114
 ,-0.00000050,-0.00000060,0.00000231,-0.00000028,-0.00000096,0.00000051
 ,-0.00000002,0.00000027,0.00000248,-0.00000012,-0.00000190,0.00000909,
 -0.00000340,-0.00000862,-0.00000912,-0.00000531,-0.00088306,-0.0001010
 3,0.00001412,0.05638711,-0.00031629,-0.00015373,0.00003892,0.00066363,
 -0.00016476,-0.00012854,0.01426796,-0.02397150,0.00563375,-0.01612528,
 -0.02702512,0.00373618,0.00024748,-0.00008877,0.00003220,-0.00289156,-
 0.21511335,0.02638314,-0.00096638,-0.00023580,-0.00032708,-0.00002001,
 -0.00006607,0.00001431,-0.00002252,-0.00001245,0.00001127,-0.00005574,
 -0.00001809,0.00001827,0.00000154,0.00003020,0.00001144,-0.00003545,-0
 .00000843,0.00000820,0.00002908,-0.00022337,-0.00001208,-0.00005583,0.
 00000267,-0.00003153,0.00002973,-0.00000781,-0.00000736,-0.00005589,0.
 00046871,-0.00015942,-0.00000633,-0.00003749,-0.00002131,0.00009049,-0
 .00000192,-0.00000948,0.00001999,-0.00001926,-0.00001262,0.00029380,0.
 00013071,0.00002929,-0.00004003,0.00015096,-0.00000784,0.00110454,-0.0
 0015362,0.00058029,-0.00005738,0.00000794,0.00002184,-0.00117553,-0.00
 064046,0.00107803,-0.00017134,-0.00036216,-0.00008021,-0.00009815,0.00
 012055,0.00000851,0.00020932,-0.00015688,0.00002377,-0.00010523,0.0001
 1067,-0.00007426,0.00002844,-0.00007674,0.00000447,-0.00010228,-0.0000
 4772,-0.00000585,-0.00007275,-0.00004940,-0.00000645,-0.00003062,-0.00
 002877,-0.00000298,-0.00000947,-0.00006808,-0.00000959,0.00000559,-0.0
 0002515,0.00000208,0.00000462,-0.00001638,-0.00000432,0.00001955,-0.00
 001104,-0.00000805,0.00002374,0.00001561,-0.00000496,0.00002263,0.0000
 2167,-0.00000173,0.00002050,0.00008013,0.00000237,0.00010012,0.0003789
 9,-0.00001187,0.00515489,0.26664388,-0.00017592,0.00025767,-0.00016430
 ,0.00045367,-0.00009163,-0.00079359,-0.00487241,0.00738595,0.00519327,
 0.00049215,0.00141051,0.00559972,0.00018710,0.00040909,-0.00000983,0.0
 0360355,0.02636153,-0.04454462,-0.00025814,-0.00037633,-0.00222355,-0.
 00005283,0.00006552,0.00000249,0.00000110,0.00000720,-0.00000945,0.000
 06109,-0.00018325,-0.00002391,-0.00000021,-0.00003576,0.00000576,0.000
 00478,-0.00000067,-0.00000460,0.00017601,-0.00008071,-0.00018507,0.000
 00253,0.00001886,-0.00000933,-0.00000319,-0.00000224,-0.00000580,0.000
 92113,0.00036646,0.00023343,-0.00003300,0.00001272,-0.00001860,0.00002
 797,-0.00000679,-0.00000534,-0.00047432,-0.00023576,-0.00013262,0.0004
 1529,-0.00020872,0.00004363,0.00007657,-0.00001845,0.00001401,-0.00116
 146,-0.00025573,0.00254673,0.00000786,-0.00000321,-0.00000587,-0.00035
 359,0.00209361,0.00646121,-0.00004290,-0.00037739,-0.00068979,-0.00007
 539,-0.00001063,0.00001126,0.00016518,-0.00035103,0.00003659,-0.000212
 99,0.00043760,-0.00032242,-0.00005556,0.00012976,0.00007128,0.00000869
 ,0.00000528,0.00002702,0.00000579,0.00000328,0.00003247,0.00000792,0.0
 0000547,0.00000383,0.00000191,0.00001471,-0.00000183,-0.00000125,0.000
 00511,0.00000563,0.00000094,0.00000318,0.00000424,-0.00000364,0.000001
 95,0.00000485,-0.00000346,-0.00000458,0.00000612,-0.00000352,-0.000004
 12,0.00001105,0.00000377,0.00000265,0.00010017,-0.00001604,-0.00000919
 ,0.00034354,0.00126894,-0.03681324,0.02781236,0.00000073,-0.00000592,0
 .00000359,0.00001362,-0.00004842,0.00001352,0.00009698,-0.00008908,-0.
 00000547,-0.00697035,0.02722671,-0.00323948,-0.00702612,-0.02895424,0.
 00034432,-0.00161241,0.00111212,-0.00019916,-0.03300503,-0.00111454,0.
 00040798,-0.00000016,-0.00000473,0.00000253,-0.00000219,0.,0.00000211,
 0.00000061,0.00000109,0.00000591,0.00000340,0.00000030,-0.00000033,0.0
 0000032,-0.00000181,-0.00000005,-0.00001928,-0.00001823,-0.00001129,-0
 .00000208,-0.00000157,-0.00000415,-0.00000052,-0.00000184,0.00000030,0
 .00007673,0.00047539,-0.00005302,-0.00000086,0.00004306,0.00000102,-0.
 00000731,0.00000246,0.00000050,-0.00002328,-0.00001456,0.00000095,-0.0
 0005574,0.00000486,-0.00002097,0.00000565,0.00000126,0.00000111,0.0000
 7539,0.00002305,0.00001725,0.00000260,0.00000262,0.00000122,-0.0023828
 7,0.00085351,-0.00040372,-0.00007655,0.00004164,-0.00002471,-0.0000006
 1,-0.00001348,-0.00000460,-0.00243460,-0.00108055,-0.00064958,0.000030
 65,-0.00002291,0.00000774,-0.00000054,-0.00000334,0.00000390,0.0000573
 6,-0.00042854,0.00009138,0.00000480,0.00001072,-0.00000025,0.00000056,
 0.00000270,-0.00000030,0.00000015,-0.00000115,-0.00000048,-0.00000051,
 0.00000162,0.00000016,0.00000005,0.00000171,-0.00000003,-0.00000102,0.
 00000058,0.00000006,-0.00000081,0.00000039,-0.00000020,-0.00000132,0.0
 0000128,-0.00000054,0.00000049,-0.00000019,-0.00000180,-0.00002661,0.0
 0002712,-0.00000641,-0.00091597,-0.00009810,-0.00002818,0.05452870,-0.
 00001757,0.00001355,0.00000207,-0.00002313,-0.00001302,-0.00001716,-0.
 00002451,-0.00008700,0.00005529,0.01369429,-0.02329025,0.00351444,-0.0
 1507633,-0.02712274,0.00064554,0.00066876,-0.00027855,0.00000192,-0.00
 147350,-0.22111555,0.01178814,-0.00003379,-0.00000762,0.00000460,-0.00
 001351,-0.00000719,0.00000036,-0.00000110,-0.00001754,-0.00003387,-0.0
 0001459,-0.00001177,0.00000882,-0.00002034,0.00000723,0.00000626,-0.00
 000373,-0.00003964,0.00008770,-0.00000199,0.00000027,0.00000826,0.0000
 0307,0.00000847,-0.00000240,0.00006531,-0.00024553,0.00006598,0.000011
 40,0.00000139,0.00008635,-0.00000254,0.00002026,0.00000142,0.00028683,
 0.00023627,0.00004023,0.00004412,-0.00011233,0.00000982,0.00000347,-0.
 00000689,0.00000204,-0.00008103,-0.00009410,-0.00004310,-0.00000507,0.
 00002047,0.00001025,0.00081636,-0.00010235,0.00009865,0.00002112,0.000
 06507,-0.00004719,-0.00001829,0.00000930,-0.00004173,-0.00105712,-0.00
 012149,0.00016880,-0.00002330,0.00007977,-0.00000791,-0.00003848,0.000
 03369,-0.00001231,-0.00018056,-0.00029233,-0.00004196,-0.00008658,-0.0
 0007497,-0.00000986,-0.00001150,-0.00002252,-0.00000164,-0.00000482,-0
 .00002115,-0.00000167,0.00000187,-0.00002215,-0.00000219,0.00000299,-0
 .00001829,-0.00000393,0.00001779,-0.00000956,-0.00000644,0.00002044,0.
 00001030,-0.00000466,0.00002466,0.00001557,-0.00000339,0.00001884,0.00
 002537,-0.00000348,-0.00001188,0.00009409,-0.00001053,0.00012546,0.000
 50776,-0.00003565,0.00290353,0.27147292,-0.00011800,-0.00001085,-0.000
 01444,0.00004821,-0.00010689,-0.00002306,0.00040033,-0.00065621,0.0000
 9530,-0.00327327,0.00552373,0.00658812,-0.00079386,-0.00115265,0.00739
 834,-0.00057413,0.00022927,-0.00028834,0.00150340,0.01166533,-0.035898
 59,0.00012116,-0.00013237,-0.00000668,0.00002125,-0.00001291,-0.000009
 56,-0.00031108,0.00005417,0.00005269,-0.00001053,0.00007619,-0.0000013
 6,0.00000434,0.00000407,-0.00000284,0.00029090,0.00005969,-0.00005968,
 -0.00001567,0.00000875,0.00001276,0.00000753,-0.00000878,-0.00000601,-
 0.00053071,0.00018091,-0.00020942,0.00012041,-0.00020480,-0.00005038,0
 .00007649,-0.00001520,-0.00000033,-0.00025578,0.00038663,-0.00011855,0
 .00013785,0.00029115,0.00011990,-0.00015596,0.00009027,-0.00003152,0.0
 0004913,0.00067943,-0.00009724,-0.00003848,-0.00001062,-0.00000063,-0.
 00002556,-0.00038152,0.00086828,-0.00037037,-0.00006065,-0.00009546,-0
 .00004907,0.00016767,0.00004450,-0.00029357,0.00012967,0.00439699,0.00
 008400,-0.00021430,-0.00003830,0.00016100,-0.00018409,-0.00001493,0.00
 008149,-0.00005867,-0.00057638,0.00000383,0.00000548,0.00002703,0.0000
 0108,0.00000240,0.00000894,-0.00000043,0.00000065,0.00000627,-0.000000
 23,0.00000245,0.00000293,0.00000072,0.00000114,0.00000279,-0.00000109,
 0.00000061,0.00000225,-0.00000084,-0.00000155,0.00000331,-0.00000198,-
 0.00000119,0.00000830,-0.00000157,-0.00000158,0.00000750,0.00000151,-0
 .00000571,0.00003231,-0.00004580,0.00000050,0.00037686,0.00360221,-0.0
 1609907,0.01860881,0.00001817,0.00000590,-0.00000341,0.00000617,0.0000
 1813,0.00000218,-0.00014854,0.00002271,0.00003635,-0.00170079,-0.00140
 993,-0.00063159,-0.16941242,0.07884570,-0.01852190,-0.00025221,0.00023
 660,-0.00003541,-0.04139780,0.00397372,-0.00519844,0.00000775,0.000024
 10,-0.00000149,0.00000752,0.00000889,-0.00000033,0.00004486,-0.0000068
 2,0.00001522,0.00001558,-0.00000936,-0.00000941,0.00001932,-0.00000897
 ,-0.00000619,-0.00001576,0.00001172,-0.00004892,0.00001299,-0.00000325
 ,-0.00000115,-0.00000505,-0.00000892,0.00000132,-0.00002616,0.00002315
 ,0.00001483,-0.00001818,0.00000451,-0.00006519,-0.00001033,-0.00002200
 ,-0.00000052,-0.00000755,-0.00039794,-0.00053531,-0.00003755,0.0000036
 5,0.00002759,0.00002224,-0.00002700,-0.00000159,0.00003566,-0.00004472
 ,0.00003578,0.00001225,-0.00001340,-0.00001060,0.00028968,-0.00019530,
 0.00008297,0.00003788,-0.00004841,0.00003944,0.00001629,-0.00002946,0.
 00002544,-0.00247357,0.01241682,-0.00159420,0.00006226,-0.00006446,0.0
 0002862,0.00001008,-0.00000108,0.00000997,0.00084702,-0.00019236,0.000
 22061,0.00011945,0.00008111,0.00000129,0.00002645,0.00002587,0.0000038
 3,0.00000733,0.00002933,0.00000291,-0.00000101,0.00002360,0.00000173,-
 0.00000232,0.00001897,0.00000387,-0.00001678,0.00000982,0.00000624,-0.
 00001736,-0.00000784,0.00000378,-0.00001917,-0.00000990,0.00000168,-0.
 00002030,-0.00001605,0.00000303,-0.00000728,-0.00002610,0.00000275,-0.
 00000133,-0.00006763,-0.00001191,-0.00033017,-0.00049207,0.00011655,0.
 21448240,-0.00002938,0.00001012,-0.00000008,-0.00000328,0.00001979,-0.
 00001030,-0.00005996,-0.00002273,-0.00001124,-0.00136930,-0.00104240,0
 .00026019,0.07883948,-0.07898737,0.01072093,-0.00024501,0.00016087,-0.
 00005315,-0.00989716,0.00693186,-0.00115616,-0.00001161,-0.00000916,-0
 .00000021,-0.00000172,-0.00000507,-0.00000170,-0.00001317,-0.00000457,
 -0.00002053,-0.00001147,-0.00000077,0.00000683,-0.00000897,0.00000904,
 0.00000358,0.00000599,-0.00000875,0.00004712,-0.00000325,0.00000925,0.
 00000066,0.00000168,0.00000749,0.00000111,0.00002305,0.00000036,-0.000
 00899,0.00001038,-0.00000642,0.00001906,0.00001373,0.00000896,0.000001
 37,-0.00043815,-0.00273576,0.00043095,0.00008628,-0.00013339,-0.000026
 34,0.00000820,0.00000605,0.00000300,-0.00004962,-0.00001546,-0.0000248
 9,-0.00001126,0.00000255,0.00000478,-0.00019536,0.00006506,-0.00004807
 ,-0.00004352,-0.00001775,-0.00001860,-0.00002323,0.00002402,-0.0000030
 2,0.02629477,-0.03196849,0.00511720,0.00041689,-0.00015322,0.00005673,
 0.00002035,0.00001593,0.00000316,0.00018299,-0.00072224,-0.00000791,0.
 00000166,0.00000637,0.00001478,-0.00000675,-0.00000743,-0.00000091,-0.
 00000020,-0.00001269,-0.00000177,0.00000051,-0.00001131,-0.00000090,0.
 00000079,-0.00001099,-0.00000211,0.00000982,-0.00000552,-0.00000361,0.
 00001033,0.00000406,-0.00000232,0.00001318,0.00000684,-0.00000107,0.00
 001348,0.00001494,-0.00000167,0.00000650,0.00002632,-0.00000290,0.0000
 1178,0.00012720,-0.00000850,-0.00086839,0.00045385,-0.00018902,-0.0927
 3122,0.10809302,0.00000203,-0.00000063,0.00001377,0.00000027,-0.000004
 28,-0.00000998,0.00003223,-0.00009869,-0.00033507,-0.00064914,0.000378
 44,0.00499122,-0.01847128,0.01068817,-0.04327292,-0.00009981,0.0000305
 9,-0.00013974,-0.00421717,0.00035349,0.00507208,0.00000820,-0.00000380
 ,-0.00000765,0.00000200,0.00000216,-0.00000253,-0.00001251,0.00000535,
 0.00000554,0.00000188,0.00000075,-0.00000276,0.00000345,-0.00000199,-0
 .00000256,0.00000387,0.00001435,0.00001597,0.00000141,-0.00000082,0.00
 000567,-0.00000089,-0.00000282,-0.00000252,-0.00001551,0.00000846,-0.0
 0034871,-0.00001054,-0.00001033,0.00001610,0.00000723,-0.00000521,-0.0
 0000765,-0.00064587,0.00038764,0.00499521,0.00010047,0.00002122,-0.000
 33566,0.00000142,-0.00000144,0.00001377,0.00002883,0.00004412,0.000009
 73,0.00000034,-0.00000197,-0.00000275,0.00017779,-0.00010349,-0.000085
 08,-0.00002355,-0.00004660,0.00000985,-0.00001065,0.00000809,0.0000055
 0,-0.00243746,0.00353125,0.00505833,-0.00007644,0.00007090,-0.00013978
 ,0.00000386,0.00000164,-0.00001000,0.00019685,-0.00004800,-0.00113162,
 -0.00000238,0.00000333,0.00013535,0.00000460,0.00000370,0.00000620,0.0
 0000021,0.00000440,0.00000354,-0.00000003,0.00000387,0.00000340,0.0000
 0027,0.00000314,0.00000231,-0.00000275,0.00000159,0.00000240,-0.000002
 59,-0.00000179,0.00000231,-0.00000338,-0.00000190,0.00000341,-0.000003
 72,-0.00000237,0.00000355,-0.00000092,-0.00000584,0.00000622,-0.000004
 00,0.00000045,0.00013531,0.00014000,-0.00014897,-0.00112967,0.02599568
 ,-0.01508916,0.02642709,0.00065753,-0.00116009,0.00057721,-0.00128607,
 0.00056091,-0.00011549,0.00057051,0.00130862,-0.00028777,0.00090352,0.
 00013646,0.00010549,-0.00018834,-0.00071799,-0.00001494,-0.00077719,-0
 .00033367,0.00000048,-0.00053959,0.00045415,-0.00010768,-0.00146802,0.
 00467237,0.00006293,-0.00186297,-0.00032043,-0.00061753,-0.00067594,-0
 .00494412,0.00212671,-0.02281221,-0.01845798,0.01158817,-0.00084946,-0
 .00001592,0.00030343,0.01282803,0.00252657,-0.00241891,-0.06989744,0.0
 4737397,0.05650272,0.00032982,0.00111876,-0.00128330,0.00156934,-0.002
 70187,0.00061386,-0.07868028,-0.04306748,-0.05392127,-0.01099393,0.000
 73547,0.00031750,0.00289188,0.00177422,0.00038361,-0.00269337,0.005866
 20,0.00099034,-0.00142380,-0.00177480,0.00116362,-0.00313689,0.0045183
 0,-0.00244312,0.00848670,0.02518793,0.00862486,-0.00480858,0.00036033,
 -0.00062518,-0.02498530,0.01370072,-0.01051472,0.01033702,-0.02923943,
 -0.00937914,-0.00143630,0.00149848,-0.00028487,0.00212954,-0.00275346,
 0.00030036,-0.00012495,-0.00336758,-0.00034450,-0.00001644,-0.00000908
 ,0.00003812,-0.00006422,-0.00004976,-0.00009207,-0.00022474,-0.0001045
 1,-0.00023647,0.00014682,-0.00021753,-0.00018926,-0.00018060,-0.000034
 74,0.00005641,0.00015921,0.00022320,0.00013600,-0.00018329,0.00007338,
 0.00024834,-0.00015629,-0.00022482,0.00006375,-0.00054362,-0.00019047,
 -0.00012573,-0.00001802,-0.00000555,-0.00004225,-0.00002141,-0.0000415
 7,-0.00000374,0.00000366,0.00020522,-0.00004227,0.00002020,0.00004433,
 0.00001947,-0.00005684,0.00001250,0.00000187,0.18905919,-0.00058326,-0
 .00310883,-0.00100534,-0.00403633,-0.00173715,0.00033787,0.00774238,0.
 00142514,-0.00131428,0.00062643,0.00398909,-0.00038809,-0.00071867,-0.
 00101383,0.00001038,-0.00442007,0.00036003,-0.00034413,0.00201840,-0.0
 0031659,0.00026536,0.00620644,-0.00790693,-0.00032283,-0.00013447,0.00
 078959,0.00112522,-0.03555352,-0.00924857,0.01208929,0.00724490,0.0123
 6047,-0.00335689,-0.00001414,-0.00086649,-0.00017516,0.00948486,-0.101
 87088,0.06085156,0.04735399,-0.01571564,-0.03281333,0.00093515,-0.0014
 0636,-0.00002053,-0.00270594,-0.00153861,-0.00035257,-0.05002102,-0.01
 044966,-0.02821641,-0.00079766,0.00163841,0.00010284,0.00127970,0.0019
 9988,0.00009661,-0.00056585,0.00469266,0.00089887,-0.00235578,-0.00102
 963,0.00000633,0.02624752,-0.01450782,0.01073129,-0.00049892,-0.018985
 70,-0.00835809,0.00035839,-0.00439536,0.00036647,-0.00803128,0.0073282
 2,-0.00322914,0.00137478,-0.02031828,-0.00782432,-0.00006087,0.0005826
 7,-0.00003929,0.00133558,-0.00254920,0.00017370,0.00122681,-0.00289915
 ,-0.00006496,0.00002327,0.00004031,-0.00000070,0.00016614,0.00009281,-
 0.00000447,-0.00015799,-0.00010505,-0.00013153,0.00008895,-0.00014596,
 -0.00006005,0.00001783,-0.00067211,0.00017793,-0.00004329,-0.00015767,
 0.00000541,0.00007307,-0.00009934,-0.00014411,0.00004195,0.00015807,-0
 .00012124,-0.00024273,-0.00030961,-0.00013635,-0.00031158,0.00001914,0
 .00019387,0.00001234,-0.00030763,0.00027054,-0.00001077,0.00002517,0.0
 0008207,0.00001187,0.00000370,-0.00003278,0.00001240,-0.00004246,-0.00
 000106,-0.00265410,0.18614648,0.00133297,0.00148165,0.00144586,0.00167
 312,0.00088042,-0.00015473,-0.00375285,-0.00116786,0.00168580,-0.00026
 555,-0.00123838,0.00021332,0.00001728,-0.00000794,-0.00001700,0.001426
 62,-0.00024325,-0.00008523,-0.00046419,0.00019730,-0.00008542,-0.00219
 700,0.00004563,-0.00147889,0.00122153,0.00137034,0.00137909,0.01743064
 ,0.00968150,-0.00526213,0.01781849,0.00873201,-0.00587346,0.00046154,-
 0.00026749,-0.00019192,-0.00570012,0.05985152,-0.04856372,0.05595273,-
 0.03250233,-0.05743961,-0.00057936,-0.00173936,0.00138265,0.00195867,-
 0.00112969,-0.00056693,-0.05464496,-0.02486202,-0.04845427,-0.00111866
 ,0.00188164,-0.00148070,0.00093533,0.00084206,0.00021078,-0.00084865,0
 .00382209,0.00167834,-0.00061576,-0.00188760,0.00144884,-0.01242908,0.
 01197803,-0.00416200,0.00128550,-0.01979706,-0.00583535,-0.00238865,0.
 00138848,-0.00058243,-0.01654521,0.00478836,-0.00413825,0.00025367,-0.
 01988914,-0.00520372,-0.00039988,0.00030056,-0.00008522,0.00091527,-0.
 00110907,-0.00008548,0.00006719,-0.00187953,-0.00015100,0.00002220,0.0
 0000281,0.00003212,-0.00009257,-0.00001825,0.00005080,-0.00004349,-0.0
 0001660,-0.00024813,-0.00008377,-0.00008841,-0.00002120,0.00000942,-0.
 00000544,-0.00001288,0.00010211,-0.00014623,-0.00002629,0.00001359,-0.
 00000802,-0.00022016,0.00017754,-0.00001564,-0.00002630,0.00001007,-0.
 00000489,-0.00001211,0.00003549,0.00011662,-0.00002131,-0.00000747,0.0
 0004592,-0.00024844,-0.00003015,0.00008921,0.00005057,0.00000863,-0.00
 002063,0.00003218,0.00000558,-0.00000319,0.00001483,-0.00101672,0.0006
 0361,0.18135088||0.00000285,-0.00000937,0.00001133,-0.00002581,0.00000
 675,0.00000897,-0.00000522,0.00002280,-0.00006505,-0.00000065,-0.00001
 818,0.00002348,-0.00000360,0.00004717,-0.00003004,0.00002054,-0.000012
 32,0.00006164,-0.00000086,-0.00002364,-0.00001960,-0.00003214,0.000005
 24,0.00002659,0.00000160,0.00002973,-0.00002931,0.00000630,-0.00000141
 ,-0.00001437,0.00003893,-0.00000596,-0.00000803,0.00002008,-0.00002513
 ,-0.00001041,-0.00000819,0.00001057,-0.00003715,0.00003762,-0.00001001
 ,-0.00003367,0.00000451,-0.00001447,0.00001622,0.00004815,-0.00002729,
 -0.00002945,0.00002240,0.00000954,0.00002500,-0.00002499,0.00004020,-0
 .00004247,0.00001355,0.00002305,-0.00000056,-0.00001120,-0.00004774,-0
 .00002659,0.00001030,0.00002915,0.00004589,-0.00001253,-0.00001207,0.0
 0004326,-0.00001320,0.00000633,0.00000395,-0.00003263,0.00003306,-0.00
 000157,-0.00004465,0.00001748,0.00002847,-0.00003099,-0.00002243,-0.00
 003124,0.00001547,-0.00001397,0.00002120,0.00003333,-0.00001558,0.0000
 0269,-0.00000743,0.00003782,-0.00001772,0.00000124,-0.00000943,-0.0000
 0330,-0.00001364,-0.00003280,0.00000317,-0.00000514,-0.00000313,0.0000
 0119,0.00000122,-0.00000987,-0.00000412,0.00000161,-0.00002774,0.00001
 882,0.00000136,-0.00001206,-0.00000299,0.00000848,-0.00000437,-0.00000
 090,0.00001028,-0.00000126,0.00001382,0.00001051,0.00000672,-0.0000022
 4,0.00000875,0.00000626,0.00000027,-0.00000255,-0.00000091,-0.00000316
 ,0.00000615,0.00002283,-0.00002178,0.00001007,0.00001549,0.00000654,-0
 .00000440,-0.00001863,0.00001159,-0.00005550,0.00000960,0.00006162|||@


 ABSOLUTISM, OBSOLETISM -- IF IT WORKS, IT'S OUT OF DATE

                          -- STAFFORD BEER
 Job cpu time:       0 days  0 hours  0 minutes 11.0 seconds.
 File lengths (MBytes):  RWF=    735 Int=      0 D2E=      0 Chk=      5 Scr=      1
 Normal termination of Gaussian 09 at Sun Mar 15 21:15:57 2026.
