 Entering Link 1 = C:\Gaussian\G09W\l1.exe PID=      1488.
  
 Copyright (c) 1988,1990,1992,1993,1995,1998,2003,2009,2013,
            Gaussian, Inc.  All Rights Reserved.
  
 This is part of the Gaussian(R) 09 program.  It is based on
 the Gaussian(R) 03 system (copyright 2003, Gaussian, Inc.),
 the Gaussian(R) 98 system (copyright 1998, Gaussian, Inc.),
 the Gaussian(R) 94 system (copyright 1995, Gaussian, Inc.),
 the Gaussian 92(TM) system (copyright 1992, Gaussian, Inc.),
 the Gaussian 90(TM) system (copyright 1990, Gaussian, Inc.),
 the Gaussian 88(TM) system (copyright 1988, Gaussian, Inc.),
 the Gaussian 86(TM) system (copyright 1986, Carnegie Mellon
 University), and the Gaussian 82(TM) system (copyright 1983,
 Carnegie Mellon University). Gaussian is a federally registered
 trademark of Gaussian, Inc.
  
 This software contains proprietary and confidential information,
 including trade secrets, belonging to Gaussian, Inc.
  
 This software is provided under written license and may be
 used, copied, transmitted, or stored only in accord with that
 written license.
  
 The following legend is applicable only to US Government
 contracts under FAR:
  
                    RESTRICTED RIGHTS LEGEND
  
 Use, reproduction and disclosure by the US Government is
 subject to restrictions as set forth in subparagraphs (a)
 and (c) of the Commercial Computer Software - Restricted
 Rights clause in FAR 52.227-19.
  
 Gaussian, Inc.
 340 Quinnipiac St., Bldg. 40, Wallingford CT 06492
  
  
 ---------------------------------------------------------------
 Warning -- This program may not be used in any manner that
 competes with the business of Gaussian, Inc. or will provide
 assistance to any competitor of Gaussian, Inc.  The licensee
 of this program is prohibited from giving any competitor of
 Gaussian, Inc. access to this program.  By using this program,
 the user acknowledges that Gaussian, Inc. is engaged in the
 business of creating and licensing software in the field of
 computational chemistry and represents and warrants to the
 licensee that it is not a competitor of Gaussian, Inc. and that
 it will not use this program in any manner prohibited above.
 ---------------------------------------------------------------
  

 Cite this work as:
 Gaussian 09, Revision D.01,
 M. J. Frisch, G. W. Trucks, H. B. Schlegel, G. E. Scuseria, 
 M. A. Robb, J. R. Cheeseman, G. Scalmani, V. Barone, B. Mennucci, 
 G. A. Petersson, H. Nakatsuji, M. Caricato, X. Li, H. P. Hratchian, 
 A. F. Izmaylov, J. Bloino, G. Zheng, J. L. Sonnenberg, M. Hada, 
 M. Ehara, K. Toyota, R. Fukuda, J. Hasegawa, M. Ishida, T. Nakajima, 
 Y. Honda, O. Kitao, H. Nakai, T. Vreven, J. A. Montgomery, Jr., 
 J. E. Peralta, F. Ogliaro, M. Bearpark, J. J. Heyd, E. Brothers, 
 K. N. Kudin, V. N. Staroverov, T. Keith, R. Kobayashi, J. Normand, 
 K. Raghavachari, A. Rendell, J. C. Burant, S. S. Iyengar, J. Tomasi, 
 M. Cossi, N. Rega, J. M. Millam, M. Klene, J. E. Knox, J. B. Cross, 
 V. Bakken, C. Adamo, J. Jaramillo, R. Gomperts, R. E. Stratmann, 
 O. Yazyev, A. J. Austin, R. Cammi, C. Pomelli, J. W. Ochterski, 
 R. L. Martin, K. Morokuma, V. G. Zakrzewski, G. A. Voth, 
 P. Salvador, J. J. Dannenberg, S. Dapprich, A. D. Daniels, 
 O. Farkas, J. B. Foresman, J. V. Ortiz, J. Cioslowski, 
 and D. J. Fox, Gaussian, Inc., Wallingford CT, 2013.
 
 ******************************************
 Gaussian 09:  IA32W-G09RevD.01 24-Apr-2013
                12-Mar-2026 
 ******************************************
 %chk=C:\Users\User\Desktop\IMRG\ECE+ML\Rh_Gr_NS_CO.chk
 ---------------------------------------
 # opt freq pm6 scf=qc geom=connectivity
 ---------------------------------------
 1/14=-1,18=20,19=15,26=1,38=1,57=2/1,3;
 2/9=110,12=2,17=6,18=5,40=1/2;
 3/5=2,16=1,25=1,41=3900000,71=1/1,2,3;
 4/35=1/1;
 5/5=2,8=3,35=1,38=5/8;
 6/7=2,8=2,9=2,10=2,28=1/1;
 7//1,2,3,16;
 1/14=-1,18=20,19=15,26=1/3(2);
 2/9=110/2;
 99//99;
 2/9=110/2;
 3/5=2,16=1,25=1,41=3900000,71=1,135=20/1,2,3;
 4/5=5,16=3,35=1/1;
 5/5=2,8=3,35=1,38=5/8;
 7//1,2,3,16;
 1/14=-1,18=20,19=15,26=1/3(-5);
 2/9=110/2;
 6/7=2,8=2,9=2,10=2,19=2,28=1/1;
 99/9=1/99;
 -----------
 Rh_Gr_NS_CO
 -----------
 Symbolic Z-matrix:
 Charge =  0 Multiplicity = 2
 C                    -1.48734   1.25527   0. 
 C                    -0.11458   1.26757   0.00021 
 C                     0.63784   2.49562   0.00024 
 C                     2.76155   3.73782  -0.0001 
 C                     4.87637   4.98541  -0.00058 
 C                     2.0603    2.51615  -0.00001 
 C                     4.19236   3.77104  -0.00038 
 C                    -3.68033   2.52318  -0.00036 
 C                    -5.85442   3.76459  -0.00032 
 C                    -2.22717   2.49171  -0.00016 
 C                    -4.4314    3.73294  -0.00038 
 C                    -6.52317   4.98925  -0.00022 
 C                    -1.49723   3.66543   0.00004 
 C                    -3.77063   4.98776  -0.00006 
 C                    -5.83173   6.21539  -0.00016 
 C                     0.61876   4.98443   0.00024 
 C                    -1.48853   6.30241   0.00019 
 C                    -3.64606   7.47395  -0.00004 
 C                     2.76334   6.23383  -0.00007 
 C                     0.64426   7.4887    0.0001 
 C                    -1.48605   8.7395   -0.00011 
 C                    -0.07268   3.72258   0.00025 
 C                    -4.42338   6.2256   -0.00018 
 C                     2.03942   4.98572   0.00009 
 C                    -0.08682   6.24592   0.00026 
 C                    -2.24783   7.50962   0.00012 
 C                     4.18329   6.20584  -0.00024 
 C                     2.05117   7.46407  -0.0001 
 C                    -0.10808   8.71832  -0.00011 
 H                     4.73683   7.14171  -0.00013 
 H                     2.60821   8.39816  -0.00027 
 H                     0.45062   9.65387  -0.00038 
 H                    -2.02415   9.68484  -0.0001 
 H                    -4.21082   8.4023   -0.00019 
 H                    -6.39162   7.1481   -0.0001 
 H                    -7.61353   5.00188  -0.00006 
 H                    -6.41745   2.83421  -0.00027 
 H                    -4.20834   1.57407  -0.00036 
 H                    -2.035     0.31468   0.00008 
 H                     0.44259   0.33017   0.00001 
 H                     2.60785   1.57708  -0.00018 
 H                     4.74181   2.8329   -0.00058 
 H                     5.96597   4.99136  -0.0008 
 Rh                   -2.25175   4.98582   0.00002 
 C                    -0.90886   5.09837   0.01542 
 O                    -0.90886   5.09837   1.15505 
 
 Add virtual bond connecting atoms C45        and C17        Dist= 2.53D+00.
 Add virtual bond connecting atoms C45        and C25        Dist= 2.67D+00.
 Add virtual bond connecting atoms C45        and Rh44       Dist= 2.55D+00.

 GradGradGradGradGradGradGradGradGradGradGradGradGradGradGradGradGradGrad
 Berny optimization.
 Initialization pass.
                           ----------------------------
                           !    Initial Parameters    !
                           ! (Angstroms and Degrees)  !
 --------------------------                            --------------------------
 ! Name  Definition              Value          Derivative Info.                !
 --------------------------------------------------------------------------------
 ! R1    R(1,2)                  1.3728         estimate D2E/DX2                !
 ! R2    R(1,10)                 1.4409         estimate D2E/DX2                !
 ! R3    R(1,39)                 1.0884         estimate D2E/DX2                !
 ! R4    R(2,3)                  1.4402         estimate D2E/DX2                !
 ! R5    R(2,40)                 1.0905         estimate D2E/DX2                !
 ! R6    R(3,6)                  1.4226         estimate D2E/DX2                !
 ! R7    R(3,22)                 1.4178         estimate D2E/DX2                !
 ! R8    R(4,6)                  1.4086         estimate D2E/DX2                !
 ! R9    R(4,7)                  1.4312         estimate D2E/DX2                !
 ! R10   R(4,24)                 1.4418         estimate D2E/DX2                !
 ! R11   R(5,7)                  1.3938         estimate D2E/DX2                !
 ! R12   R(5,27)                 1.4035         estimate D2E/DX2                !
 ! R13   R(5,43)                 1.0896         estimate D2E/DX2                !
 ! R14   R(6,41)                 1.087          estimate D2E/DX2                !
 ! R15   R(7,42)                 1.0872         estimate D2E/DX2                !
 ! R16   R(8,10)                 1.4535         estimate D2E/DX2                !
 ! R17   R(8,11)                 1.4239         estimate D2E/DX2                !
 ! R18   R(8,38)                 1.0861         estimate D2E/DX2                !
 ! R19   R(9,11)                 1.4234         estimate D2E/DX2                !
 ! R20   R(9,12)                 1.3954         estimate D2E/DX2                !
 ! R21   R(9,37)                 1.0875         estimate D2E/DX2                !
 ! R22   R(10,13)                1.3822         estimate D2E/DX2                !
 ! R23   R(11,14)                1.4182         estimate D2E/DX2                !
 ! R24   R(12,15)                1.4077         estimate D2E/DX2                !
 ! R25   R(12,36)                1.0904         estimate D2E/DX2                !
 ! R26   R(13,22)                1.4257         estimate D2E/DX2                !
 ! R27   R(13,44)                1.5208         estimate D2E/DX2                !
 ! R28   R(14,23)                1.3994         estimate D2E/DX2                !
 ! R29   R(14,44)                1.5189         estimate D2E/DX2                !
 ! R30   R(15,23)                1.4084         estimate D2E/DX2                !
 ! R31   R(15,35)                1.0879         estimate D2E/DX2                !
 ! R32   R(16,22)                1.4389         estimate D2E/DX2                !
 ! R33   R(16,24)                1.4207         estimate D2E/DX2                !
 ! R34   R(16,25)                1.4454         estimate D2E/DX2                !
 ! R35   R(17,25)                1.4028         estimate D2E/DX2                !
 ! R36   R(17,26)                1.4261         estimate D2E/DX2                !
 ! R37   R(17,44)                1.5218         estimate D2E/DX2                !
 ! R38   R(17,45)                1.3364         estimate D2E/DX2                !
 ! R39   R(18,23)                1.4706         estimate D2E/DX2                !
 ! R40   R(18,26)                1.3987         estimate D2E/DX2                !
 ! R41   R(18,34)                1.0866         estimate D2E/DX2                !
 ! R42   R(19,24)                1.4429         estimate D2E/DX2                !
 ! R43   R(19,27)                1.4202         estimate D2E/DX2                !
 ! R44   R(19,28)                1.4215         estimate D2E/DX2                !
 ! R45   R(20,25)                1.4419         estimate D2E/DX2                !
 ! R46   R(20,28)                1.4071         estimate D2E/DX2                !
 ! R47   R(20,29)                1.4415         estimate D2E/DX2                !
 ! R48   R(21,26)                1.4467         estimate D2E/DX2                !
 ! R49   R(21,29)                1.3781         estimate D2E/DX2                !
 ! R50   R(21,33)                1.0878         estimate D2E/DX2                !
 ! R51   R(25,45)                1.4117         estimate D2E/DX2                !
 ! R52   R(27,30)                1.0873         estimate D2E/DX2                !
 ! R53   R(28,31)                1.0876         estimate D2E/DX2                !
 ! R54   R(29,32)                1.0897         estimate D2E/DX2                !
 ! R55   R(44,45)                1.3477         estimate D2E/DX2                !
 ! R56   R(45,46)                1.1396         estimate D2E/DX2                !
 ! A1    A(2,1,10)             120.3811         estimate D2E/DX2                !
 ! A2    A(2,1,39)             120.7234         estimate D2E/DX2                !
 ! A3    A(10,1,39)            118.8954         estimate D2E/DX2                !
 ! A4    A(1,2,3)              122.0091         estimate D2E/DX2                !
 ! A5    A(1,2,40)             120.2126         estimate D2E/DX2                !
 ! A6    A(3,2,40)             117.7783         estimate D2E/DX2                !
 ! A7    A(2,3,6)              122.323          estimate D2E/DX2                !
 ! A8    A(2,3,22)             118.4295         estimate D2E/DX2                !
 ! A9    A(6,3,22)             119.2474         estimate D2E/DX2                !
 ! A10   A(6,4,7)              121.1867         estimate D2E/DX2                !
 ! A11   A(6,4,24)             120.0864         estimate D2E/DX2                !
 ! A12   A(7,4,24)             118.7269         estimate D2E/DX2                !
 ! A13   A(7,5,27)             121.017          estimate D2E/DX2                !
 ! A14   A(7,5,43)             119.7036         estimate D2E/DX2                !
 ! A15   A(27,5,43)            119.2794         estimate D2E/DX2                !
 ! A16   A(3,6,4)              120.6839         estimate D2E/DX2                !
 ! A17   A(3,6,41)             119.4183         estimate D2E/DX2                !
 ! A18   A(4,6,41)             119.8978         estimate D2E/DX2                !
 ! A19   A(4,7,5)              120.7208         estimate D2E/DX2                !
 ! A20   A(4,7,42)             119.0266         estimate D2E/DX2                !
 ! A21   A(5,7,42)             120.2526         estimate D2E/DX2                !
 ! A22   A(10,8,11)            123.0746         estimate D2E/DX2                !
 ! A23   A(10,8,38)            117.8469         estimate D2E/DX2                !
 ! A24   A(11,8,38)            119.0785         estimate D2E/DX2                !
 ! A25   A(11,9,12)            119.9113         estimate D2E/DX2                !
 ! A26   A(11,9,37)            119.9067         estimate D2E/DX2                !
 ! A27   A(12,9,37)            120.182          estimate D2E/DX2                !
 ! A28   A(1,10,8)             122.1353         estimate D2E/DX2                !
 ! A29   A(1,10,13)            117.2279         estimate D2E/DX2                !
 ! A30   A(8,10,13)            120.6368         estimate D2E/DX2                !
 ! A31   A(8,11,9)             123.1078         estimate D2E/DX2                !
 ! A32   A(8,11,14)            120.3955         estimate D2E/DX2                !
 ! A33   A(9,11,14)            116.4967         estimate D2E/DX2                !
 ! A34   A(9,12,15)            121.9432         estimate D2E/DX2                !
 ! A35   A(9,12,36)            119.3009         estimate D2E/DX2                !
 ! A36   A(15,12,36)           118.7559         estimate D2E/DX2                !
 ! A37   A(10,13,22)           124.1752         estimate D2E/DX2                !
 ! A38   A(10,13,44)           118.3771         estimate D2E/DX2                !
 ! A39   A(22,13,44)           117.4477         estimate D2E/DX2                !
 ! A40   A(11,14,23)           124.4256         estimate D2E/DX2                !
 ! A41   A(11,14,44)           117.6975         estimate D2E/DX2                !
 ! A42   A(23,14,44)           117.8769         estimate D2E/DX2                !
 ! A43   A(12,15,23)           119.8349         estimate D2E/DX2                !
 ! A44   A(12,15,35)           119.6049         estimate D2E/DX2                !
 ! A45   A(23,15,35)           120.5602         estimate D2E/DX2                !
 ! A46   A(22,16,24)           118.7733         estimate D2E/DX2                !
 ! A47   A(22,16,25)           122.0594         estimate D2E/DX2                !
 ! A48   A(24,16,25)           119.1674         estimate D2E/DX2                !
 ! A49   A(25,17,26)           124.4765         estimate D2E/DX2                !
 ! A50   A(25,17,44)           117.7927         estimate D2E/DX2                !
 ! A51   A(26,17,44)           117.7308         estimate D2E/DX2                !
 ! A52   A(23,18,26)           123.3713         estimate D2E/DX2                !
 ! A53   A(23,18,34)           116.7761         estimate D2E/DX2                !
 ! A54   A(26,18,34)           119.8525         estimate D2E/DX2                !
 ! A55   A(24,19,27)           118.9848         estimate D2E/DX2                !
 ! A56   A(24,19,28)           119.8195         estimate D2E/DX2                !
 ! A57   A(27,19,28)           121.1957         estimate D2E/DX2                !
 ! A58   A(25,20,28)           119.4641         estimate D2E/DX2                !
 ! A59   A(25,20,29)           118.073          estimate D2E/DX2                !
 ! A60   A(28,20,29)           122.4629         estimate D2E/DX2                !
 ! A61   A(26,21,29)           120.8936         estimate D2E/DX2                !
 ! A62   A(26,21,33)           118.5771         estimate D2E/DX2                !
 ! A63   A(29,21,33)           120.5293         estimate D2E/DX2                !
 ! A64   A(3,22,13)            117.777          estimate D2E/DX2                !
 ! A65   A(3,22,16)            121.2041         estimate D2E/DX2                !
 ! A66   A(13,22,16)           121.0189         estimate D2E/DX2                !
 ! A67   A(14,23,15)           117.3883         estimate D2E/DX2                !
 ! A68   A(14,23,18)           120.2865         estimate D2E/DX2                !
 ! A69   A(15,23,18)           122.3252         estimate D2E/DX2                !
 ! A70   A(4,24,16)            120.005          estimate D2E/DX2                !
 ! A71   A(4,24,19)            119.8289         estimate D2E/DX2                !
 ! A72   A(16,24,19)           120.1662         estimate D2E/DX2                !
 ! A73   A(16,25,17)           121.5273         estimate D2E/DX2                !
 ! A74   A(16,25,20)           120.3138         estimate D2E/DX2                !
 ! A75   A(16,25,45)            64.8366         estimate D2E/DX2                !
 ! A76   A(17,25,20)           118.159          estimate D2E/DX2                !
 ! A77   A(17,26,18)           120.707          estimate D2E/DX2                !
 ! A78   A(17,26,21)           116.0575         estimate D2E/DX2                !
 ! A79   A(18,26,21)           123.2355         estimate D2E/DX2                !
 ! A80   A(5,27,19)            120.7216         estimate D2E/DX2                !
 ! A81   A(5,27,30)            119.8045         estimate D2E/DX2                !
 ! A82   A(19,27,30)           119.4739         estimate D2E/DX2                !
 ! A83   A(19,28,20)           121.0692         estimate D2E/DX2                !
 ! A84   A(19,28,31)           119.1239         estimate D2E/DX2                !
 ! A85   A(20,28,31)           119.8069         estimate D2E/DX2                !
 ! A86   A(20,29,21)           122.3405         estimate D2E/DX2                !
 ! A87   A(20,29,32)           117.6945         estimate D2E/DX2                !
 ! A88   A(21,29,32)           119.965          estimate D2E/DX2                !
 ! A89   A(13,44,14)           119.8184         estimate D2E/DX2                !
 ! A90   A(13,44,17)           120.1541         estimate D2E/DX2                !
 ! A91   A(13,44,45)            65.0473         estimate D2E/DX2                !
 ! A92   A(14,44,17)           120.0275         estimate D2E/DX2                !
 ! A93   A(17,45,46)            90.6531         estimate D2E/DX2                !
 ! A94   A(25,45,44)           130.3913         estimate D2E/DX2                !
 ! A95   A(25,45,46)            90.6153         estimate D2E/DX2                !
 ! A96   A(44,45,46)            90.6549         estimate D2E/DX2                !
 ! A97   L(26,17,45,9,-1)      173.5396         estimate D2E/DX2                !
 ! A98   L(20,25,45,16,-1)     185.1504         estimate D2E/DX2                !
 ! A99   L(14,44,45,13,-1)     184.8657         estimate D2E/DX2                !
 ! A100  L(26,17,45,9,-2)      180.6532         estimate D2E/DX2                !
 ! A101  L(20,25,45,16,-2)     179.3279         estimate D2E/DX2                !
 ! A102  L(14,44,45,13,-2)     180.7189         estimate D2E/DX2                !
 ! D1    D(10,1,2,3)            -0.0025         estimate D2E/DX2                !
 ! D2    D(10,1,2,40)         -179.9806         estimate D2E/DX2                !
 ! D3    D(39,1,2,3)          -179.9941         estimate D2E/DX2                !
 ! D4    D(39,1,2,40)            0.0278         estimate D2E/DX2                !
 ! D5    D(2,1,10,8)          -179.9988         estimate D2E/DX2                !
 ! D6    D(2,1,10,13)           -0.0059         estimate D2E/DX2                !
 ! D7    D(39,1,10,8)           -0.0071         estimate D2E/DX2                !
 ! D8    D(39,1,10,13)         179.9859         estimate D2E/DX2                !
 ! D9    D(1,2,3,6)           -179.9775         estimate D2E/DX2                !
 ! D10   D(1,2,3,22)             0.0102         estimate D2E/DX2                !
 ! D11   D(40,2,3,6)             0.0012         estimate D2E/DX2                !
 ! D12   D(40,2,3,22)          179.9889         estimate D2E/DX2                !
 ! D13   D(2,3,6,4)            179.9947         estimate D2E/DX2                !
 ! D14   D(2,3,6,41)            -0.0032         estimate D2E/DX2                !
 ! D15   D(22,3,6,4)             0.0071         estimate D2E/DX2                !
 ! D16   D(22,3,6,41)         -179.9908         estimate D2E/DX2                !
 ! D17   D(2,3,22,13)           -0.0093         estimate D2E/DX2                !
 ! D18   D(2,3,22,16)         -179.9984         estimate D2E/DX2                !
 ! D19   D(6,3,22,13)          179.9788         estimate D2E/DX2                !
 ! D20   D(6,3,22,16)           -0.0104         estimate D2E/DX2                !
 ! D21   D(7,4,6,3)           -179.9983         estimate D2E/DX2                !
 ! D22   D(7,4,6,41)            -0.0004         estimate D2E/DX2                !
 ! D23   D(24,4,6,3)             0.0005         estimate D2E/DX2                !
 ! D24   D(24,4,6,41)          179.9984         estimate D2E/DX2                !
 ! D25   D(6,4,7,5)            179.9946         estimate D2E/DX2                !
 ! D26   D(6,4,7,42)             0.0023         estimate D2E/DX2                !
 ! D27   D(24,4,7,5)            -0.0043         estimate D2E/DX2                !
 ! D28   D(24,4,7,42)         -179.9966         estimate D2E/DX2                !
 ! D29   D(6,4,24,16)           -0.0051         estimate D2E/DX2                !
 ! D30   D(6,4,24,19)         -179.9968         estimate D2E/DX2                !
 ! D31   D(7,4,24,16)          179.9938         estimate D2E/DX2                !
 ! D32   D(7,4,24,19)            0.0021         estimate D2E/DX2                !
 ! D33   D(27,5,7,4)             0.0119         estimate D2E/DX2                !
 ! D34   D(27,5,7,42)         -179.9959         estimate D2E/DX2                !
 ! D35   D(43,5,7,4)          -179.9999         estimate D2E/DX2                !
 ! D36   D(43,5,7,42)           -0.0077         estimate D2E/DX2                !
 ! D37   D(7,5,27,19)           -0.0173         estimate D2E/DX2                !
 ! D38   D(7,5,27,30)          179.9838         estimate D2E/DX2                !
 ! D39   D(43,5,27,19)         179.9944         estimate D2E/DX2                !
 ! D40   D(43,5,27,30)          -0.0044         estimate D2E/DX2                !
 ! D41   D(11,8,10,1)          179.9932         estimate D2E/DX2                !
 ! D42   D(11,8,10,13)           0.0005         estimate D2E/DX2                !
 ! D43   D(38,8,10,1)            0.002          estimate D2E/DX2                !
 ! D44   D(38,8,10,13)        -179.9907         estimate D2E/DX2                !
 ! D45   D(10,8,11,9)         -179.9875         estimate D2E/DX2                !
 ! D46   D(10,8,11,14)          -0.0059         estimate D2E/DX2                !
 ! D47   D(38,8,11,9)            0.0036         estimate D2E/DX2                !
 ! D48   D(38,8,11,14)         179.9852         estimate D2E/DX2                !
 ! D49   D(12,9,11,8)          179.9943         estimate D2E/DX2                !
 ! D50   D(12,9,11,14)           0.012          estimate D2E/DX2                !
 ! D51   D(37,9,11,8)           -0.0011         estimate D2E/DX2                !
 ! D52   D(37,9,11,14)        -179.9834         estimate D2E/DX2                !
 ! D53   D(11,9,12,15)          -0.0008         estimate D2E/DX2                !
 ! D54   D(11,9,12,36)        -179.9935         estimate D2E/DX2                !
 ! D55   D(37,9,12,15)         179.9946         estimate D2E/DX2                !
 ! D56   D(37,9,12,36)           0.0019         estimate D2E/DX2                !
 ! D57   D(1,10,13,22)           0.0067         estimate D2E/DX2                !
 ! D58   D(1,10,13,44)        -179.9942         estimate D2E/DX2                !
 ! D59   D(8,10,13,22)         179.9997         estimate D2E/DX2                !
 ! D60   D(8,10,13,44)          -0.0012         estimate D2E/DX2                !
 ! D61   D(8,11,14,23)         179.9937         estimate D2E/DX2                !
 ! D62   D(8,11,14,44)           0.0113         estimate D2E/DX2                !
 ! D63   D(9,11,14,23)          -0.0235         estimate D2E/DX2                !
 ! D64   D(9,11,14,44)         179.9941         estimate D2E/DX2                !
 ! D65   D(9,12,15,23)          -0.0008         estimate D2E/DX2                !
 ! D66   D(9,12,15,35)         179.9989         estimate D2E/DX2                !
 ! D67   D(36,12,15,23)        179.9919         estimate D2E/DX2                !
 ! D68   D(36,12,15,35)         -0.0083         estimate D2E/DX2                !
 ! D69   D(10,13,22,3)           0.001          estimate D2E/DX2                !
 ! D70   D(10,13,22,16)        179.9902         estimate D2E/DX2                !
 ! D71   D(44,13,22,3)        -179.9981         estimate D2E/DX2                !
 ! D72   D(44,13,22,16)         -0.0089         estimate D2E/DX2                !
 ! D73   D(10,13,44,14)          0.0069         estimate D2E/DX2                !
 ! D74   D(10,13,44,17)       -179.9981         estimate D2E/DX2                !
 ! D75   D(10,13,44,45)        179.288          estimate D2E/DX2                !
 ! D76   D(22,13,44,14)       -179.9939         estimate D2E/DX2                !
 ! D77   D(22,13,44,17)          0.001          estimate D2E/DX2                !
 ! D78   D(22,13,44,45)         -0.7128         estimate D2E/DX2                !
 ! D79   D(11,14,23,15)          0.0221         estimate D2E/DX2                !
 ! D80   D(11,14,23,18)       -179.9904         estimate D2E/DX2                !
 ! D81   D(44,14,23,15)       -179.9955         estimate D2E/DX2                !
 ! D82   D(44,14,23,18)         -0.008          estimate D2E/DX2                !
 ! D83   D(11,14,44,13)         -0.012          estimate D2E/DX2                !
 ! D84   D(11,14,44,17)        179.993          estimate D2E/DX2                !
 ! D85   D(23,14,44,13)       -179.9956         estimate D2E/DX2                !
 ! D86   D(23,14,44,17)          0.0095         estimate D2E/DX2                !
 ! D87   D(11,14,45,25)        179.1447         estimate D2E/DX2                !
 ! D88   D(11,14,45,46)        -89.8358         estimate D2E/DX2                !
 ! D89   D(23,14,45,25)         -1.1625         estimate D2E/DX2                !
 ! D90   D(23,14,45,46)         89.8569         estimate D2E/DX2                !
 ! D91   D(12,15,23,14)         -0.0092         estimate D2E/DX2                !
 ! D92   D(12,15,23,18)       -179.9964         estimate D2E/DX2                !
 ! D93   D(35,15,23,14)        179.991          estimate D2E/DX2                !
 ! D94   D(35,15,23,18)          0.0039         estimate D2E/DX2                !
 ! D95   D(24,16,22,3)           0.0059         estimate D2E/DX2                !
 ! D96   D(24,16,22,13)       -179.9829         estimate D2E/DX2                !
 ! D97   D(25,16,22,3)        -179.9999         estimate D2E/DX2                !
 ! D98   D(25,16,22,13)          0.0113         estimate D2E/DX2                !
 ! D99   D(22,16,24,4)           0.0019         estimate D2E/DX2                !
 ! D100  D(22,16,24,19)        179.9936         estimate D2E/DX2                !
 ! D101  D(25,16,24,4)        -179.9925         estimate D2E/DX2                !
 ! D102  D(25,16,24,19)         -0.0008         estimate D2E/DX2                !
 ! D103  D(22,16,25,17)         -0.005          estimate D2E/DX2                !
 ! D104  D(22,16,25,20)       -179.9929         estimate D2E/DX2                !
 ! D105  D(22,16,25,45)          0.6792         estimate D2E/DX2                !
 ! D106  D(24,16,25,17)        179.9893         estimate D2E/DX2                !
 ! D107  D(24,16,25,20)          0.0013         estimate D2E/DX2                !
 ! D108  D(24,16,25,45)       -179.3266         estimate D2E/DX2                !
 ! D109  D(26,17,25,16)       -179.9962         estimate D2E/DX2                !
 ! D110  D(26,17,25,20)         -0.008          estimate D2E/DX2                !
 ! D111  D(44,17,25,16)         -0.003          estimate D2E/DX2                !
 ! D112  D(44,17,25,20)        179.9852         estimate D2E/DX2                !
 ! D113  D(25,17,26,18)        179.9954         estimate D2E/DX2                !
 ! D114  D(25,17,26,21)          0.0108         estimate D2E/DX2                !
 ! D115  D(44,17,26,18)          0.0021         estimate D2E/DX2                !
 ! D116  D(44,17,26,21)       -179.9825         estimate D2E/DX2                !
 ! D117  D(28,20,45,44)       -179.1155         estimate D2E/DX2                !
 ! D118  D(28,20,45,46)         89.8167         estimate D2E/DX2                !
 ! D119  D(29,20,45,44)          1.2057         estimate D2E/DX2                !
 ! D120  D(29,20,45,46)        -89.8621         estimate D2E/DX2                !
 ! D121  D(18,26,45,46)        -89.8418         estimate D2E/DX2                !
 ! D122  D(21,26,45,46)         89.833          estimate D2E/DX2                !
 ! D123  D(25,17,44,13)          0.0049         estimate D2E/DX2                !
 ! D124  D(25,17,44,14)        179.9998         estimate D2E/DX2                !
 ! D125  D(26,17,44,13)        179.9986         estimate D2E/DX2                !
 ! D126  D(26,17,44,14)         -0.0065         estimate D2E/DX2                !
 ! D127  D(26,18,23,14)          0.0039         estimate D2E/DX2                !
 ! D128  D(26,18,23,15)        179.9907         estimate D2E/DX2                !
 ! D129  D(34,18,23,14)        179.9976         estimate D2E/DX2                !
 ! D130  D(34,18,23,15)         -0.0156         estimate D2E/DX2                !
 ! D131  D(23,18,26,17)         -0.0007         estimate D2E/DX2                !
 ! D132  D(23,18,26,21)        179.9827         estimate D2E/DX2                !
 ! D133  D(34,18,26,17)       -179.9942         estimate D2E/DX2                !
 ! D134  D(34,18,26,21)         -0.0107         estimate D2E/DX2                !
 ! D135  D(27,19,24,4)          -0.0072         estimate D2E/DX2                !
 ! D136  D(27,19,24,16)       -179.999          estimate D2E/DX2                !
 ! D137  D(28,19,24,4)         179.9902         estimate D2E/DX2                !
 ! D138  D(28,19,24,16)         -0.0015         estimate D2E/DX2                !
 ! D139  D(24,19,27,5)           0.0148         estimate D2E/DX2                !
 ! D140  D(24,19,27,30)       -179.9864         estimate D2E/DX2                !
 ! D141  D(28,19,27,5)        -179.9826         estimate D2E/DX2                !
 ! D142  D(28,19,27,30)          0.0163         estimate D2E/DX2                !
 ! D143  D(24,19,28,20)          0.0035         estimate D2E/DX2                !
 ! D144  D(24,19,28,31)       -179.9967         estimate D2E/DX2                !
 ! D145  D(27,19,28,20)       -179.9991         estimate D2E/DX2                !
 ! D146  D(27,19,28,31)          0.0007         estimate D2E/DX2                !
 ! D147  D(28,20,25,16)          0.0006         estimate D2E/DX2                !
 ! D148  D(28,20,25,17)       -179.9877         estimate D2E/DX2                !
 ! D149  D(29,20,25,16)        179.9894         estimate D2E/DX2                !
 ! D150  D(29,20,25,17)          0.0011         estimate D2E/DX2                !
 ! D151  D(25,20,28,19)         -0.003          estimate D2E/DX2                !
 ! D152  D(25,20,28,31)        179.9972         estimate D2E/DX2                !
 ! D153  D(29,20,28,19)       -179.9913         estimate D2E/DX2                !
 ! D154  D(29,20,28,31)          0.0089         estimate D2E/DX2                !
 ! D155  D(25,20,29,21)          0.0025         estimate D2E/DX2                !
 ! D156  D(25,20,29,32)       -179.9913         estimate D2E/DX2                !
 ! D157  D(28,20,29,21)        179.991          estimate D2E/DX2                !
 ! D158  D(28,20,29,32)         -0.0029         estimate D2E/DX2                !
 ! D159  D(29,21,26,17)         -0.0068         estimate D2E/DX2                !
 ! D160  D(29,21,26,18)       -179.9909         estimate D2E/DX2                !
 ! D161  D(33,21,26,17)       -179.9966         estimate D2E/DX2                !
 ! D162  D(33,21,26,18)          0.0193         estimate D2E/DX2                !
 ! D163  D(26,21,29,20)          0.0005         estimate D2E/DX2                !
 ! D164  D(26,21,29,32)        179.9942         estimate D2E/DX2                !
 ! D165  D(33,21,29,20)        179.9901         estimate D2E/DX2                !
 ! D166  D(33,21,29,32)         -0.0162         estimate D2E/DX2                !
 ! D167  D(16,25,45,44)       -178.3266         estimate D2E/DX2                !
 ! D168  D(16,25,45,46)         90.2899         estimate D2E/DX2                !
 ! D169  D(13,44,45,25)        178.3311         estimate D2E/DX2                !
 ! D170  D(13,44,45,46)        -90.3037         estimate D2E/DX2                !
 --------------------------------------------------------------------------------
 Trust Radius=3.00D-01 FncErr=1.00D-07 GrdErr=1.00D-07
 Number of steps in this run=    276 maximum allowed number of steps=    276.
 GradGradGradGradGradGradGradGradGradGradGradGradGradGradGradGradGradGrad

                          Input orientation:                          
 ---------------------------------------------------------------------
 Center     Atomic      Atomic             Coordinates (Angstroms)
 Number     Number       Type             X           Y           Z
 ---------------------------------------------------------------------
      1          6           0       -1.487342    1.255274    0.000000
      2          6           0       -0.114579    1.267573    0.000214
      3          6           0        0.637842    2.495615    0.000237
      4          6           0        2.761554    3.737816   -0.000096
      5          6           0        4.876369    4.985412   -0.000577
      6          6           0        2.060297    2.516154   -0.000014
      7          6           0        4.192364    3.771038   -0.000385
      8          6           0       -3.680332    2.523182   -0.000361
      9          6           0       -5.854424    3.764586   -0.000316
     10          6           0       -2.227169    2.491707   -0.000158
     11          6           0       -4.431403    3.732940   -0.000377
     12          6           0       -6.523170    4.989254   -0.000217
     13          6           0       -1.497229    3.665426    0.000042
     14          6           0       -3.770635    4.987756   -0.000065
     15          6           0       -5.831731    6.215386   -0.000158
     16          6           0        0.618765    4.984426    0.000243
     17          6           0       -1.488529    6.302410    0.000188
     18          6           0       -3.646057    7.473946   -0.000044
     19          6           0        2.763344    6.233835   -0.000066
     20          6           0        0.644264    7.488696    0.000097
     21          6           0       -1.486048    8.739497   -0.000106
     22          6           0       -0.072682    3.722583    0.000254
     23          6           0       -4.423380    6.225598   -0.000181
     24          6           0        2.039423    4.985716    0.000088
     25          6           0       -0.086819    6.245918    0.000262
     26          6           0       -2.247828    7.509622    0.000125
     27          6           0        4.183286    6.205843   -0.000242
     28          6           0        2.051167    7.464069   -0.000096
     29          6           0       -0.108077    8.718323   -0.000112
     30          1           0        4.736826    7.141709   -0.000134
     31          1           0        2.608212    8.398162   -0.000269
     32          1           0        0.450622    9.653867   -0.000382
     33          1           0       -2.024149    9.684844   -0.000104
     34          1           0       -4.210816    8.402296   -0.000186
     35          1           0       -6.391623    7.148101   -0.000098
     36          1           0       -7.613530    5.001882   -0.000063
     37          1           0       -6.417453    2.834207   -0.000272
     38          1           0       -4.208336    1.574068   -0.000359
     39          1           0       -2.035005    0.314677    0.000084
     40          1           0        0.442586    0.330166    0.000014
     41          1           0        2.607852    1.577080   -0.000179
     42          1           0        4.741811    2.832903   -0.000582
     43          1           0        5.965971    4.991361   -0.000799
     44         45           0       -2.251750    4.985817    0.000017
     45          6           0       -0.908860    5.098367    0.015421
     46          8           0       -0.908860    5.098367    1.155050
 ---------------------------------------------------------------------
                    Distance matrix (angstroms):
                    1          2          3          4          5
     1  C    0.000000
     2  C    1.372818   0.000000
     3  C    2.460661   1.440217   0.000000
     4  C    4.920988   3.791337   2.460328   0.000000
     5  C    7.376364   6.223494   4.915709   2.455390   0.000000
     6  C    3.765044   2.507795   1.422603   1.408623   3.745330
     7  C    6.211934   4.981675   3.776417   1.431196   1.393760
     8  C    2.533140   3.780364   4.318263   6.555397   8.903916
     9  C    5.036670   6.259464   6.615119   8.616019  10.800015
    10  C    1.440871   2.441627   2.865014   5.141998   7.528533
    11  C    3.847899   4.971218   5.218067   7.192959   9.391662
    12  C    6.269144   7.410867   7.582765   9.368681  11.399540
    13  C    2.410172   2.767927   2.434540   4.259398   6.508849
    14  C    4.375483   5.215986   5.064132   6.650702   8.647004
    15  C    6.593666   7.560866   7.462713   8.943316  10.778509
    16  C    4.282786   3.788507   2.488884   2.479028   4.257604
    17  C    5.047136   5.218939   4.360406   4.963904   6.499724
    18  C    6.582699   7.140757   6.567768   7.417287   8.878319
    19  C    6.546327   5.739878   4.300238   2.496019   2.454269
    20  C    6.587813   6.267233   4.993085   4.307204   4.917026
    21  C    7.484223   7.596748   6.595223   6.561930   7.387389
    22  C    2.844095   2.455367   1.417849   2.834277   5.107626
    23  C    5.772732   6.568697   6.287188   7.603442   9.382078
    24  C    5.133641   4.297012   2.857452   1.441779   2.836946
    25  C    5.183434   4.978422   3.819674   3.795234   5.120753
    26  C    6.300413   6.596509   5.785098   6.270600   7.558163
    27  C    7.527559   6.546613   5.131857   2.848241   1.403502
    28  C    7.146340   6.564070   5.165562   3.793364   3.758392
    29  C    7.589432   7.450753   6.267256   5.748063   6.227305
    30  H    8.566818   7.618504   6.195794   3.935503   2.160808
    31  H    8.233736   7.632751   6.222734   4.662868   4.097731
    32  H    8.619284   8.405318   7.160700   6.351382   6.432862
    33  H    8.446645   8.631159   7.666238   7.633485   8.348761
    34  H    7.648348   8.226994   7.641883   8.388761   9.708349
    35  H    7.666641   8.601273   8.429650   9.767839  11.473660
    36  H    7.181034   8.377311   8.623602  10.451805  12.489910
    37  H    5.176778   6.494657   7.063415   9.223376  11.496873
    38  H    2.739605   4.105214   4.933020   7.298025   9.704078
    39  H    1.088420   2.143839   3.449725   5.892780   8.341634
    40  H    2.140197   1.090488   2.174234   4.121855   6.428821
    41  H    4.107818   2.739967   2.173625   2.166196   4.094252
    42  H    6.425828   5.102429   4.117806   2.177221   2.156710
    43  H    8.337279   7.130195   5.883681   3.440881   1.089618
    44  Rh   3.808053   4.288687   3.814558   5.166306   7.128119
    45  C    3.886417   3.912300   3.027678   3.914495   5.786354
    46  O    4.054398   4.079155   3.240400   4.081347   5.900602
                    6          7          8          9         10
     6  C    0.000000
     7  C    2.473953   0.000000
     8  C    5.740633   7.970978   0.000000
     9  C    8.012576  10.046789   2.503549   0.000000
    10  C    4.287535   6.545768   1.453504   3.844112   0.000000
    11  C    6.604751   8.623851   1.423946   1.423372   2.529685
    12  C    8.932643  10.784559   3.763407   1.395361   4.969242
    13  C    3.738558   5.690573   2.463871   4.358323   1.382183
    14  C    6.333133   8.055417   2.466228   2.416262   2.934714
    15  C    8.715987  10.317816   4.273276   2.450906   5.182534
    16  C    2.858387   3.773979   4.953783   6.587123   3.783251
    17  C    5.189402   6.219356   4.368817   5.049910   3.881629
    18  C    7.559244   8.669047   4.950883   4.316971   5.180343
    19  C    3.783573   2.847361   7.435719   8.964548   6.237687
    20  C    5.170233   5.139065   6.584714   7.490123   5.763248
    21  C    7.162859   7.545194   6.592227   6.620608   6.291593
    22  C    2.450524   4.265321   3.801803   5.781894   2.481304
    23  C    7.469808   8.958565   3.776242   2.846835   4.331892
    24  C    2.469650   2.471962   6.227333   7.987739   4.942053
    25  C    4.303631   4.943322   5.174177   6.278716   4.321481
    26  C    6.595048   7.446683   5.188126   5.199311   5.017958
    27  C    4.256863   2.434822   8.683230  10.330312   7.408693
    28  C    4.947924   4.268865   7.567196   8.728376   6.559615
    29  C    6.570293   6.555106   7.151279   7.586832   6.577333
    30  H    5.344115   3.414361   9.601008  11.116633   8.373753
    31  H    5.907472   4.890788   8.605881   9.648121   7.633290
    32  H    7.316966   6.971965   8.240841   8.627702   7.646378
    33  H    8.250625   8.580101   7.350670   7.051274   7.196001
    34  H    8.600786   9.594894   5.902999   4.920346   6.234575
    35  H    9.637940  11.109695   5.361061   3.425895   6.246974
    36  H    9.988081  11.869882   4.649085   2.150664   5.942547
    37  H    8.483714  10.651096   2.754735   1.087477   4.204258
    38  H    6.339028   8.683227   1.086096   2.740068   2.183365
    39  H    4.649516   7.122257   2.754015   5.146827   2.185495
    40  H    2.719473   5.089246   4.669879   7.172696   3.435091
    41  H    1.087050   2.706313   6.358960   8.740440   4.920769
    42  H    2.700158   1.087194   8.427837  10.637116   6.977328
    43  H    4.623953   2.152875   9.957062  11.883884   8.565968
    44  Rh   4.969203   6.557613   2.847002   3.804032   2.494231
    45  C    3.934965   5.271103   3.783238   5.122287   2.921105
    46  O    4.100961   5.396231   3.955706   5.250947   3.141197
                   11         12         13         14         15
    11  C    0.000000
    12  C    2.440044   0.000000
    13  C    2.934951   5.197365   0.000000
    14  C    1.418161   2.752535   2.630006   0.000000
    15  C    2.850168   1.407654   5.028937   2.398999   0.000000
    16  C    5.202924   7.141937   2.493430   4.389401   6.566899
    17  C    3.906749   5.203075   2.636998   2.633690   4.344074
    18  C    3.822551   3.801510   4.372904   2.489309   2.522131
    19  C    7.617012   9.369543   4.974858   6.651736   8.595095
    20  C    6.314120   7.590740   4.382166   5.074055   6.599988
    21  C    5.808677   6.279882   5.074083   4.392596   5.025544
    22  C    4.358734   6.573679   1.425693   3.908391   6.275406
    23  C    2.492671   2.436733   3.888038   1.399403   1.408389
    24  C    6.590982   8.562594   3.775060   5.810059   7.966628
    25  C    5.019011   6.557882   2.940781   3.892746   5.744993
    26  C    4.362491   4.962943   3.916790   2.945972   3.810434
    27  C    8.962595  10.775355   6.222697   8.046651  10.015021
    28  C    7.479642   8.924347   5.198154   6.326571   7.981184
    29  C    6.598879   7.420201   5.240374   5.227950   6.246993
    30  H    9.781418  11.463882   7.137786   8.775899  10.609076
    31  H    8.445146   9.746938   6.265256   7.233295   8.717635
    32  H    7.674083   8.390018   6.297265   6.292186   7.161782
    33  H    6.420283   6.503057   6.042436   5.011272   5.151196
    34  H    4.674564   4.122601   5.459074   3.442796   2.722120
    35  H    3.937739   2.162852   6.007006   3.396567   1.087858
    36  H    3.425806   1.090433   6.260611   3.842921   2.155783
    37  H    2.179934   2.157638   4.989943   3.412245   3.431536
    38  H    2.170366   4.125767   3.424015   3.441635   4.917037
    39  H    4.174595   6.480378   3.393630   4.984985   7.016659
    40  H    5.944294   8.380265   3.858347   6.280475   8.602492
    41  H    7.361986   9.747743   4.605744   7.233105   9.630184
    42  H    9.217263  11.469510   6.294340   8.780953  11.101396
    43  H   10.473252  12.489141   7.580070   9.736606  11.861029
    44  Rh   2.514078   4.271421   1.520768   1.518886   3.785248
    45  C    3.777956   5.615392   1.549107   2.863954   5.048033
    46  O    3.950660   5.732977   1.932237   3.088087   5.178504
                   16         17         18         19         20
    16  C    0.000000
    17  C    2.485512   0.000000
    18  C    4.938261   2.455081   0.000000
    19  C    2.481984   4.252426   6.528269   0.000000
    20  C    2.504399   2.440509   4.290347   2.462758   0.000000
    21  C    4.304741   2.437089   2.503449   4.933121   2.470372
    22  C    1.438870   2.942810   5.180901   3.788064   3.833747
    23  C    5.192661   2.935855   1.470579   7.186729   5.222684
    24  C    1.420659   3.765651   6.206124   1.442866   2.865550
    25  C    1.445410   1.402848   3.765133   2.850189   1.441867
    26  C    3.820206   1.426147   1.398684   5.171023   2.892168
    27  C    3.767979   5.672637   7.931374   1.420217   3.764357
    28  C    2.863635   3.725440   5.697232   1.421504   1.407118
    29  C    3.803983   2.782497   3.750437   3.797070   1.441528
    30  H    4.648903   6.281678   8.389465   2.172295   4.107245
    31  H    3.951138   4.601681   6.322188   2.169880   2.164306
    32  H    4.672467   3.872024   4.640564   4.128595   2.173813
    33  H    5.392488   3.424580   2.742016   5.901657   3.455937
    34  H    5.916645   3.438077   1.086640   7.303502   4.940291
    35  H    7.336691   4.975492   2.764834   9.200506   7.044127
    36  H    8.232313   6.261550   4.674606  10.449748   8.624118
    37  H    7.357432   6.026833   5.404425   9.790021   8.457666
    38  H    5.910283   5.454775   5.926611   8.385568   7.650526
    39  H    5.371131   6.012618   7.338298   7.619749   7.658004
    40  H    4.657593   6.276695   8.231075   6.343439   7.161370
    41  H    3.945437   6.253725   8.595604   4.659350   6.229195
    42  H    4.650652   7.131243   9.586220   3.934548   6.202120
    43  H    5.347210   7.568911   9.927452   3.435194   5.878540
    44  Rh   2.870516   1.521816   2.852171   5.168048   3.827702
    45  C    1.531943   1.336401   3.624344   3.843775   2.850632
    46  O    1.918384   1.766194   3.803928   4.013560   3.075676
                   21         22         23         24         25
    21  C    0.000000
    22  C    5.212200   0.000000
    23  C    3.866213   5.019328   0.000000
    24  C    5.149740   2.460994   6.580663   0.000000
    25  C    2.859332   2.523375   4.336608   2.471643   0.000000
    26  C    1.446686   4.367256   2.526211   4.975000   2.503379
    27  C    6.209730   4.927458   8.606688   2.466750   4.270293
    28  C    3.760134   4.302262   6.591931   2.478382   2.460666
    29  C    1.378134   4.995866   4.983525   4.306288   2.472497
    30  H    6.424725   5.900999   9.205902   3.453156   4.906118
    31  H    4.108464   5.389641   7.359573   3.459524   3.448963
    32  H    2.141673   5.954324   5.958936   4.931118   3.450066
    33  H    1.087765   6.273498   4.209832   6.212441   3.947082
    34  H    2.745554   6.246909   2.187052   7.123097   4.653743
    35  H    5.157248   7.187711   2.173705   8.703933   6.369026
    36  H    7.177451   7.648594   3.416803   9.652967   7.628827
    37  H    7.693582   6.406663   3.934191   8.726267   7.191432
    38  H    7.665131   4.660445   4.656499   7.118556   6.230015
    39  H    8.442686   3.932497   6.375212   6.198352   6.243000
    40  H    8.627657   3.431325   7.644196   4.921791   5.939393
    41  H    8.249863   3.433431   8.428934   3.455707   5.390668
    42  H    8.583361   4.896006   9.772978   3.455069   5.913066
    43  H    8.341529   6.170505  10.462406   3.926552   6.181438
    44  Rh   3.830981   2.518749   2.500606   4.291174   2.504951
    45  C    3.686627   1.610032   3.690900   2.950474   1.411685
    46  O    3.863336   1.981295   3.867436   3.168438   1.823776
                   26         27         28         29         30
    26  C    0.000000
    27  C    6.561941   0.000000
    28  C    4.299236   2.475695   0.000000
    29  C    2.457539   4.972761   2.497095   0.000000
    30  H    6.994338   1.087314   2.704937   5.094978   0.000000
    31  H    4.936662   2.699466   1.087579   2.735092   2.471775
    32  H    3.446653   5.081500   2.712371   1.089672   4.968147
    33  H    2.186692   7.115876   4.641125   2.146042   7.223457
    34  H    2.156430   8.676713   6.331880   4.114893   9.036005
    35  H    4.159535  10.616805   8.448700   6.476770  11.128451
    36  H    5.922796  11.858093   9.973401   8.375188  12.534359
    37  H    6.264605  11.124009   9.651587   8.627343  11.957111
    38  H    6.250952   9.585022   8.594969   8.237264  10.536344
    39  H    7.198092   8.565802   8.234720   8.621736   9.615927
    40  H    7.667001   6.965372   7.313009   8.406212   8.052180
    41  H    7.666335   4.889524   5.913252   7.640264   5.957989
    42  H    8.409921   3.418871   5.356050   7.626243   4.308809
    43  H    8.591166   2.157066   4.630332   7.126310   2.476851
    44  Rh   2.523808   6.549668   4.965564   4.304293   7.313554
    45  C    2.758120   5.211208   3.789267   3.707504   6.004103
    46  O    2.990124   5.337710   3.961397   3.883264   6.114202
                   31         32         33         34         35
    31  H    0.000000
    32  H    2.496395   0.000000
    33  H    4.807736   2.474965   0.000000
    34  H    6.819030   4.826535   2.535043   0.000000
    35  H    9.086236   7.286644   5.050732   2.515735   0.000000
    36  H   10.771199   9.309754   7.291866   4.810538   2.469679
    37  H   10.602840   9.678750   8.138325   5.989395   4.313971
    38  H    9.645392   9.326792   8.399724   6.828229   5.986367
    39  H    9.322134   9.664306   9.370173   8.375186   8.104061
    40  H    8.353591   9.323704   9.674439   9.317372   9.653530
    41  H    6.821082   8.359912   9.337627   9.647684  10.584273
    42  H    5.960231   8.058527   9.629502  10.543609  11.940448
    43  H    4.783391   7.222051   9.266650  10.733195  12.544387
    44  Rh   5.938294   5.393840   4.704536   3.938308   4.670548
    45  C    4.822726   4.754053   4.720157   4.671093   5.853405
    46  O    4.959154   4.892422   4.859426   4.811802   5.966278
                   36         37         38         39         40
    36  H    0.000000
    37  H    2.475765   0.000000
    38  H    4.831693   2.543256   0.000000
    39  H    7.286277   5.055085   2.511858   0.000000
    40  H    9.312676   7.302763   4.814391   2.477639   0.000000
    41  H   10.779885   9.112436   6.816188   4.811421   2.498633
    42  H   12.544279  11.159264   9.038241   7.229571   4.974639
    43  H   13.579505  12.569904  10.732866   9.267523   7.227345
    44  Rh   5.361804   4.688550   3.932971   4.676166   5.379083
    45  C    6.705382   5.955776   4.827781   4.914481   4.956044
    46  O    6.804131   6.066777   4.964090   5.048350   5.088835
                   41         42         43         44         45
    41  H    0.000000
    42  H    2.476061   0.000000
    43  H    4.788975   2.481433   0.000000
    44  Rh   5.935926   7.317441   8.217723   0.000000
    45  C    4.976642   6.087911   6.875682   1.347687   0.000000
    46  O    5.108941   6.196603   6.972140   1.774859   1.139629
                   46
    46  O    0.000000
 Stoichiometry    C30H14ORh(2)
 Framework group  C1[X(C30H14ORh)]
 Deg. of freedom   132
 Full point group                 C1      NOp   1
 Largest Abelian subgroup         C1      NOp   1
 Largest concise Abelian subgroup C1      NOp   1
                         Standard orientation:                         
 ---------------------------------------------------------------------
 Center     Atomic      Atomic             Coordinates (Angstroms)
 Number     Number       Type             X           Y           Z
 ---------------------------------------------------------------------
      1          6           0        0.442949    3.739840   -0.033397
      2          6           0       -0.929818    3.728020   -0.034059
      3          6           0       -1.682666    2.500241   -0.035840
      4          6           0       -3.806809    1.258782   -0.038855
      5          6           0       -5.922058    0.011926   -0.042018
      6          6           0       -3.105127    2.480198   -0.037008
      7          6           0       -5.237630    1.226060   -0.040079
      8          6           0        2.635498    2.471169   -0.033755
      9          6           0        4.809157    1.229008   -0.033690
     10          6           0        1.182346    2.503150   -0.034431
     11          6           0        3.386148    1.261150   -0.034611
     12          6           0        5.477476    0.004107   -0.034499
     13          6           0        0.451997    1.329686   -0.035962
     14          6           0        2.724942    0.006564   -0.036075
     15          6           0        4.785611   -1.221784   -0.036204
     16          6           0       -1.664455    0.011425   -0.038521
     17          6           0        0.442379   -1.307293   -0.038682
     18          6           0        2.599499   -2.479580   -0.038829
     19          6           0       -3.809469   -1.237234   -0.041534
     20          6           0       -1.690827   -2.492834   -0.041400
     21          6           0        0.439050   -3.744377   -0.041620
     22          6           0       -0.972569    1.273026   -0.036708
     23          6           0        3.377256   -1.231504   -0.037124
     24          6           0       -3.085114    0.010631   -0.039571
     25          6           0       -0.959311   -1.250312   -0.039427
     26          6           0        1.201258   -2.514769   -0.039577
     27          6           0       -5.229400   -1.208747   -0.042572
     28          6           0       -3.097720   -2.467717   -0.042450
     29          6           0       -0.938914   -3.722723   -0.042469
     30          1           0       -5.783266   -2.144419   -0.043826
     31          1           0       -3.655090   -3.401614   -0.043986
     32          1           0       -1.497938   -4.658070   -0.044105
     33          1           0        0.976822   -4.689911   -0.042306
     34          1           0        3.163935   -3.408127   -0.039623
     35          1           0        5.345178   -2.154693   -0.036804
     36          1           0        6.567832   -0.008902   -0.033673
     37          1           0        5.372510    2.159189   -0.032283
     38          1           0        3.163832    3.420098   -0.032391
     39          1           0        0.990939    4.680246   -0.031949
     40          1           0       -1.486656    4.665621   -0.033592
     41          1           0       -3.652355    3.419464   -0.036498
     42          1           0       -5.786751    2.164386   -0.039604
     43          1           0       -7.011662    0.006356   -0.042931
     44         45           0        1.206059    0.009033   -0.036946
     45          6           0       -0.136880   -0.103065   -0.022507
     46          8           0       -0.137597   -0.104300    1.117121
 ---------------------------------------------------------------------
 Rotational constants (GHZ):      0.3035931      0.1315351      0.0924662
 Standard basis: VSTO-6G (5D, 7F)
 There are   148 symmetry adapted cartesian basis functions of A   symmetry.
 There are   147 symmetry adapted basis functions of A   symmetry.
   147 basis functions,   888 primitive gaussians,   148 cartesian basis functions
    75 alpha electrons       74 beta electrons
       nuclear repulsion energy      1556.5684614243 Hartrees.
 Integral buffers will be    262144 words long.
 Regular integral format.
 Two-electron integral symmetry is turned off.
 Do NDO integrals.
 One-electron integrals computed using PRISM.
 NBasis=   147 RedAO= F EigKep=  0.00D+00  NBF=   147
 NBsUse=   147 1.00D-04 EigRej=  0.00D+00 NBFU=   147
 Simple Huckel Guess.
 Initial guess <Sx>= 0.0000 <Sy>= 0.0000 <Sz>= 0.5000 <S**2>= 0.7500 S= 0.5000
 Keep J ints in memory in canonical form, NReq=2141367.
 Gradient too large for Newton-Raphson -- use scaled steepest descent instead.
     Minimum is close to point  4 DX=  5.77D-03 DF= -1.32D-04 DXR=  9.53D-03 DFR=  6.93D-05 which will be used.
 Gradient too large for Newton-Raphson -- use scaled steepest descent instead.
     Minimum is close to point  4 DX=  8.42D-03 DF= -2.85D-05 DXR=  8.35D-03 DFR=  8.05D-05 which will be used.
 Gradient too large for Newton-Raphson -- use scaled steepest descent instead.
     Accept linear search using points  1 and  2.
     Minimum is close to point  2 DX= -2.53D-02 DF= -5.69D-05 DXR=  3.26D-02 DFR=  5.96D-04 which will be used.
 Gradient too large for Newton-Raphson -- use scaled steepest descent instead.
     Minimum is close to point  2 DX=  2.65D-02 DF= -4.65D-05 DXR=  2.86D-02 DFR=  8.18D-04 which will be used.
 Gradient too large for Newton-Raphson -- use scaled steepest descent instead.
 Gradient too large for Newton-Raphson -- use scaled steepest descent instead.
     Accept linear search using points  1 and  2.
     Minimum is close to point  2 DX= -5.73D-02 DF= -1.01D-04 DXR=  6.79D-02 DFR=  4.04D-03 which will be used.
 Gradient too large for Newton-Raphson -- use scaled steepest descent instead.
     Accept linear search using points  1 and  2.
 Gradient too large for Newton-Raphson -- use scaled steepest descent instead.
 Gradient too large for Newton-Raphson -- use scaled steepest descent instead.
     Accept linear search using points  1 and  2.
 Gradient too large for Newton-Raphson -- use scaled steepest descent instead.
 Gradient too large for Newton-Raphson -- use scaled steepest descent instead.
     Accept linear search using points  1 and  2.
 Gradient too large for Newton-Raphson -- use scaled steepest descent instead.
 Gradient too large for Newton-Raphson -- use scaled steepest descent instead.
     Accept linear search using points  1 and  2.
 Gradient too large for Newton-Raphson -- use scaled steepest descent instead.
 Gradient too large for Newton-Raphson -- use scaled steepest descent instead.
     Accept linear search using points  1 and  2.
 Gradient too large for Newton-Raphson -- use scaled steepest descent instead.
     Accept linear search using points  2 and  3.
 Gradient too large for Newton-Raphson -- use scaled steepest descent instead.
     Accept linear search using points  1 and  2.
 Gradient too large for Newton-Raphson -- use scaled steepest descent instead.
 Gradient too large for Newton-Raphson -- use scaled steepest descent instead.
     Accept linear search using points  1 and  2.
 Gradient too large for Newton-Raphson -- use scaled steepest descent instead.
 Gradient too large for Newton-Raphson -- use scaled steepest descent instead.
     Accept linear search using points  1 and  2.
 Gradient too large for Newton-Raphson -- use scaled steepest descent instead.
 Gradient too large for Newton-Raphson -- use scaled steepest descent instead.
     Accept linear search using points  1 and  2.
 Gradient too large for Newton-Raphson -- use scaled steepest descent instead.
 Gradient too large for Newton-Raphson -- use scaled steepest descent instead.
     Accept linear search using points  1 and  2.
 Gradient too large for Newton-Raphson -- use scaled steepest descent instead.
 Gradient too large for Newton-Raphson -- use scaled steepest descent instead.
     Accept linear search using points  1 and  2.
 Gradient too large for Newton-Raphson -- use scaled steepest descent instead.
 Gradient too large for Newton-Raphson -- use scaled steepest descent instead.
     Accept linear search using points  1 and  2.
 Gradient too large for Newton-Raphson -- use scaled steepest descent instead.
 Gradient too large for Newton-Raphson -- use scaled steepest descent instead.
     Accept linear search using points  1 and  2.
 Gradient too large for Newton-Raphson -- use scaled steepest descent instead.
 Gradient too large for Newton-Raphson -- use scaled steepest descent instead.
     Accept linear search using points  1 and  2.
 Gradient too large for Newton-Raphson -- use scaled steepest descent instead.
 Gradient too large for Newton-Raphson -- use scaled steepest descent instead.
     Accept linear search using points  1 and  2.
 Gradient too large for Newton-Raphson -- use scaled steepest descent instead.
 Gradient too large for Newton-Raphson -- use scaled steepest descent instead.
     Accept linear search using points  1 and  2.
 Gradient too large for Newton-Raphson -- use scaled steepest descent instead.
 Gradient too large for Newton-Raphson -- use scaled steepest descent instead.
     Accept linear search using points  1 and  2.
 Gradient too large for Newton-Raphson -- use scaled steepest descent instead.
 Gradient too large for Newton-Raphson -- use scaled steepest descent instead.
     Accept linear search using points  1 and  2.
 Gradient too large for Newton-Raphson -- use scaled steepest descent instead.
 Gradient too large for Newton-Raphson -- use scaled steepest descent instead.
     Accept linear search using points  1 and  2.
 Gradient too large for Newton-Raphson -- use scaled steepest descent instead.
 Gradient too large for Newton-Raphson -- use scaled steepest descent instead.
     Accept linear search using points  1 and  2.
 Gradient too large for Newton-Raphson -- use scaled steepest descent instead.
 Gradient too large for Newton-Raphson -- use scaled steepest descent instead.
     Accept linear search using points  1 and  2.
 Gradient too large for Newton-Raphson -- use scaled steepest descent instead.
 Gradient too large for Newton-Raphson -- use scaled steepest descent instead.
     Accept linear search using points  1 and  2.
 Gradient too large for Newton-Raphson -- use scaled steepest descent instead.
 Gradient too large for Newton-Raphson -- use scaled steepest descent instead.
     Accept linear search using points  1 and  2.
 Gradient too large for Newton-Raphson -- use scaled steepest descent instead.
 Gradient too large for Newton-Raphson -- use scaled steepest descent instead.
     Accept linear search using points  1 and  2.
 Gradient too large for Newton-Raphson -- use scaled steepest descent instead.
 Gradient too large for Newton-Raphson -- use scaled steepest descent instead.
     Accept linear search using points  1 and  2.
 Gradient too large for Newton-Raphson -- use scaled steepest descent instead.
 Gradient too large for Newton-Raphson -- use scaled steepest descent instead.
     Accept linear search using points  1 and  2.
 LinEq1:  Iter=  0 NonCon=     1 RMS=2.64D-04 Max=1.37D-02 NDo=     1
 AX will form     1 AO Fock derivatives at one time.
 LinEq1:  Iter=  1 NonCon=     1 RMS=1.34D-04 Max=2.08D-03 NDo=     1
 LinEq1:  Iter=  2 NonCon=     1 RMS=4.53D-05 Max=7.96D-04 NDo=     1
 LinEq1:  Iter=  3 NonCon=     1 RMS=2.61D-05 Max=4.80D-04 NDo=     1
 LinEq1:  Iter=  4 NonCon=     1 RMS=1.02D-05 Max=2.13D-04 NDo=     1
 LinEq1:  Iter=  5 NonCon=     1 RMS=4.14D-06 Max=7.68D-05 NDo=     1
 LinEq1:  Iter=  6 NonCon=     1 RMS=1.54D-06 Max=2.88D-05 NDo=     1
 LinEq1:  Iter=  7 NonCon=     1 RMS=4.49D-07 Max=1.59D-05 NDo=     1
 LinEq1:  Iter=  8 NonCon=     1 RMS=1.62D-07 Max=5.50D-06 NDo=     1
 LinEq1:  Iter=  9 NonCon=     1 RMS=7.07D-08 Max=1.64D-06 NDo=     1
 LinEq1:  Iter= 10 NonCon=     1 RMS=3.12D-08 Max=8.54D-07 NDo=     1
 LinEq1:  Iter= 11 NonCon=     1 RMS=1.37D-08 Max=3.84D-07 NDo=     1
 LinEq1:  Iter= 12 NonCon=     1 RMS=5.12D-09 Max=1.69D-07 NDo=     1
 LinEq1:  Iter= 13 NonCon=     0 RMS=1.40D-09 Max=4.65D-08 NDo=     1
 Linear equations converged to 1.039D-08 1.039D-07 after    13 iterations.
 Gradient too large for Newton-Raphson -- use scaled steepest descent instead.
 Gradient too large for Newton-Raphson -- use scaled steepest descent instead.
     Minimum is close to point  2 DX=  1.96D-02 DF= -5.22D-07 DXR=  2.14D-02 DFR=  4.57D-04 which will be used.
 Gradient too large for Newton-Raphson -- use scaled steepest descent instead.
 Gradient too large for Newton-Raphson -- use scaled steepest descent instead.
     Accept linear search using points  1 and  2.
 Gradient too large for Newton-Raphson -- use scaled steepest descent instead.
     Accept linear search using points  1 and  2.
     Minimum is close to point  2 DX= -1.33D-03 DF= -1.96D-09 DXR=  1.21D-03 DFR=  1.76D-06 which will be used.
 Gradient too large for Newton-Raphson -- use scaled steepest descent instead.
     Accept linear search using points  1 and  2.
     Minimum is close to point  2 DX= -2.88D-02 DF= -9.21D-07 DXR=  2.96D-02 DFR=  8.72D-04 which will be used.
 Gradient too large for Newton-Raphson -- use scaled steepest descent instead.
     Accept linear search using points  1 and  2.
     Minimum is close to point  2 DX= -2.52D-03 DF= -6.22D-09 DXR=  2.53D-03 DFR=  6.46D-06 which will be used.
 Gradient too large for Newton-Raphson -- use scaled steepest descent instead.
     Minimum is close to point  2 DX=  4.52D-02 DF= -1.57D-06 DXR=  4.33D-02 DFR=  1.87D-03 which will be used.
 Gradient too large for Newton-Raphson -- use scaled steepest descent instead.
     Minimum is close to point  2 DX=  3.93D-02 DF= -1.01D-06 DXR=  3.78D-02 DFR=  1.43D-03 which will be used.
 Gradient too large for Newton-Raphson -- use scaled steepest descent instead.
     Minimum is close to point  2 DX=  7.47D-02 DF= -2.79D-06 DXR=  6.95D-02 DFR=  4.86D-03 which will be used.
 Gradient too large for Newton-Raphson -- use scaled steepest descent instead.
     Accept linear search using points  1 and  2.
     Minimum is close to point  2 DX= -3.10D-02 DF= -4.58D-07 DXR=  2.90D-02 DFR=  1.01D-03 which will be used.
 Gradient too large for Newton-Raphson -- use scaled steepest descent instead.
     Accept linear search using points  1 and  2.
 Gradient too large for Newton-Raphson -- use scaled steepest descent instead.
     Minimum is close to point  2 DX=  3.72D-02 DF= -3.47D-07 DXR=  3.59D-02 DFR=  1.29D-03 which will be used.
 LinEq1:  Iter=  0 NonCon=     1 RMS=2.54D-04 Max=1.34D-02 NDo=     1
 LinEq1:  Iter=  1 NonCon=     1 RMS=1.97D-04 Max=6.77D-03 NDo=     1
 LinEq1:  Iter=  2 NonCon=     1 RMS=2.27D-05 Max=1.05D-03 NDo=     1
 LinEq1:  Iter=  3 NonCon=     1 RMS=5.34D-06 Max=9.62D-05 NDo=     1
 LinEq1:  Iter=  4 NonCon=     1 RMS=2.65D-06 Max=3.73D-05 NDo=     1
 LinEq1:  Iter=  5 NonCon=     1 RMS=1.14D-06 Max=2.70D-05 NDo=     1
 LinEq1:  Iter=  6 NonCon=     1 RMS=4.25D-07 Max=1.04D-05 NDo=     1
 LinEq1:  Iter=  7 NonCon=     1 RMS=1.62D-07 Max=3.28D-06 NDo=     1
 LinEq1:  Iter=  8 NonCon=     1 RMS=4.94D-08 Max=2.00D-06 NDo=     1
 LinEq1:  Iter=  9 NonCon=     1 RMS=2.30D-08 Max=5.14D-07 NDo=     1
 LinEq1:  Iter= 10 NonCon=     1 RMS=8.56D-09 Max=2.26D-07 NDo=     1
 LinEq1:  Iter= 11 NonCon=     0 RMS=3.16D-09 Max=5.55D-08 NDo=     1
 Linear equations converged to 1.039D-08 1.039D-07 after    11 iterations.
 LinEq1:  Iter=  0 NonCon=     1 RMS=2.23D-04 Max=1.02D-02 NDo=     1
 LinEq1:  Iter=  1 NonCon=     1 RMS=1.65D-04 Max=5.20D-03 NDo=     1
 LinEq1:  Iter=  2 NonCon=     1 RMS=3.20D-05 Max=1.32D-03 NDo=     1
 LinEq1:  Iter=  3 NonCon=     1 RMS=1.19D-05 Max=2.70D-04 NDo=     1
 LinEq1:  Iter=  4 NonCon=     1 RMS=5.31D-06 Max=1.52D-04 NDo=     1
 LinEq1:  Iter=  5 NonCon=     1 RMS=1.98D-06 Max=6.19D-05 NDo=     1
 LinEq1:  Iter=  6 NonCon=     1 RMS=9.57D-07 Max=2.21D-05 NDo=     1
 LinEq1:  Iter=  7 NonCon=     1 RMS=3.29D-07 Max=5.93D-06 NDo=     1
 LinEq1:  Iter=  8 NonCon=     1 RMS=1.31D-07 Max=2.33D-06 NDo=     1
 LinEq1:  Iter=  9 NonCon=     1 RMS=5.86D-08 Max=1.47D-06 NDo=     1
 LinEq1:  Iter= 10 NonCon=     1 RMS=2.56D-08 Max=5.24D-07 NDo=     1
 LinEq1:  Iter= 11 NonCon=     1 RMS=8.68D-09 Max=1.97D-07 NDo=     1
 LinEq1:  Iter= 12 NonCon=     0 RMS=2.99D-09 Max=3.93D-08 NDo=     1
 Linear equations converged to 1.039D-08 1.039D-07 after    12 iterations.
     Accept linear search using points  1 and  2.
     Minimum is close to point  2 DX= -7.89D-02 DF= -7.61D-06 DXR=  8.57D-02 DFR=  8.33D-03 which will be used.
 LinEq1:  Iter=  0 NonCon=     1 RMS=9.56D-05 Max=2.94D-03 NDo=     1
 LinEq1:  Iter=  1 NonCon=     1 RMS=3.86D-05 Max=7.54D-04 NDo=     1
 LinEq1:  Iter=  2 NonCon=     1 RMS=2.12D-05 Max=6.72D-04 NDo=     1
 LinEq1:  Iter=  3 NonCon=     1 RMS=8.12D-06 Max=2.05D-04 NDo=     1
 LinEq1:  Iter=  4 NonCon=     1 RMS=3.80D-06 Max=7.61D-05 NDo=     1
 LinEq1:  Iter=  5 NonCon=     1 RMS=1.96D-06 Max=4.38D-05 NDo=     1
 LinEq1:  Iter=  6 NonCon=     1 RMS=9.17D-07 Max=1.84D-05 NDo=     1
 LinEq1:  Iter=  7 NonCon=     1 RMS=2.86D-07 Max=5.41D-06 NDo=     1
 LinEq1:  Iter=  8 NonCon=     1 RMS=9.82D-08 Max=2.34D-06 NDo=     1
 LinEq1:  Iter=  9 NonCon=     1 RMS=3.33D-08 Max=5.78D-07 NDo=     1
 LinEq1:  Iter= 10 NonCon=     1 RMS=1.33D-08 Max=2.76D-07 NDo=     1
 LinEq1:  Iter= 11 NonCon=     1 RMS=5.21D-09 Max=1.42D-07 NDo=     1
 LinEq1:  Iter= 12 NonCon=     0 RMS=2.32D-09 Max=4.21D-08 NDo=     1
 Linear equations converged to 1.039D-08 1.039D-07 after    12 iterations.
 LinEq1:  Iter=  0 NonCon=     1 RMS=9.07D-05 Max=2.53D-03 NDo=     1
 LinEq1:  Iter=  1 NonCon=     1 RMS=2.04D-05 Max=6.07D-04 NDo=     1
 LinEq1:  Iter=  2 NonCon=     1 RMS=1.12D-05 Max=2.03D-04 NDo=     1
 LinEq1:  Iter=  3 NonCon=     1 RMS=5.52D-06 Max=1.02D-04 NDo=     1
 LinEq1:  Iter=  4 NonCon=     1 RMS=2.42D-06 Max=4.07D-05 NDo=     1
 LinEq1:  Iter=  5 NonCon=     1 RMS=1.07D-06 Max=2.80D-05 NDo=     1
 LinEq1:  Iter=  6 NonCon=     1 RMS=4.93D-07 Max=9.98D-06 NDo=     1
 LinEq1:  Iter=  7 NonCon=     1 RMS=1.74D-07 Max=2.83D-06 NDo=     1
 LinEq1:  Iter=  8 NonCon=     1 RMS=5.98D-08 Max=1.21D-06 NDo=     1
 LinEq1:  Iter=  9 NonCon=     1 RMS=2.51D-08 Max=6.98D-07 NDo=     1
 LinEq1:  Iter= 10 NonCon=     1 RMS=1.22D-08 Max=3.16D-07 NDo=     1
 LinEq1:  Iter= 11 NonCon=     1 RMS=4.42D-09 Max=1.12D-07 NDo=     1
 LinEq1:  Iter= 12 NonCon=     0 RMS=1.64D-09 Max=3.64D-08 NDo=     1
 Linear equations converged to 1.039D-08 1.039D-07 after    12 iterations.
 LinEq1:  Iter=  0 NonCon=     1 RMS=7.48D-05 Max=1.47D-03 NDo=     1
 LinEq1:  Iter=  1 NonCon=     1 RMS=1.79D-05 Max=5.15D-04 NDo=     1
 LinEq1:  Iter=  2 NonCon=     1 RMS=1.06D-05 Max=2.46D-04 NDo=     1
 LinEq1:  Iter=  3 NonCon=     1 RMS=4.85D-06 Max=9.74D-05 NDo=     1
 LinEq1:  Iter=  4 NonCon=     1 RMS=2.30D-06 Max=3.68D-05 NDo=     1
 LinEq1:  Iter=  5 NonCon=     1 RMS=9.02D-07 Max=1.87D-05 NDo=     1
 LinEq1:  Iter=  6 NonCon=     1 RMS=4.40D-07 Max=8.92D-06 NDo=     1
 LinEq1:  Iter=  7 NonCon=     1 RMS=1.41D-07 Max=2.67D-06 NDo=     1
 LinEq1:  Iter=  8 NonCon=     1 RMS=4.18D-08 Max=6.92D-07 NDo=     1
 LinEq1:  Iter=  9 NonCon=     1 RMS=1.89D-08 Max=4.46D-07 NDo=     1
 LinEq1:  Iter= 10 NonCon=     1 RMS=8.56D-09 Max=1.84D-07 NDo=     1
 LinEq1:  Iter= 11 NonCon=     0 RMS=3.35D-09 Max=1.00D-07 NDo=     1
 Linear equations converged to 1.039D-08 1.039D-07 after    11 iterations.
     Accept linear search using points  1 and  2.
     Minimum is close to point  2 DX= -6.62D-02 DF= -6.40D-07 DXR=  7.09D-02 DFR=  5.37D-03 which will be used.
 LinEq1:  Iter=  0 NonCon=     1 RMS=1.16D-05 Max=3.95D-04 NDo=     1
 LinEq1:  Iter=  1 NonCon=     1 RMS=4.90D-06 Max=1.45D-04 NDo=     1
 LinEq1:  Iter=  2 NonCon=     1 RMS=2.72D-06 Max=6.20D-05 NDo=     1
 LinEq1:  Iter=  3 NonCon=     1 RMS=1.38D-06 Max=2.57D-05 NDo=     1
 LinEq1:  Iter=  4 NonCon=     1 RMS=5.49D-07 Max=1.30D-05 NDo=     1
 LinEq1:  Iter=  5 NonCon=     1 RMS=2.76D-07 Max=9.05D-06 NDo=     1
 LinEq1:  Iter=  6 NonCon=     1 RMS=1.31D-07 Max=3.65D-06 NDo=     1
 LinEq1:  Iter=  7 NonCon=     1 RMS=4.01D-08 Max=9.55D-07 NDo=     1
 LinEq1:  Iter=  8 NonCon=     1 RMS=1.56D-08 Max=3.43D-07 NDo=     1
 LinEq1:  Iter=  9 NonCon=     1 RMS=5.36D-09 Max=1.55D-07 NDo=     1
 LinEq1:  Iter= 10 NonCon=     1 RMS=2.49D-09 Max=5.51D-08 NDo=     1
 LinEq1:  Iter= 11 NonCon=     0 RMS=8.71D-10 Max=2.01D-08 NDo=     1
 Linear equations converged to 4.756D-09 4.756D-08 after    11 iterations.
     Minimum is close to point  2 DX=  2.62D-02 DF= -1.69D-09 DXR=  2.55D-02 DFR=  6.52D-04 which will be used.
 LinEq1:  Iter=  0 NonCon=     1 RMS=1.37D-06 Max=4.02D-05 NDo=     1
 LinEq1:  Iter=  1 NonCon=     1 RMS=6.63D-07 Max=2.12D-05 NDo=     1
 LinEq1:  Iter=  2 NonCon=     1 RMS=2.52D-07 Max=4.67D-06 NDo=     1
 LinEq1:  Iter=  3 NonCon=     1 RMS=1.11D-07 Max=2.28D-06 NDo=     1
 LinEq1:  Iter=  4 NonCon=     1 RMS=4.03D-08 Max=9.45D-07 NDo=     1
 LinEq1:  Iter=  5 NonCon=     1 RMS=1.56D-08 Max=2.65D-07 NDo=     1
 LinEq1:  Iter=  6 NonCon=     1 RMS=8.42D-09 Max=1.75D-07 NDo=     1
 LinEq1:  Iter=  7 NonCon=     1 RMS=3.97D-09 Max=1.13D-07 NDo=     1
 LinEq1:  Iter=  8 NonCon=     1 RMS=1.79D-09 Max=3.20D-08 NDo=     1
 LinEq1:  Iter=  9 NonCon=     1 RMS=8.79D-10 Max=2.19D-08 NDo=     1
 LinEq1:  Iter= 10 NonCon=     1 RMS=3.68D-10 Max=7.87D-09 NDo=     1
 LinEq1:  Iter= 11 NonCon=     0 RMS=1.40D-10 Max=3.26D-09 NDo=     1
 Linear equations converged to 6.346D-10 6.346D-09 after    11 iterations.
 LinEq1:  Iter=  0 NonCon=     1 RMS=1.09D-07 Max=2.54D-06 NDo=     1
 LinEq1:  Iter=  1 NonCon=     1 RMS=5.83D-08 Max=1.60D-06 NDo=     1
 LinEq1:  Iter=  2 NonCon=     1 RMS=2.34D-08 Max=5.47D-07 NDo=     1
 LinEq1:  Iter=  3 NonCon=     1 RMS=1.12D-08 Max=2.06D-07 NDo=     1
 LinEq1:  Iter=  4 NonCon=     1 RMS=4.19D-09 Max=1.51D-07 NDo=     1
 LinEq1:  Iter=  5 NonCon=     1 RMS=1.44D-09 Max=3.31D-08 NDo=     1
 LinEq1:  Iter=  6 NonCon=     1 RMS=5.46D-10 Max=1.16D-08 NDo=     1
 LinEq1:  Iter=  7 NonCon=     1 RMS=2.67D-10 Max=4.42D-09 NDo=     1
 LinEq1:  Iter=  8 NonCon=     1 RMS=1.35D-10 Max=3.07D-09 NDo=     1
 LinEq1:  Iter=  9 NonCon=     1 RMS=6.87D-11 Max=1.40D-09 NDo=     1
 LinEq1:  Iter= 10 NonCon=     1 RMS=3.20D-11 Max=8.80D-10 NDo=     1
 LinEq1:  Iter= 11 NonCon=     0 RMS=1.36D-11 Max=2.80D-10 NDo=     1
 Linear equations converged to 5.488D-11 5.488D-10 after    11 iterations.
 SCF Done:  E(UPM6) =   1.76036065758     a.u. after   80 cycles
            Convg  =    0.6933D-06                   289 Fock formations.
              S**2 =  3.1204                  -V/T =  1.0164
 <Sx>= 0.0000 <Sy>= 0.0000 <Sz>= 0.5000 <S**2>= 3.1204 S= 1.3359
 <L.S>= 0.000000000000E+00
 Annihilation of the first spin contaminant:
 S**2 before annihilation     3.1204,   after     8.4665

 **********************************************************************

            Population analysis using the SCF density.

 **********************************************************************

 Orbital symmetries:
 Alpha Orbitals:
       Occupied  (A) (A) (A) (A) (A) (A) (A) (A) (A) (A) (A) (A)
                 (A) (A) (A) (A) (A) (A) (A) (A) (A) (A) (A) (A)
                 (A) (A) (A) (A) (A) (A) (A) (A) (A) (A) (A) (A)
                 (A) (A) (A) (A) (A) (A) (A) (A) (A) (A) (A) (A)
                 (A) (A) (A) (A) (A) (A) (A) (A) (A) (A) (A) (A)
                 (A) (A) (A) (A) (A) (A) (A) (A) (A) (A) (A) (A)
                 (A) (A) (A)
       Virtual   (A) (A) (A) (A) (A) (A) (A) (A) (A) (A) (A) (A)
                 (A) (A) (A) (A) (A) (A) (A) (A) (A) (A) (A) (A)
                 (A) (A) (A) (A) (A) (A) (A) (A) (A) (A) (A) (A)
                 (A) (A) (A) (A) (A) (A) (A) (A) (A) (A) (A) (A)
                 (A) (A) (A) (A) (A) (A) (A) (A) (A) (A) (A) (A)
                 (A) (A) (A) (A) (A) (A) (A) (A) (A) (A) (A) (A)
 Beta  Orbitals:
       Occupied  (A) (A) (A) (A) (A) (A) (A) (A) (A) (A) (A) (A)
                 (A) (A) (A) (A) (A) (A) (A) (A) (A) (A) (A) (A)
                 (A) (A) (A) (A) (A) (A) (A) (A) (A) (A) (A) (A)
                 (A) (A) (A) (A) (A) (A) (A) (A) (A) (A) (A) (A)
                 (A) (A) (A) (A) (A) (A) (A) (A) (A) (A) (A) (A)
                 (A) (A) (A) (A) (A) (A) (A) (A) (A) (A) (A) (A)
                 (A) (A)
       Virtual   (A) (A) (A) (A) (A) (A) (A) (A) (A) (A) (A) (A)
                 (A) (A) (A) (A) (A) (A) (A) (A) (A) (A) (A) (A)
                 (A) (A) (A) (A) (A) (A) (A) (A) (A) (A) (A) (A)
                 (A) (A) (A) (A) (A) (A) (A) (A) (A) (A) (A) (A)
                 (A) (A) (A) (A) (A) (A) (A) (A) (A) (A) (A) (A)
                 (A) (A) (A) (A) (A) (A) (A) (A) (A) (A) (A) (A)
                 (A)
 The electronic state is 2-A.
 Alpha  occ. eigenvalues --   -1.52647  -1.13487  -1.10717  -1.08476  -1.04297
 Alpha  occ. eigenvalues --   -1.02755  -0.99834  -0.99181  -0.98216  -0.95858
 Alpha  occ. eigenvalues --   -0.94654  -0.90528  -0.90338  -0.88546  -0.85178
 Alpha  occ. eigenvalues --   -0.84284  -0.81251  -0.78160  -0.77847  -0.75470
 Alpha  occ. eigenvalues --   -0.75079  -0.74070  -0.70663  -0.69986  -0.68426
 Alpha  occ. eigenvalues --   -0.65497  -0.63045  -0.60807  -0.59682  -0.56885
 Alpha  occ. eigenvalues --   -0.56273  -0.55368  -0.55217  -0.54431  -0.53590
 Alpha  occ. eigenvalues --   -0.52425  -0.52126  -0.51558  -0.50945  -0.49598
 Alpha  occ. eigenvalues --   -0.48546  -0.47716  -0.47431  -0.47336  -0.46795
 Alpha  occ. eigenvalues --   -0.46488  -0.45619  -0.45292  -0.44850  -0.44423
 Alpha  occ. eigenvalues --   -0.44124  -0.43026  -0.42746  -0.41490  -0.40869
 Alpha  occ. eigenvalues --   -0.40672  -0.40084  -0.39677  -0.38962  -0.37942
 Alpha  occ. eigenvalues --   -0.37272  -0.36677  -0.35939  -0.35767  -0.34309
 Alpha  occ. eigenvalues --   -0.32290  -0.31824  -0.30046  -0.28787  -0.28318
 Alpha  occ. eigenvalues --   -0.26986  -0.25991  -0.24891  -0.23135  -0.20114
 Alpha virt. eigenvalues --   -0.02486   0.01013   0.01442   0.02429   0.04136
 Alpha virt. eigenvalues --    0.04848   0.05658   0.06459   0.07413   0.07514
 Alpha virt. eigenvalues --    0.08846   0.09832   0.10899   0.12274   0.13543
 Alpha virt. eigenvalues --    0.13999   0.15216   0.15558   0.15742   0.16704
[...]
 033706,0.00002551,-0.00005509,0.00000583,0.00004153,0.00000063,0.00006
 176,-0.00002062,0.00001037,-0.02554447,0.01465152,0.00640506,-0.000146
 97,-0.00001243,-0.00001436,-0.00000216,-0.00000434,-0.00000188,0.00041
 447,0.00051722,-0.00028858,0.00004171,0.00007636,0.00000970,0.00001390
 ,0.00002866,0.00000243,-0.00000973,0.00003935,-0.00000239,-0.00001515,
 0.00002129,-0.00000466,-0.00001259,0.00001636,-0.00000673,-0.00002073,
 0.00000034,-0.00000953,-0.00001373,-0.00001650,-0.00000608,-0.00001427
 ,-0.00002349,-0.00000371,-0.00000929,-0.00003761,-0.00000249,0.0000157
 9,-0.00003661,-0.00000449,0.00004303,-0.00006971,0.00000688,0.00042056
 ,-0.00048687,-0.00028793,0.26273310,-0.00000418,-0.00000828,-0.0000009
 6,-0.00002838,0.00000235,0.00000447,-0.00001249,-0.00010115,-0.0000080
 9,-0.00093507,-0.00236189,0.00001949,-0.00078844,-0.03365989,0.0002946
 9,-0.00052089,-0.00003207,0.00011162,-0.02867327,-0.00759659,0.0054609
 4,-0.00000023,-0.00000012,0.00000136,0.00000159,0.00000009,0.00000110,
 -0.00000303,0.00000007,0.00000224,-0.00000065,-0.00000290,-0.00000011,
 0.00000025,0.00000232,0.00000011,0.00000680,-0.00000600,-0.00000535,0.
 00000071,0.00000534,0.00000012,-0.00000222,-0.00000007,-0.00000131,-0.
 00000875,0.00000451,0.00000805,-0.00001125,-0.00000543,-0.00000065,-0.
 00000020,-0.00000171,-0.00000065,0.00095192,-0.00233232,-0.00027052,0.
 00001841,-0.00008673,0.00000794,0.00000553,-0.00001311,-0.00000063,0.0
 0000030,0.00000168,0.00000039,0.00000188,-0.00000182,0.00000133,0.0000
 0753,-0.00008292,-0.00000602,-0.00000072,-0.00000565,0.00000234,0.0000
 0736,-0.00000272,0.00000202,0.02845240,-0.00713429,-0.00587648,0.00050
 936,-0.00002108,-0.00011515,0.00002829,0.00000087,-0.00001001,0.000868
 81,-0.00031872,-0.00015954,0.00002598,0.00005761,-0.00001046,0.0000043
 6,0.00000871,-0.00000039,0.00000066,0.00000558,-0.00000007,-0.00000125
 ,0.00000177,-0.00000047,-0.00000026,0.00000025,-0.00000025,-0.00000007
 ,0.00000024,-0.00000007,0.00000027,0.00000015,0.00000016,0.00000102,0.
 00000155,-0.00000001,-0.00000104,0.00000464,0.00000042,-0.00000427,0.0
 0000946,0.00000142,-0.00002583,0.00005563,0.00000838,-0.00086290,-0.00
 033541,0.00018399,0.00099471,0.05394526,-0.00000459,-0.00000501,0.0000
 0448,0.00000079,-0.00000188,-0.00000057,-0.00005343,0.00002920,-0.0001
 7710,0.00105454,-0.00001141,0.00458265,0.03398527,0.00040279,-0.047111
 72,0.00002502,0.00002962,-0.00024855,0.00551262,0.00262419,0.00465819,
 -0.00000687,-0.00000627,-0.00000817,-0.00000051,-0.00000473,-0.0000024
 6,0.00000454,0.00000539,0.00000552,-0.00000743,0.00000010,-0.00000492,
 -0.00000471,0.00000118,-0.00000439,0.00001504,-0.00005043,-0.00000539,
 0.00000020,-0.00000433,-0.00000454,-0.00000115,0.00000401,-0.00000310,
 -0.00008056,0.00005884,-0.00048065,0.00005593,0.00003876,0.00004138,-0
 .00000143,0.00000812,-0.00000381,0.00112109,-0.00027861,0.00483735,-0.
 00004926,-0.00005634,-0.00020359,-0.00000293,0.00000792,0.00000108,-0.
 00000534,-0.00002465,0.00000924,-0.00000510,-0.00000376,-0.00000271,-0
 .00008135,0.00004103,0.00008328,-0.00001154,-0.00001249,-0.00001626,-0
 .00000817,-0.00000146,-0.00000672,0.00667042,-0.00317459,0.00428203,0.
 00001284,-0.00000135,-0.00024239,0.00000101,0.00000803,0.00000705,-0.0
 0030345,-0.00009242,-0.00103958,0.00000686,-0.00000832,0.00008737,-0.0
 0000170,-0.00000527,0.00000818,0.00000282,-0.00000813,0.00000293,0.000
 00248,-0.00000555,0.00000469,0.00000183,-0.00000456,0.00000334,0.00000
 473,-0.00000009,0.00000406,0.00000201,0.00000448,0.00000310,0.00000274
 ,0.00000532,0.00000403,0.00000264,0.00000745,0.00000347,-0.00000315,0.
 00000743,0.00000874,0.00000224,0.00000778,0.00008207,-0.00031059,0.000
 10904,-0.00094958,-0.04752371,0.00035168,0.03175160,0.00079512,-0.0001
 8035,-0.00024426,-0.00022307,0.00050157,0.00017295,-0.00133765,-0.0007
 8554,0.00033939,-0.00004226,0.00014496,0.00008362,-0.00010567,0.000008
 38,0.00002881,-0.00079062,0.00072995,0.00015677,-0.00016594,0.00001150
 ,0.00004133,-0.00079871,-0.00065756,-0.00027937,-0.00003700,-0.0014471
 5,-0.00106477,0.00556104,0.00446305,0.00208792,-0.01460153,-0.01243100
 ,-0.01162520,-0.00064253,0.00009489,-0.00054119,-0.03342237,0.02185247
 ,0.03232799,-0.05476096,0.00646369,-0.05215836,0.00070990,0.00111393,-
 0.00126587,-0.00049916,0.00032930,0.00105698,-0.02701994,-0.02037659,0
 .02371903,0.00017156,0.00052596,-0.00001902,-0.00009619,-0.00008077,0.
 00006009,-0.00196039,0.00056867,0.00029593,0.00100207,-0.00051162,-0.0
 0057574,-0.01629204,0.01270963,0.00887500,-0.01164659,0.01154545,-0.01
 062524,-0.00061263,-0.00017859,0.00029438,-0.01038789,-0.01155474,0.00
 341179,0.00241051,-0.00139119,0.00140244,-0.00014182,-0.00008882,0.000
 02108,-0.00043780,-0.00079273,0.00025779,-0.00006388,-0.00019410,0.000
 01829,0.00003820,0.00007007,-0.00000302,-0.00005136,0.00012741,0.00002
 092,0.00001695,-0.00002027,0.00009895,-0.00009697,0.00000947,0.0000837
 9,-0.00014100,0.00004778,0.00007917,-0.00025263,0.00002135,0.00002536,
 0.00005475,-0.00001256,0.00015857,-0.00027952,-0.00000107,-0.00000616,
 -0.00016329,-0.00015359,-0.00000196,-0.00006397,-0.00010686,0.00007464
 ,0.00010927,-0.00013837,0.00003000,-0.00006268,-0.00010398,0.00001442,
 0.00004338,-0.00005421,-0.00000683,0.00007770,-0.00000144,-0.00001091,
 0.17154350,-0.00072552,-0.00245054,-0.00083255,0.00029916,-0.00048668,
 -0.00024858,0.00031653,0.00122929,-0.00084430,-0.00005272,0.00012385,-
 0.00000571,0.00000146,-0.00008877,-0.00000352,0.00011808,-0.00018724,-
 0.00003392,0.00010484,0.00007330,-0.00003414,-0.00054430,-0.00171791,-
 0.00041887,-0.00111656,-0.00085826,-0.00086650,0.00066492,-0.02424237,
 -0.01105576,-0.01004287,-0.00047841,-0.00637151,0.00010426,0.00037610,
 0.00004798,0.03225611,-0.04284386,-0.03733439,0.00112015,-0.00863912,0
 .00682290,0.00072047,-0.00119911,0.00018718,-0.00046460,-0.00000104,0.
 00053349,-0.02659600,-0.04780486,0.03635027,0.00056522,-0.00133722,0.0
 0154788,0.00012576,-0.00012535,-0.00001706,-0.00092653,0.00080066,-0.0
 0068480,0.00112888,-0.00210885,0.00021533,0.01102901,-0.00027217,-0.00
 399906,0.01179312,-0.00098154,0.00771763,0.00024784,-0.00003007,0.0000
 8585,-0.00852490,-0.00322607,0.00381712,-0.00301365,-0.01761911,0.0045
 0285,-0.00012082,0.00007853,-0.00000092,-0.00046332,-0.00002768,0.0001
 0975,-0.00007000,-0.00036744,-0.00004477,-0.00001591,-0.00003490,0.000
 01441,-0.00003731,-0.00002000,0.00008154,0.00002140,0.00004815,0.00010
 609,-0.00026318,-0.00031746,0.00008431,-0.00011026,-0.00013062,0.00019
 765,0.00031880,0.00007593,0.00009805,-0.00009111,0.00001150,0.00000744
 ,-0.00024182,0.00002239,-0.00000026,-0.00010097,-0.00020526,0.00004318
 ,0.00025704,-0.00027104,0.00003176,-0.00003902,0.00003904,0.00003684,0
 .00001875,0.00004573,0.00003363,-0.00001916,0.00002658,0.00000454,-0.0
 0003500,0.00000170,0.00001317,0.00624807,0.17359517,-0.00199841,-0.002
 14768,0.00197770,0.00071499,-0.00040202,0.00014556,0.00159739,0.001300
 46,0.00232216,0.00004162,-0.00003699,-0.00004189,0.00029609,-0.0000693
 3,-0.00003980,0.00074088,-0.00127769,-0.00005582,0.00026165,-0.0001724
 9,0.00001847,-0.00091431,-0.00119511,-0.00057784,-0.00129499,-0.002776
 96,0.00235006,0.00530366,-0.01504353,-0.00467768,-0.01712171,-0.006802
 24,-0.00912782,-0.00081452,0.00033649,-0.00017685,0.02387015,-0.009758
 26,-0.04633792,-0.02179117,0.01350366,-0.06534165,-0.00134246,0.003030
 33,0.00229862,-0.00092233,-0.00043587,-0.00054925,-0.00628794,-0.01133
 757,-0.02529585,-0.00037560,0.00035028,-0.00096978,0.00008367,-0.00000
 541,-0.00000583,0.00217946,-0.00072505,-0.00061698,-0.00205472,0.00245
 494,-0.00094559,0.00842062,-0.01085337,-0.00437038,-0.01694214,0.00590
 063,-0.00994711,0.00035573,0.00007186,-0.00002997,0.00370050,0.0096234
 7,0.00088023,0.00691281,0.00913095,0.00101941,0.00017265,0.00015441,0.
 00003056,0.00045345,0.00112672,-0.00022827,0.00039907,0.00068333,-0.00
 008763,-0.00020216,-0.00026535,0.00001055,-0.00011534,-0.00043063,0.00
 003809,-0.00022833,-0.00050009,0.00015426,0.00072912,-0.00005018,0.000
 00562,0.00038185,-0.00065477,-0.00008660,-0.00017881,-0.00068592,-0.00
 031583,0.00096428,-0.00006479,-0.00012953,-0.00005331,0.00068852,-0.00
 029728,0.00040222,0.00062882,-0.00041093,0.00065721,0.00015404,-0.0002
 7127,-0.00032342,0.00054347,-0.00034779,-0.00009227,0.00045856,-0.0001
 0818,-0.00020959,0.00030480,0.00000065,-0.00035457,-0.00000126,0.00004
 072,0.01846636,0.02253212,0.15994490,-0.00019754,-0.00012408,-0.000151
 91,-0.00002671,0.00004182,0.00001706,0.00003087,0.00008829,-0.00001744
 ,0.00000807,-0.00005167,0.00001231,-0.00004278,0.00008160,0.00000475,-
 0.00000713,-0.00002308,0.00001343,-0.00005966,-0.00000633,0.00002761,0
 .00007128,0.00032173,0.00008474,-0.00009893,0.00012555,0.00009131,0.00
 062298,-0.00028556,0.00014937,0.00019454,-0.00075768,0.00077757,0.0000
 0692,0.00005796,0.00000942,-0.00274973,0.00101125,0.00127956,0.0003734
 9,0.00007545,-0.00161684,-0.00009965,-0.00014697,-0.00015724,-0.001044
 38,0.00033267,0.00071570,-0.01949597,-0.00644861,-0.02315976,-0.001915
 25,-0.00055488,-0.00023411,-0.00014728,0.00008173,0.00004553,-0.001803
 53,-0.00057191,0.00093372,0.00048173,0.00023283,-0.00051973,-0.0006251
 1,-0.00032182,0.00019280,0.00077147,0.00097419,0.00015934,-0.00014685,
 0.00028499,-0.00034301,-0.00221281,0.00412064,0.01607994,0.00114738,0.
 00355293,-0.00962193,0.00010688,-0.00010309,-0.00002428,0.00002179,-0.
 00034817,-0.00029938,-0.00026826,-0.00008077,-0.00001350,0.00000792,0.
 00002797,0.00002198,0.00000941,0.00005318,0.00012289,0.00005011,0.0001
 0976,0.00019261,-0.00000182,-0.00000552,-0.00000243,-0.00006442,0.0002
 2811,0.00013507,-0.00002003,0.00005378,0.00004008,-0.00005789,0.000005
 25,-0.00002350,0.00003168,-0.00006639,-0.00006964,-0.00003757,-0.00002
 530,-0.00003908,0.00004350,-0.00004675,-0.00000150,0.00000520,-0.00000
 839,0.00000859,0.00001162,-0.00000424,-0.00002400,0.00000186,-0.000005
 69,0.00000373,0.00001726,0.00000187,0.00000011,-0.00431840,-0.01461283
 ,-0.00515898,0.12351625,0.00026753,-0.00003127,0.00016318,-0.00023236,
 -0.00001881,0.00004183,0.00023944,0.00007756,-0.00019117,-0.00008787,0
 .00002892,-0.00001364,-0.00005604,-0.00010631,-0.00000320,-0.00018566,
 0.00007024,0.00002836,0.00002631,0.00003388,-0.00002828,0.00044382,0.0
 0041233,0.00026589,-0.00006780,-0.00007560,-0.00010649,-0.00131520,0.0
 0038772,0.00078747,0.00009351,0.00019542,0.00084416,0.00005844,-0.0001
 4359,0.00006917,0.00151598,0.00193554,0.00110514,0.00209217,0.00078758
 ,0.00306960,0.00019066,0.00006489,-0.00013052,0.00060230,-0.00177460,0
 .00048940,-0.00890154,-0.03670415,-0.04403309,0.00022188,-0.00121241,0
 .00125198,0.00019869,-0.00003645,0.00001104,-0.00023304,0.00073605,-0.
 00063098,0.00081088,-0.00138882,-0.00024862,0.00072140,0.00090006,-0.0
 0028512,0.00003710,-0.00006503,-0.00004386,-0.00003656,-0.00001965,0.0
 0006553,0.00072022,0.00606750,-0.00293575,0.00654422,0.00360203,0.0127
 5437,-0.00017842,-0.00007721,-0.00003765,-0.00033267,-0.00010066,-0.00
 000387,-0.00037527,-0.00020177,-0.00000210,0.00002767,0.00007839,0.000
 04012,0.00003161,0.00011280,0.00013699,0.00003975,0.00005539,0.0003724
 3,-0.00005230,0.00006131,0.00044638,0.00034753,0.00006718,-0.00033039,
 -0.00005347,0.00006113,0.00002039,-0.00005799,0.00000429,-0.00001011,0
 .00000719,-0.00001261,-0.00009749,-0.00001726,-0.00009016,-0.00009285,
 -0.00006258,-0.00000964,-0.00007845,0.00005069,-0.00007738,-0.00001853
 ,0.00003498,-0.00004430,0.00002288,0.00002246,-0.00001469,0.00001101,0
 .00004966,0.00000168,0.00001137,-0.01644266,-0.02023620,-0.01199791,0.
 19129406,0.40441407,-0.00005616,-0.00007901,-0.00021215,-0.00008588,0.
 00007210,-0.00000993,0.00009289,0.00001056,-0.00009921,-0.00030447,-0.
 00016462,0.00003217,0.00000410,-0.00036575,-0.00001816,-0.00004657,0.0
 0014616,-0.00004615,0.00014962,0.00022206,-0.00006182,0.00025667,0.000
 16705,0.00068511,0.00014453,-0.00029323,-0.00015016,0.00049300,-0.0003
 6144,0.00003478,-0.00078989,0.00089812,-0.00045023,0.00012700,0.000210
 40,0.00000714,-0.00375678,0.00045179,0.00163431,0.00181892,-0.00369090
 ,0.00282855,-0.00027556,0.00008204,-0.00023429,0.00025168,-0.00321242,
 -0.00049644,-0.00127886,-0.00527962,-0.18057140,-0.00387219,-0.0025408
 4,-0.00112579,0.00084577,0.00004156,-0.00012355,0.00044932,0.00281719,
 -0.00126303,-0.00072393,-0.00045036,-0.00112342,-0.00043312,0.00036718
 ,0.00011922,0.00069314,-0.00004888,0.00015168,-0.00030985,-0.00004833,
 0.00037765,0.02238290,-0.00804332,-0.02678606,-0.01547848,0.01657561,-
 0.02703273,-0.00054025,0.00021018,0.00004085,-0.00040873,-0.00028284,-
 0.00007602,0.00156425,-0.00012839,-0.00083388,0.00005111,0.00008570,0.
 00003746,-0.00000364,0.00019664,0.00009202,0.00010967,0.00018019,0.000
 24627,-0.00024592,-0.00004734,0.00005770,-0.00004255,0.00042065,0.0003
 6709,-0.00005861,-0.00000477,-0.00006387,-0.00000105,0.00001111,0.0000
 3373,-0.00012921,0.00000961,0.00003442,0.00000138,-0.00003122,-0.00005
 968,0.00003818,-0.00007680,0.00003633,0.00001357,-0.00001050,0.0000336
 5,0.00004423,-0.00005325,0.00001357,0.00002630,-0.00005773,0.00001143,
 0.00008034,0.00000952,0.00000887,-0.01248315,-0.01891599,-0.00068075,0
 .22510448,0.45066076,0.75440346,0.00006669,0.00001625,0.00001641,0.000
 04316,-0.00003334,-0.00001330,-0.00000633,-0.00009940,0.00000542,-0.00
 000626,0.00001750,-0.00001076,0.00002442,-0.00002609,0.00000561,-0.000
 02660,-0.00000734,0.00001166,0.00002369,0.00002502,0.00001390,0.000002
 57,-0.00015336,-0.00004638,0.00009859,-0.00012705,-0.00004170,-0.00010
 655,-0.00008026,0.00001017,-0.00050958,0.00039977,-0.00042981,0.000005
 98,0.00008504,-0.00001200,0.00066869,-0.00134757,-0.00155952,-0.000561
 83,-0.00135263,-0.00023539,-0.00003986,-0.00000596,0.00002632,0.000147
 62,-0.00034347,0.00003642,0.00460276,0.00308982,-0.00592187,0.00057415
 ,0.00053335,-0.00007008,0.00010454,-0.00002789,-0.00005494,0.00005646,
 0.00028412,0.00020169,0.00005971,-0.00021520,0.00013984,0.00006506,0.0
 0027780,0.00006987,-0.00011397,-0.00055045,0.00005895,0.00000455,-0.00
 002393,0.00002643,-0.00219249,0.00011200,0.00189026,-0.00208793,-0.000
 71203,-0.00235772,-0.00004051,0.00007570,0.00005752,-0.00000563,0.0001
 2326,0.00015332,0.00016028,-0.00005244,0.00026639,-0.00001617,-0.00003
 889,-0.00003423,-0.00003325,-0.00005863,-0.00010216,-0.00005715,-0.000
 08589,-0.00015615,-0.00003655,-0.00005110,-0.00002467,-0.00008464,-0.0
 0005552,0.00006595,0.00001842,-0.00004771,-0.00001566,0.00004533,-0.00
 000235,0.00002344,-0.00002694,0.00003893,0.00002998,0.00001674,0.00001
 805,0.00002259,-0.00000511,0.00001661,0.00001125,-0.00001778,0.0000247
 8,0.00000161,-0.00001844,0.00001212,-0.00000208,-0.00000971,0.00000258
 ,-0.00001222,-0.00001998,-0.00000191,-0.00001197,-0.00102692,0.0007788
 1,0.00167515,-0.09210334,-0.17800210,-0.21338872,0.09237182,-0.0001292
 1,-0.00003489,-0.00012362,0.00016870,-0.00002064,-0.00003220,-0.000075
 64,-0.00015987,0.00008179,0.00008249,0.00000917,-0.00000993,0.00001998
 ,0.00008515,0.00001345,-0.00001344,-0.00005161,0.00001649,-0.00004088,
 0.00001110,0.00003794,-0.00002278,-0.00030385,-0.00014062,0.00014565,-
 0.00011913,0.00000530,0.00065606,-0.00069441,-0.00030297,-0.00089618,0
 .00034373,-0.00057127,-0.00000136,0.00025670,-0.00004035,-0.00120307,-
 0.00302655,-0.00274472,-0.00184674,-0.00296124,-0.00287703,-0.00023003
 ,-0.00014600,-0.00003055,-0.00000264,0.00051839,-0.00037248,0.00586242
 ,0.01032662,-0.01009300,-0.00015933,0.00031189,-0.00025182,-0.00007770
 ,-0.00000837,-0.00004225,-0.00045922,-0.00016129,0.00040127,0.00023140
 ,-0.00027039,0.00100270,-0.00059580,-0.00006845,0.00033308,0.00026784,
 -0.00033738,0.00038496,0.00008333,0.00005000,0.00005145,-0.00019863,-0
 .00263812,-0.00128496,-0.00089399,-0.00292515,0.00117737,0.00010566,0.
 00006857,0.00004315,0.00011726,0.00006990,0.00019476,0.00011376,0.0000
 0929,0.00043407,-0.00002865,-0.00007505,-0.00004500,-0.00004530,-0.000
 11127,-0.00013521,-0.00004122,-0.00010057,-0.00029123,-0.00002904,-0.0
 0015827,-0.00034541,-0.00004003,-0.00005892,-0.00002832,0.00004592,-0.
 00010521,-0.00000606,0.00008330,-0.00000523,0.00003987,-0.00002974,0.0
 0004188,0.00004893,0.00001777,0.00004942,0.00005989,0.00004195,-0.0000
 0030,0.00005332,-0.00004465,0.00006714,0.00001694,-0.00003670,0.000030
 02,-0.00002356,-0.00002140,0.00000364,-0.00001713,-0.00003709,-0.00000
 212,-0.00001571,0.00011832,0.00176361,0.00470127,-0.17851794,-0.357765
 15,-0.42964215,0.17755959,0.35832958,0.00003578,0.00001042,0.,0.000084
 30,-0.00005289,-0.00000172,-0.00008050,-0.00011579,0.00002240,0.000089
 55,0.00005961,-0.00001491,0.00004095,0.00008172,0.00000893,0.00000689,
 -0.00006641,0.00003508,-0.00001329,-0.00005022,0.00003068,-0.00009618,
 -0.00018696,-0.00024683,-0.00005680,0.00005746,-0.00002151,0.00000746,
 -0.00021238,-0.00000409,-0.00018752,-0.00011790,0.00001280,-0.00006721
 ,-0.00002901,-0.00002060,0.00109310,-0.00241153,-0.00221921,-0.0023536
 1,-0.00060018,-0.00262346,0.00002329,-0.00012500,0.00004268,0.00020600
 ,0.00071094,-0.00013806,-0.00915661,-0.01933861,-0.05189796,0.00055133
 ,0.00111106,0.00004702,-0.00013484,-0.00004638,-0.00002017,-0.00004666
 ,-0.00043373,-0.00019132,0.00011188,0.00026411,-0.00015608,0.00004385,
 0.00018619,0.00009495,0.00008562,0.00013964,0.00006535,0.00015212,-0.0
 0000398,0.00005850,-0.00198265,-0.00129350,-0.00148994,-0.00053333,-0.
 00307032,-0.00113412,0.00012248,0.00001066,0.00002547,0.00011678,0.000
 12603,0.00021598,-0.00002001,0.00029939,-0.00002100,-0.00004172,-0.000
 07179,-0.00003726,-0.00004605,-0.00011450,-0.00008557,-0.00006841,-0.0
 0013277,-0.00013992,0.00005994,-0.00012399,-0.00011800,-0.00007116,-0.
 00016765,0.00007802,0.00006245,-0.00005525,0.00002651,0.00005222,-0.00
 000735,0.00001587,0.00004774,0.00003310,0.00000411,0.00001262,0.000035
 63,0.00003566,-0.00000046,0.00004063,0.00000386,-0.00002910,0.00004181
 ,-0.00000481,-0.00004240,0.00004295,-0.00001775,-0.00002782,0.00003366
 ,-0.00001687,-0.00006214,-0.00000525,-0.00001025,-0.00279055,-0.003517
 69,0.00082509,-0.20485252,-0.41131581,-0.51981995,0.21974605,0.4403756
 2,0.57887670||0.00000542,-0.00000125,-0.00000026,-0.00000541,0.0000009
 8,0.00000027,0.00000626,-0.00000381,-0.00000146,0.00000237,0.00000317,
 -0.00000040,0.00000041,0.00000899,0.00000040,-0.00000835,-0.00000130,0
 .00000181,-0.00000425,-0.00000684,0.00000060,0.00001064,-0.00000192,-0
 .00000076,-0.00000336,0.00000013,-0.00000125,-0.00001495,0.00000808,0.
 00000006,-0.00000134,-0.00000319,0.00000106,-0.00000180,-0.00000483,-0
 .00000099,0.00001291,0.00000536,0.00000448,-0.00001726,-0.00000585,-0.
 00000804,0.00000237,0.00000583,0.00000195,-0.00000714,0.00000553,-0.00
 000445,-0.00000415,0.00000998,-0.00001107,0.00000873,-0.00000139,0.000
 00653,-0.00000935,-0.00000375,0.00000232,-0.00000577,-0.00000034,0.000
 00378,0.00000565,0.00000360,0.00000081,-0.00000014,-0.00001094,-0.0000
 0400,0.00000107,0.00000123,-0.00000390,0.00000843,0.00000073,-0.000002
 54,0.00002800,-0.00000203,-0.00000569,-0.00000939,0.00000077,-0.000003
 48,0.00000825,-0.00000363,-0.00000238,0.00000504,0.00000565,-0.0000020
 0,-0.00000232,0.00000359,-0.00000126,-0.00000102,0.00000060,0.00000040
 ,-0.00000135,-0.00000150,0.00000094,0.,-0.00000012,0.00000120,-0.00000
 060,-0.00000208,0.00000096,-0.00000013,0.00000198,-0.00000253,0.000000
 09,-0.00000108,-0.00000232,-0.00000017,0.00000092,0.00000058,0.0000003
 5,0.00000036,0.00000279,0.00000054,0.00000031,-0.00000285,-0.00000049,
 0.00000015,0.00000124,0.00000003,0.00000046,-0.00000015,0.00000089,-0.
 00000041,0.00000043,0.00000074,0.00000097,-0.00000029,0.00000030,-0.00
 000129,-0.00000058,-0.00000448,-0.00001556,0.00001676,-0.00000710,0.00
 000137,0.00001806,0.00000181,0.00000236,-0.00000480|||@


 THE ONLY DIFFERENCE BETWEEN ECCENTRICS AND JOGGERS
 IS THAT JOGGERS WEAR SWEATBANDS WHEN THEY RUN IN THE RAIN.
 Job cpu time:       0 days  0 hours  0 minutes 28.0 seconds.
 File lengths (MBytes):  RWF=    857 Int=      0 D2E=      0 Chk=      6 Scr=      1
 Normal termination of Gaussian 09 at Thu Mar 12 10:51:18 2026.
