 Entering Link 1 = C:\Gaussian\G09W\l1.exe PID=     22612.
  
 Copyright (c) 1988,1990,1992,1993,1995,1998,2003,2009,2013,
            Gaussian, Inc.  All Rights Reserved.
  
 This is part of the Gaussian(R) 09 program.  It is based on
 the Gaussian(R) 03 system (copyright 2003, Gaussian, Inc.),
 the Gaussian(R) 98 system (copyright 1998, Gaussian, Inc.),
 the Gaussian(R) 94 system (copyright 1995, Gaussian, Inc.),
 the Gaussian 92(TM) system (copyright 1992, Gaussian, Inc.),
 the Gaussian 90(TM) system (copyright 1990, Gaussian, Inc.),
 the Gaussian 88(TM) system (copyright 1988, Gaussian, Inc.),
 the Gaussian 86(TM) system (copyright 1986, Carnegie Mellon
 University), and the Gaussian 82(TM) system (copyright 1983,
 Carnegie Mellon University). Gaussian is a federally registered
 trademark of Gaussian, Inc.
  
 This software contains proprietary and confidential information,
 including trade secrets, belonging to Gaussian, Inc.
  
 This software is provided under written license and may be
 used, copied, transmitted, or stored only in accord with that
 written license.
  
 The following legend is applicable only to US Government
 contracts under FAR:
  
                    RESTRICTED RIGHTS LEGEND
  
 Use, reproduction and disclosure by the US Government is
 subject to restrictions as set forth in subparagraphs (a)
 and (c) of the Commercial Computer Software - Restricted
 Rights clause in FAR 52.227-19.
  
 Gaussian, Inc.
 340 Quinnipiac St., Bldg. 40, Wallingford CT 06492
  
  
 ---------------------------------------------------------------
 Warning -- This program may not be used in any manner that
 competes with the business of Gaussian, Inc. or will provide
 assistance to any competitor of Gaussian, Inc.  The licensee
 of this program is prohibited from giving any competitor of
 Gaussian, Inc. access to this program.  By using this program,
 the user acknowledges that Gaussian, Inc. is engaged in the
 business of creating and licensing software in the field of
 computational chemistry and represents and warrants to the
 licensee that it is not a competitor of Gaussian, Inc. and that
 it will not use this program in any manner prohibited above.
 ---------------------------------------------------------------
  

 Cite this work as:
 Gaussian 09, Revision D.01,
 M. J. Frisch, G. W. Trucks, H. B. Schlegel, G. E. Scuseria, 
 M. A. Robb, J. R. Cheeseman, G. Scalmani, V. Barone, B. Mennucci, 
 G. A. Petersson, H. Nakatsuji, M. Caricato, X. Li, H. P. Hratchian, 
 A. F. Izmaylov, J. Bloino, G. Zheng, J. L. Sonnenberg, M. Hada, 
 M. Ehara, K. Toyota, R. Fukuda, J. Hasegawa, M. Ishida, T. Nakajima, 
 Y. Honda, O. Kitao, H. Nakai, T. Vreven, J. A. Montgomery, Jr., 
 J. E. Peralta, F. Ogliaro, M. Bearpark, J. J. Heyd, E. Brothers, 
 K. N. Kudin, V. N. Staroverov, T. Keith, R. Kobayashi, J. Normand, 
 K. Raghavachari, A. Rendell, J. C. Burant, S. S. Iyengar, J. Tomasi, 
 M. Cossi, N. Rega, J. M. Millam, M. Klene, J. E. Knox, J. B. Cross, 
 V. Bakken, C. Adamo, J. Jaramillo, R. Gomperts, R. E. Stratmann, 
 O. Yazyev, A. J. Austin, R. Cammi, C. Pomelli, J. W. Ochterski, 
 R. L. Martin, K. Morokuma, V. G. Zakrzewski, G. A. Voth, 
 P. Salvador, J. J. Dannenberg, S. Dapprich, A. D. Daniels, 
 O. Farkas, J. B. Foresman, J. V. Ortiz, J. Cioslowski, 
 and D. J. Fox, Gaussian, Inc., Wallingford CT, 2013.
 
 ******************************************
 Gaussian 09:  IA32W-G09RevD.01 24-Apr-2013
                14-Mar-2026 
 ******************************************
 %chk=C:\Users\User\Desktop\IMRG\ECE+ML\Rh_Gr_NS_NO.chk
 ---------------------------------------
 # opt freq pm6 scf=qc geom=connectivity
 ---------------------------------------
 1/14=-1,18=20,19=15,26=1,38=1,57=2/1,3;
 2/9=110,12=2,17=6,18=5,40=1/2;
 3/5=2,16=1,25=1,41=3900000,71=1/1,2,3;
 4/35=1/1;
 5/5=2,8=3,35=1,38=5/8;
 6/7=2,8=2,9=2,10=2,28=1/1;
 7//1,2,3,16;
 1/14=-1,18=20,19=15,26=1/3(2);
 2/9=110/2;
 99//99;
 2/9=110/2;
 3/5=2,16=1,25=1,41=3900000,71=1,135=20/1,2,3;
 4/5=5,16=3,35=1/1;
 5/5=2,8=3,35=1,38=5/8;
 7//1,2,3,16;
 1/14=-1,18=20,19=15,26=1/3(-5);
 2/9=110/2;
 6/7=2,8=2,9=2,10=2,19=2,28=1/1;
 99/9=1/99;
 -----------
 Rh_Gr_NS_NO
 -----------
 Symbolic Z-matrix:
 Charge =  0 Multiplicity = 1
 C                    -1.48734   1.25527   0. 
 C                    -0.11458   1.26757   0.00021 
 C                     0.63784   2.49562   0.00024 
 C                     2.76155   3.73782  -0.0001 
 C                     4.87637   4.98541  -0.00058 
 C                     2.0603    2.51615  -0.00001 
 C                     4.19236   3.77104  -0.00038 
 C                    -3.68033   2.52318  -0.00036 
 C                    -5.85442   3.76459  -0.00032 
 C                    -2.22717   2.49171  -0.00016 
 C                    -4.4314    3.73294  -0.00038 
 C                    -6.52317   4.98925  -0.00022 
 C                    -1.49723   3.66543   0.00004 
 C                    -3.77063   4.98776  -0.00006 
 C                    -5.83173   6.21539  -0.00016 
 C                     0.61876   4.98443   0.00024 
 C                    -1.48853   6.30241   0.00019 
 C                    -3.64606   7.47395  -0.00004 
 C                     2.76334   6.23383  -0.00007 
 C                     0.64426   7.4887    0.0001 
 C                    -1.48605   8.7395   -0.00011 
 C                    -0.07268   3.72258   0.00025 
 C                    -4.42338   6.2256   -0.00018 
 C                     2.03942   4.98572   0.00009 
 C                    -0.08682   6.24592   0.00026 
 C                    -2.24783   7.50962   0.00012 
 C                     4.18329   6.20584  -0.00024 
 C                     2.05117   7.46407  -0.0001 
 C                    -0.10808   8.71832  -0.00011 
 H                     4.73683   7.14171  -0.00013 
 H                     2.60821   8.39816  -0.00027 
 H                     0.45062   9.65387  -0.00038 
 H                    -2.02415   9.68484  -0.0001 
 H                    -4.21082   8.4023   -0.00019 
 H                    -6.39162   7.1481   -0.0001 
 H                    -7.61353   5.00188  -0.00006 
 H                    -6.41745   2.83421  -0.00027 
 H                    -4.20834   1.57407  -0.00036 
 H                    -2.035     0.31468   0.00008 
 H                     0.44259   0.33017   0.00001 
 H                     2.60785   1.57708  -0.00018 
 H                     4.74181   2.8329   -0.00058 
 H                     5.96597   4.99136  -0.0008 
 Rh                   -2.25175   4.98582   0.00002 
 N                    -0.95009   4.98439   0.93329 
 O                    -0.95009   4.98439   2.06802 
 
 Add virtual bond connecting atoms N45        and C13        Dist= 3.22D+00.
 Add virtual bond connecting atoms N45        and C17        Dist= 3.22D+00.
 Add virtual bond connecting atoms N45        and Rh44       Dist= 3.03D+00.

 GradGradGradGradGradGradGradGradGradGradGradGradGradGradGradGradGradGrad
 Berny optimization.
 Initialization pass.
                           ----------------------------
                           !    Initial Parameters    !
                           ! (Angstroms and Degrees)  !
 --------------------------                            --------------------------
 ! Name  Definition              Value          Derivative Info.                !
 --------------------------------------------------------------------------------
 ! R1    R(1,2)                  1.3728         estimate D2E/DX2                !
 ! R2    R(1,10)                 1.4409         estimate D2E/DX2                !
 ! R3    R(1,39)                 1.0884         estimate D2E/DX2                !
 ! R4    R(2,3)                  1.4402         estimate D2E/DX2                !
 ! R5    R(2,40)                 1.0905         estimate D2E/DX2                !
 ! R6    R(3,6)                  1.4226         estimate D2E/DX2                !
 ! R7    R(3,22)                 1.4178         estimate D2E/DX2                !
 ! R8    R(4,6)                  1.4086         estimate D2E/DX2                !
 ! R9    R(4,7)                  1.4312         estimate D2E/DX2                !
 ! R10   R(4,24)                 1.4418         estimate D2E/DX2                !
 ! R11   R(5,7)                  1.3938         estimate D2E/DX2                !
 ! R12   R(5,27)                 1.4035         estimate D2E/DX2                !
 ! R13   R(5,43)                 1.0896         estimate D2E/DX2                !
 ! R14   R(6,41)                 1.087          estimate D2E/DX2                !
 ! R15   R(7,42)                 1.0872         estimate D2E/DX2                !
 ! R16   R(8,10)                 1.4535         estimate D2E/DX2                !
 ! R17   R(8,11)                 1.4239         estimate D2E/DX2                !
 ! R18   R(8,38)                 1.0861         estimate D2E/DX2                !
 ! R19   R(9,11)                 1.4234         estimate D2E/DX2                !
 ! R20   R(9,12)                 1.3954         estimate D2E/DX2                !
 ! R21   R(9,37)                 1.0875         estimate D2E/DX2                !
 ! R22   R(10,13)                1.3822         estimate D2E/DX2                !
 ! R23   R(11,14)                1.4182         estimate D2E/DX2                !
 ! R24   R(12,15)                1.4077         estimate D2E/DX2                !
 ! R25   R(12,36)                1.0904         estimate D2E/DX2                !
 ! R26   R(13,22)                1.4257         estimate D2E/DX2                !
 ! R27   R(13,44)                1.5208         estimate D2E/DX2                !
 ! R28   R(13,45)                1.7059         estimate D2E/DX2                !
 ! R29   R(14,23)                1.3994         estimate D2E/DX2                !
 ! R30   R(14,44)                1.5189         estimate D2E/DX2                !
 ! R31   R(15,23)                1.4084         estimate D2E/DX2                !
 ! R32   R(15,35)                1.0879         estimate D2E/DX2                !
 ! R33   R(16,22)                1.4389         estimate D2E/DX2                !
 ! R34   R(16,24)                1.4207         estimate D2E/DX2                !
 ! R35   R(16,25)                1.4454         estimate D2E/DX2                !
 ! R36   R(17,25)                1.4028         estimate D2E/DX2                !
 ! R37   R(17,26)                1.4261         estimate D2E/DX2                !
 ! R38   R(17,44)                1.5218         estimate D2E/DX2                !
 ! R39   R(17,45)                1.7023         estimate D2E/DX2                !
 ! R40   R(18,23)                1.4706         estimate D2E/DX2                !
 ! R41   R(18,26)                1.3987         estimate D2E/DX2                !
 ! R42   R(18,34)                1.0866         estimate D2E/DX2                !
 ! R43   R(19,24)                1.4429         estimate D2E/DX2                !
 ! R44   R(19,27)                1.4202         estimate D2E/DX2                !
 ! R45   R(19,28)                1.4215         estimate D2E/DX2                !
 ! R46   R(20,25)                1.4419         estimate D2E/DX2                !
 ! R47   R(20,28)                1.4071         estimate D2E/DX2                !
 ! R48   R(20,29)                1.4415         estimate D2E/DX2                !
 ! R49   R(21,26)                1.4467         estimate D2E/DX2                !
 ! R50   R(21,29)                1.3781         estimate D2E/DX2                !
 ! R51   R(21,33)                1.0878         estimate D2E/DX2                !
 ! R52   R(27,30)                1.0873         estimate D2E/DX2                !
 ! R53   R(28,31)                1.0876         estimate D2E/DX2                !
 ! R54   R(29,32)                1.0897         estimate D2E/DX2                !
 ! R55   R(44,45)                1.6017         estimate D2E/DX2                !
 ! R56   R(45,46)                1.1347         estimate D2E/DX2                !
 ! A1    A(2,1,10)             120.3811         estimate D2E/DX2                !
 ! A2    A(2,1,39)             120.7234         estimate D2E/DX2                !
 ! A3    A(10,1,39)            118.8954         estimate D2E/DX2                !
 ! A4    A(1,2,3)              122.0091         estimate D2E/DX2                !
 ! A5    A(1,2,40)             120.2126         estimate D2E/DX2                !
 ! A6    A(3,2,40)             117.7783         estimate D2E/DX2                !
 ! A7    A(2,3,6)              122.323          estimate D2E/DX2                !
 ! A8    A(2,3,22)             118.4295         estimate D2E/DX2                !
 ! A9    A(6,3,22)             119.2474         estimate D2E/DX2                !
 ! A10   A(6,4,7)              121.1867         estimate D2E/DX2                !
 ! A11   A(6,4,24)             120.0864         estimate D2E/DX2                !
 ! A12   A(7,4,24)             118.7269         estimate D2E/DX2                !
 ! A13   A(7,5,27)             121.017          estimate D2E/DX2                !
 ! A14   A(7,5,43)             119.7036         estimate D2E/DX2                !
 ! A15   A(27,5,43)            119.2794         estimate D2E/DX2                !
 ! A16   A(3,6,4)              120.6839         estimate D2E/DX2                !
 ! A17   A(3,6,41)             119.4183         estimate D2E/DX2                !
 ! A18   A(4,6,41)             119.8978         estimate D2E/DX2                !
 ! A19   A(4,7,5)              120.7208         estimate D2E/DX2                !
 ! A20   A(4,7,42)             119.0266         estimate D2E/DX2                !
 ! A21   A(5,7,42)             120.2526         estimate D2E/DX2                !
 ! A22   A(10,8,11)            123.0746         estimate D2E/DX2                !
 ! A23   A(10,8,38)            117.8469         estimate D2E/DX2                !
 ! A24   A(11,8,38)            119.0785         estimate D2E/DX2                !
 ! A25   A(11,9,12)            119.9113         estimate D2E/DX2                !
 ! A26   A(11,9,37)            119.9067         estimate D2E/DX2                !
 ! A27   A(12,9,37)            120.182          estimate D2E/DX2                !
 ! A28   A(1,10,8)             122.1353         estimate D2E/DX2                !
 ! A29   A(1,10,13)            117.2279         estimate D2E/DX2                !
 ! A30   A(8,10,13)            120.6368         estimate D2E/DX2                !
 ! A31   A(8,11,9)             123.1078         estimate D2E/DX2                !
 ! A32   A(8,11,14)            120.3955         estimate D2E/DX2                !
 ! A33   A(9,11,14)            116.4967         estimate D2E/DX2                !
 ! A34   A(9,12,15)            121.9432         estimate D2E/DX2                !
 ! A35   A(9,12,36)            119.3009         estimate D2E/DX2                !
 ! A36   A(15,12,36)           118.7559         estimate D2E/DX2                !
 ! A37   A(10,13,22)           124.1752         estimate D2E/DX2                !
 ! A38   A(10,13,44)           118.3771         estimate D2E/DX2                !
 ! A39   A(10,13,45)           145.6944         estimate D2E/DX2                !
 ! A40   A(22,13,44)           117.4477         estimate D2E/DX2                !
 ! A41   A(22,13,45)            69.4173         estimate D2E/DX2                !
 ! A42   A(11,14,23)           124.4256         estimate D2E/DX2                !
 ! A43   A(11,14,44)           117.6975         estimate D2E/DX2                !
 ! A44   A(23,14,44)           117.8769         estimate D2E/DX2                !
 ! A45   A(12,15,23)           119.8349         estimate D2E/DX2                !
 ! A46   A(12,15,35)           119.6049         estimate D2E/DX2                !
 ! A47   A(23,15,35)           120.5602         estimate D2E/DX2                !
 ! A48   A(22,16,24)           118.7733         estimate D2E/DX2                !
 ! A49   A(22,16,25)           122.0594         estimate D2E/DX2                !
 ! A50   A(24,16,25)           119.1674         estimate D2E/DX2                !
 ! A51   A(25,17,26)           124.4765         estimate D2E/DX2                !
 ! A52   A(25,17,44)           117.7927         estimate D2E/DX2                !
 ! A53   A(25,17,45)            69.6805         estimate D2E/DX2                !
 ! A54   A(26,17,44)           117.7308         estimate D2E/DX2                !
 ! A55   A(26,17,45)           145.4703         estimate D2E/DX2                !
 ! A56   A(23,18,26)           123.3713         estimate D2E/DX2                !
 ! A57   A(23,18,34)           116.7761         estimate D2E/DX2                !
 ! A58   A(26,18,34)           119.8525         estimate D2E/DX2                !
 ! A59   A(24,19,27)           118.9848         estimate D2E/DX2                !
 ! A60   A(24,19,28)           119.8195         estimate D2E/DX2                !
 ! A61   A(27,19,28)           121.1957         estimate D2E/DX2                !
 ! A62   A(25,20,28)           119.4641         estimate D2E/DX2                !
 ! A63   A(25,20,29)           118.073          estimate D2E/DX2                !
 ! A64   A(28,20,29)           122.4629         estimate D2E/DX2                !
 ! A65   A(26,21,29)           120.8936         estimate D2E/DX2                !
 ! A66   A(26,21,33)           118.5771         estimate D2E/DX2                !
 ! A67   A(29,21,33)           120.5293         estimate D2E/DX2                !
 ! A68   A(3,22,13)            117.777          estimate D2E/DX2                !
 ! A69   A(3,22,16)            121.2041         estimate D2E/DX2                !
 ! A70   A(13,22,16)           121.0189         estimate D2E/DX2                !
 ! A71   A(14,23,15)           117.3883         estimate D2E/DX2                !
 ! A72   A(14,23,18)           120.2865         estimate D2E/DX2                !
 ! A73   A(15,23,18)           122.3252         estimate D2E/DX2                !
 ! A74   A(4,24,16)            120.005          estimate D2E/DX2                !
 ! A75   A(4,24,19)            119.8289         estimate D2E/DX2                !
 ! A76   A(16,24,19)           120.1662         estimate D2E/DX2                !
 ! A77   A(16,25,17)           121.5273         estimate D2E/DX2                !
 ! A78   A(16,25,20)           120.3138         estimate D2E/DX2                !
 ! A79   A(17,25,20)           118.159          estimate D2E/DX2                !
 ! A80   A(17,26,18)           120.707          estimate D2E/DX2                !
 ! A81   A(17,26,21)           116.0575         estimate D2E/DX2                !
 ! A82   A(18,26,21)           123.2355         estimate D2E/DX2                !
 ! A83   A(5,27,19)            120.7216         estimate D2E/DX2                !
 ! A84   A(5,27,30)            119.8045         estimate D2E/DX2                !
 ! A85   A(19,27,30)           119.4739         estimate D2E/DX2                !
 ! A86   A(19,28,20)           121.0692         estimate D2E/DX2                !
 ! A87   A(19,28,31)           119.1239         estimate D2E/DX2                !
 ! A88   A(20,28,31)           119.8069         estimate D2E/DX2                !
 ! A89   A(20,29,21)           122.3405         estimate D2E/DX2                !
 ! A90   A(20,29,32)           117.6945         estimate D2E/DX2                !
 ! A91   A(21,29,32)           119.965          estimate D2E/DX2                !
 ! A92   A(13,44,14)           119.8184         estimate D2E/DX2                !
 ! A93   A(13,44,17)           120.1541         estimate D2E/DX2                !
 ! A94   A(14,44,17)           120.0275         estimate D2E/DX2                !
 ! A95   A(14,44,45)           144.3631         estimate D2E/DX2                !
 ! A96   A(13,45,17)           101.3807         estimate D2E/DX2                !
 ! A97   A(13,45,46)           123.1669         estimate D2E/DX2                !
 ! A98   A(17,45,46)           123.24           estimate D2E/DX2                !
 ! A99   A(44,45,46)           125.64           estimate D2E/DX2                !
 ! D1    D(10,1,2,3)            -0.0025         estimate D2E/DX2                !
 ! D2    D(10,1,2,40)         -179.9806         estimate D2E/DX2                !
 ! D3    D(39,1,2,3)          -179.9941         estimate D2E/DX2                !
 ! D4    D(39,1,2,40)            0.0278         estimate D2E/DX2                !
 ! D5    D(2,1,10,8)          -179.9988         estimate D2E/DX2                !
 ! D6    D(2,1,10,13)           -0.0059         estimate D2E/DX2                !
 ! D7    D(39,1,10,8)           -0.0071         estimate D2E/DX2                !
 ! D8    D(39,1,10,13)         179.9859         estimate D2E/DX2                !
 ! D9    D(1,2,3,6)           -179.9775         estimate D2E/DX2                !
 ! D10   D(1,2,3,22)             0.0102         estimate D2E/DX2                !
 ! D11   D(40,2,3,6)             0.0012         estimate D2E/DX2                !
 ! D12   D(40,2,3,22)          179.9889         estimate D2E/DX2                !
 ! D13   D(2,3,6,4)            179.9947         estimate D2E/DX2                !
 ! D14   D(2,3,6,41)            -0.0032         estimate D2E/DX2                !
 ! D15   D(22,3,6,4)             0.0071         estimate D2E/DX2                !
 ! D16   D(22,3,6,41)         -179.9908         estimate D2E/DX2                !
 ! D17   D(2,3,22,13)           -0.0093         estimate D2E/DX2                !
 ! D18   D(2,3,22,16)         -179.9984         estimate D2E/DX2                !
 ! D19   D(6,3,22,13)          179.9788         estimate D2E/DX2                !
 ! D20   D(6,3,22,16)           -0.0104         estimate D2E/DX2                !
 ! D21   D(7,4,6,3)           -179.9983         estimate D2E/DX2                !
 ! D22   D(7,4,6,41)            -0.0004         estimate D2E/DX2                !
 ! D23   D(24,4,6,3)             0.0005         estimate D2E/DX2                !
 ! D24   D(24,4,6,41)          179.9984         estimate D2E/DX2                !
 ! D25   D(6,4,7,5)            179.9946         estimate D2E/DX2                !
 ! D26   D(6,4,7,42)             0.0023         estimate D2E/DX2                !
 ! D27   D(24,4,7,5)            -0.0043         estimate D2E/DX2                !
 ! D28   D(24,4,7,42)         -179.9966         estimate D2E/DX2                !
 ! D29   D(6,4,24,16)           -0.0051         estimate D2E/DX2                !
 ! D30   D(6,4,24,19)         -179.9968         estimate D2E/DX2                !
 ! D31   D(7,4,24,16)          179.9938         estimate D2E/DX2                !
 ! D32   D(7,4,24,19)            0.0021         estimate D2E/DX2                !
 ! D33   D(27,5,7,4)             0.0119         estimate D2E/DX2                !
 ! D34   D(27,5,7,42)         -179.9959         estimate D2E/DX2                !
 ! D35   D(43,5,7,4)          -179.9999         estimate D2E/DX2                !
 ! D36   D(43,5,7,42)           -0.0077         estimate D2E/DX2                !
 ! D37   D(7,5,27,19)           -0.0173         estimate D2E/DX2                !
 ! D38   D(7,5,27,30)          179.9838         estimate D2E/DX2                !
 ! D39   D(43,5,27,19)         179.9944         estimate D2E/DX2                !
 ! D40   D(43,5,27,30)          -0.0044         estimate D2E/DX2                !
 ! D41   D(11,8,10,1)          179.9932         estimate D2E/DX2                !
 ! D42   D(11,8,10,13)           0.0005         estimate D2E/DX2                !
 ! D43   D(38,8,10,1)            0.002          estimate D2E/DX2                !
 ! D44   D(38,8,10,13)        -179.9907         estimate D2E/DX2                !
 ! D45   D(10,8,11,9)         -179.9875         estimate D2E/DX2                !
 ! D46   D(10,8,11,14)          -0.0059         estimate D2E/DX2                !
 ! D47   D(38,8,11,9)            0.0036         estimate D2E/DX2                !
 ! D48   D(38,8,11,14)         179.9852         estimate D2E/DX2                !
 ! D49   D(12,9,11,8)          179.9943         estimate D2E/DX2                !
 ! D50   D(12,9,11,14)           0.012          estimate D2E/DX2                !
 ! D51   D(37,9,11,8)           -0.0011         estimate D2E/DX2                !
 ! D52   D(37,9,11,14)        -179.9834         estimate D2E/DX2                !
 ! D53   D(11,9,12,15)          -0.0008         estimate D2E/DX2                !
 ! D54   D(11,9,12,36)        -179.9935         estimate D2E/DX2                !
 ! D55   D(37,9,12,15)         179.9946         estimate D2E/DX2                !
 ! D56   D(37,9,12,36)           0.0019         estimate D2E/DX2                !
 ! D57   D(1,10,13,22)           0.0067         estimate D2E/DX2                !
 ! D58   D(1,10,13,44)        -179.9942         estimate D2E/DX2                !
 ! D59   D(1,10,13,45)        -103.9485         estimate D2E/DX2                !
 ! D60   D(8,10,13,22)         179.9997         estimate D2E/DX2                !
 ! D61   D(8,10,13,44)          -0.0012         estimate D2E/DX2                !
 ! D62   D(8,10,13,45)          76.0446         estimate D2E/DX2                !
 ! D63   D(8,11,14,23)         179.9937         estimate D2E/DX2                !
 ! D64   D(8,11,14,44)           0.0113         estimate D2E/DX2                !
 ! D65   D(9,11,14,23)          -0.0235         estimate D2E/DX2                !
 ! D66   D(9,11,14,44)         179.9941         estimate D2E/DX2                !
 ! D67   D(9,12,15,23)          -0.0008         estimate D2E/DX2                !
 ! D68   D(9,12,15,35)         179.9989         estimate D2E/DX2                !
 ! D69   D(36,12,15,23)        179.9919         estimate D2E/DX2                !
 ! D70   D(36,12,15,35)         -0.0083         estimate D2E/DX2                !
 ! D71   D(10,13,22,3)           0.001          estimate D2E/DX2                !
 ! D72   D(10,13,22,16)        179.9902         estimate D2E/DX2                !
 ! D73   D(44,13,22,3)        -179.9981         estimate D2E/DX2                !
 ! D74   D(44,13,22,16)         -0.0089         estimate D2E/DX2                !
 ! D75   D(45,13,22,3)         144.2497         estimate D2E/DX2                !
 ! D76   D(45,13,22,16)        -35.7612         estimate D2E/DX2                !
 ! D77   D(10,13,44,14)          0.0069         estimate D2E/DX2                !
 ! D78   D(10,13,44,17)       -179.9981         estimate D2E/DX2                !
 ! D79   D(22,13,44,14)       -179.9939         estimate D2E/DX2                !
 ! D80   D(22,13,44,17)          0.001          estimate D2E/DX2                !
 ! D81   D(10,13,45,17)       -126.3342         estimate D2E/DX2                !
 ! D82   D(10,13,45,46)         16.7498         estimate D2E/DX2                !
 ! D83   D(22,13,45,17)        112.7199         estimate D2E/DX2                !
 ! D84   D(22,13,45,46)       -104.1962         estimate D2E/DX2                !
 ! D85   D(11,14,23,15)          0.0221         estimate D2E/DX2                !
 ! D86   D(11,14,23,18)       -179.9904         estimate D2E/DX2                !
 ! D87   D(44,14,23,15)       -179.9955         estimate D2E/DX2                !
 ! D88   D(44,14,23,18)         -0.008          estimate D2E/DX2                !
 ! D89   D(11,14,44,13)         -0.012          estimate D2E/DX2                !
 ! D90   D(11,14,44,17)        179.993          estimate D2E/DX2                !
 ! D91   D(11,14,44,45)        -90.0272         estimate D2E/DX2                !
 ! D92   D(23,14,44,13)       -179.9956         estimate D2E/DX2                !
 ! D93   D(23,14,44,17)          0.0095         estimate D2E/DX2                !
 ! D94   D(23,14,44,45)         89.9892         estimate D2E/DX2                !
 ! D95   D(12,15,23,14)         -0.0092         estimate D2E/DX2                !
 ! D96   D(12,15,23,18)       -179.9964         estimate D2E/DX2                !
 ! D97   D(35,15,23,14)        179.991          estimate D2E/DX2                !
 ! D98   D(35,15,23,18)          0.0039         estimate D2E/DX2                !
 ! D99   D(24,16,22,3)           0.0059         estimate D2E/DX2                !
 ! D100  D(24,16,22,13)       -179.9829         estimate D2E/DX2                !
 ! D101  D(25,16,22,3)        -179.9999         estimate D2E/DX2                !
 ! D102  D(25,16,22,13)          0.0113         estimate D2E/DX2                !
 ! D103  D(22,16,24,4)           0.0019         estimate D2E/DX2                !
 ! D104  D(22,16,24,19)        179.9936         estimate D2E/DX2                !
 ! D105  D(25,16,24,4)        -179.9925         estimate D2E/DX2                !
 ! D106  D(25,16,24,19)         -0.0008         estimate D2E/DX2                !
 ! D107  D(22,16,25,17)         -0.005          estimate D2E/DX2                !
 ! D108  D(22,16,25,20)       -179.9929         estimate D2E/DX2                !
 ! D109  D(24,16,25,17)        179.9893         estimate D2E/DX2                !
 ! D110  D(24,16,25,20)          0.0013         estimate D2E/DX2                !
 ! D111  D(26,17,25,16)       -179.9962         estimate D2E/DX2                !
 ! D112  D(26,17,25,20)         -0.008          estimate D2E/DX2                !
 ! D113  D(44,17,25,16)         -0.003          estimate D2E/DX2                !
 ! D114  D(44,17,25,20)        179.9852         estimate D2E/DX2                !
 ! D115  D(45,17,25,16)         35.7705         estimate D2E/DX2                !
 ! D116  D(45,17,25,20)       -144.2413         estimate D2E/DX2                !
 ! D117  D(25,17,26,18)        179.9954         estimate D2E/DX2                !
 ! D118  D(25,17,26,21)          0.0108         estimate D2E/DX2                !
 ! D119  D(44,17,26,18)          0.0021         estimate D2E/DX2                !
 ! D120  D(44,17,26,21)       -179.9825         estimate D2E/DX2                !
 ! D121  D(45,17,26,18)        -75.2392         estimate D2E/DX2                !
 ! D122  D(45,17,26,21)        104.7762         estimate D2E/DX2                !
 ! D123  D(25,17,44,13)          0.0049         estimate D2E/DX2                !
 ! D124  D(25,17,44,14)        179.9998         estimate D2E/DX2                !
 ! D125  D(26,17,44,13)        179.9986         estimate D2E/DX2                !
 ! D126  D(26,17,44,14)         -0.0065         estimate D2E/DX2                !
 ! D127  D(25,17,45,13)       -112.9108         estimate D2E/DX2                !
 ! D128  D(25,17,45,46)        104.0411         estimate D2E/DX2                !
 ! D129  D(26,17,45,13)        125.3044         estimate D2E/DX2                !
 ! D130  D(26,17,45,46)        -17.7436         estimate D2E/DX2                !
 ! D131  D(26,18,23,14)          0.0039         estimate D2E/DX2                !
 ! D132  D(26,18,23,15)        179.9907         estimate D2E/DX2                !
 ! D133  D(34,18,23,14)        179.9976         estimate D2E/DX2                !
 ! D134  D(34,18,23,15)         -0.0156         estimate D2E/DX2                !
 ! D135  D(23,18,26,17)         -0.0007         estimate D2E/DX2                !
 ! D136  D(23,18,26,21)        179.9827         estimate D2E/DX2                !
 ! D137  D(34,18,26,17)       -179.9942         estimate D2E/DX2                !
 ! D138  D(34,18,26,21)         -0.0107         estimate D2E/DX2                !
 ! D139  D(27,19,24,4)          -0.0072         estimate D2E/DX2                !
 ! D140  D(27,19,24,16)       -179.999          estimate D2E/DX2                !
 ! D141  D(28,19,24,4)         179.9902         estimate D2E/DX2                !
 ! D142  D(28,19,24,16)         -0.0015         estimate D2E/DX2                !
 ! D143  D(24,19,27,5)           0.0148         estimate D2E/DX2                !
 ! D144  D(24,19,27,30)       -179.9864         estimate D2E/DX2                !
 ! D145  D(28,19,27,5)        -179.9826         estimate D2E/DX2                !
 ! D146  D(28,19,27,30)          0.0163         estimate D2E/DX2                !
 ! D147  D(24,19,28,20)          0.0035         estimate D2E/DX2                !
 ! D148  D(24,19,28,31)       -179.9967         estimate D2E/DX2                !
 ! D149  D(27,19,28,20)       -179.9991         estimate D2E/DX2                !
 ! D150  D(27,19,28,31)          0.0007         estimate D2E/DX2                !
 ! D151  D(28,20,25,16)          0.0006         estimate D2E/DX2                !
 ! D152  D(28,20,25,17)       -179.9877         estimate D2E/DX2                !
 ! D153  D(29,20,25,16)        179.9894         estimate D2E/DX2                !
 ! D154  D(29,20,25,17)          0.0011         estimate D2E/DX2                !
 ! D155  D(25,20,28,19)         -0.003          estimate D2E/DX2                !
 ! D156  D(25,20,28,31)        179.9972         estimate D2E/DX2                !
 ! D157  D(29,20,28,19)       -179.9913         estimate D2E/DX2                !
 ! D158  D(29,20,28,31)          0.0089         estimate D2E/DX2                !
 ! D159  D(25,20,29,21)          0.0025         estimate D2E/DX2                !
 ! D160  D(25,20,29,32)       -179.9913         estimate D2E/DX2                !
 ! D161  D(28,20,29,21)        179.991          estimate D2E/DX2                !
 ! D162  D(28,20,29,32)         -0.0029         estimate D2E/DX2                !
 ! D163  D(29,21,26,17)         -0.0068         estimate D2E/DX2                !
 ! D164  D(29,21,26,18)       -179.9909         estimate D2E/DX2                !
 ! D165  D(33,21,26,17)       -179.9966         estimate D2E/DX2                !
 ! D166  D(33,21,26,18)          0.0193         estimate D2E/DX2                !
 ! D167  D(26,21,29,20)          0.0005         estimate D2E/DX2                !
 ! D168  D(26,21,29,32)        179.9942         estimate D2E/DX2                !
 ! D169  D(33,21,29,20)        179.9901         estimate D2E/DX2                !
 ! D170  D(33,21,29,32)         -0.0162         estimate D2E/DX2                !
 ! D171  D(14,44,45,46)          0.0179         estimate D2E/DX2                !
 --------------------------------------------------------------------------------
 Trust Radius=3.00D-01 FncErr=1.00D-07 GrdErr=1.00D-07
 Number of steps in this run=    276 maximum allowed number of steps=    276.
 GradGradGradGradGradGradGradGradGradGradGradGradGradGradGradGradGradGrad

                          Input orientation:                          
 ---------------------------------------------------------------------
 Center     Atomic      Atomic             Coordinates (Angstroms)
 Number     Number       Type             X           Y           Z
 ---------------------------------------------------------------------
      1          6           0       -1.487342    1.255274    0.000000
      2          6           0       -0.114579    1.267573    0.000214
      3          6           0        0.637842    2.495615    0.000237
      4          6           0        2.761554    3.737816   -0.000096
      5          6           0        4.876369    4.985412   -0.000577
      6          6           0        2.060297    2.516154   -0.000014
      7          6           0        4.192364    3.771038   -0.000385
      8          6           0       -3.680332    2.523182   -0.000361
      9          6           0       -5.854424    3.764586   -0.000316
     10          6           0       -2.227169    2.491707   -0.000158
     11          6           0       -4.431403    3.732940   -0.000377
     12          6           0       -6.523170    4.989254   -0.000217
     13          6           0       -1.497229    3.665426    0.000042
     14          6           0       -3.770635    4.987756   -0.000065
     15          6           0       -5.831731    6.215386   -0.000158
     16          6           0        0.618765    4.984426    0.000243
     17          6           0       -1.488529    6.302410    0.000188
     18          6           0       -3.646057    7.473946   -0.000044
     19          6           0        2.763344    6.233835   -0.000066
     20          6           0        0.644264    7.488696    0.000097
     21          6           0       -1.486048    8.739497   -0.000106
     22          6           0       -0.072682    3.722583    0.000254
     23          6           0       -4.423380    6.225598   -0.000181
     24          6           0        2.039423    4.985716    0.000088
     25          6           0       -0.086819    6.245918    0.000262
     26          6           0       -2.247828    7.509622    0.000125
     27          6           0        4.183286    6.205843   -0.000242
     28          6           0        2.051167    7.464069   -0.000096
     29          6           0       -0.108077    8.718323   -0.000112
     30          1           0        4.736826    7.141709   -0.000134
     31          1           0        2.608212    8.398162   -0.000269
     32          1           0        0.450622    9.653867   -0.000382
     33          1           0       -2.024149    9.684844   -0.000104
     34          1           0       -4.210816    8.402296   -0.000186
     35          1           0       -6.391623    7.148101   -0.000098
     36          1           0       -7.613530    5.001882   -0.000063
     37          1           0       -6.417453    2.834207   -0.000272
     38          1           0       -4.208336    1.574068   -0.000359
     39          1           0       -2.035005    0.314677    0.000084
     40          1           0        0.442586    0.330166    0.000014
     41          1           0        2.607852    1.577080   -0.000179
     42          1           0        4.741811    2.832903   -0.000582
     43          1           0        5.965971    4.991361   -0.000799
     44         45           0       -2.251750    4.985817    0.000017
     45          7           0       -0.950092    4.984392    0.933288
     46          8           0       -0.950092    4.984392    2.068018
 ---------------------------------------------------------------------
                    Distance matrix (angstroms):
                    1          2          3          4          5
     1  C    0.000000
     2  C    1.372818   0.000000
     3  C    2.460661   1.440217   0.000000
     4  C    4.920988   3.791337   2.460328   0.000000
     5  C    7.376364   6.223494   4.915709   2.455390   0.000000
     6  C    3.765044   2.507795   1.422603   1.408623   3.745330
     7  C    6.211934   4.981675   3.776417   1.431196   1.393760
     8  C    2.533140   3.780364   4.318263   6.555397   8.903916
     9  C    5.036670   6.259464   6.615119   8.616019  10.800015
    10  C    1.440871   2.441627   2.865014   5.141998   7.528533
    11  C    3.847899   4.971218   5.218067   7.192959   9.391662
    12  C    6.269144   7.410867   7.582765   9.368681  11.399540
    13  C    2.410172   2.767927   2.434540   4.259398   6.508849
    14  C    4.375483   5.215986   5.064132   6.650702   8.647004
    15  C    6.593666   7.560866   7.462713   8.943316  10.778509
    16  C    4.282786   3.788507   2.488884   2.479028   4.257604
    17  C    5.047136   5.218939   4.360406   4.963904   6.499724
    18  C    6.582699   7.140757   6.567768   7.417287   8.878319
    19  C    6.546327   5.739878   4.300238   2.496019   2.454269
    20  C    6.587813   6.267233   4.993085   4.307204   4.917026
    21  C    7.484223   7.596748   6.595223   6.561930   7.387389
    22  C    2.844095   2.455367   1.417849   2.834277   5.107626
    23  C    5.772732   6.568697   6.287188   7.603442   9.382078
    24  C    5.133641   4.297012   2.857452   1.441779   2.836946
    25  C    5.183434   4.978422   3.819674   3.795234   5.120753
    26  C    6.300413   6.596509   5.785098   6.270600   7.558163
    27  C    7.527559   6.546613   5.131857   2.848241   1.403502
    28  C    7.146340   6.564070   5.165562   3.793364   3.758392
    29  C    7.589432   7.450753   6.267256   5.748063   6.227305
    30  H    8.566818   7.618504   6.195794   3.935503   2.160808
    31  H    8.233736   7.632751   6.222734   4.662868   4.097731
    32  H    8.619284   8.405318   7.160700   6.351382   6.432862
    33  H    8.446645   8.631159   7.666238   7.633485   8.348761
    34  H    7.648348   8.226994   7.641883   8.388761   9.708349
    35  H    7.666641   8.601273   8.429650   9.767839  11.473660
    36  H    7.181034   8.377311   8.623602  10.451805  12.489910
    37  H    5.176778   6.494657   7.063415   9.223376  11.496873
    38  H    2.739605   4.105214   4.933020   7.298025   9.704078
    39  H    1.088420   2.143839   3.449725   5.892780   8.341634
    40  H    2.140197   1.090488   2.174234   4.121855   6.428821
    41  H    4.107818   2.739967   2.173625   2.166196   4.094252
    42  H    6.425828   5.102429   4.117806   2.177221   2.156710
    43  H    8.337279   7.130195   5.883681   3.440881   1.089618
    44  Rh   3.808053   4.288687   3.814558   5.166306   7.128119
    45  N    3.881493   3.922175   3.096148   4.025105   5.900827
    46  O    4.297867   4.334587   3.604340   4.428020   6.182777
                    6          7          8          9         10
     6  C    0.000000
     7  C    2.473953   0.000000
     8  C    5.740633   7.970978   0.000000
     9  C    8.012576  10.046789   2.503549   0.000000
    10  C    4.287535   6.545768   1.453504   3.844112   0.000000
    11  C    6.604751   8.623851   1.423946   1.423372   2.529685
    12  C    8.932643  10.784559   3.763407   1.395361   4.969242
    13  C    3.738558   5.690573   2.463871   4.358323   1.382183
    14  C    6.333133   8.055417   2.466228   2.416262   2.934714
    15  C    8.715987  10.317816   4.273276   2.450906   5.182534
    16  C    2.858387   3.773979   4.953783   6.587123   3.783251
    17  C    5.189402   6.219356   4.368817   5.049910   3.881629
    18  C    7.559244   8.669047   4.950883   4.316971   5.180343
    19  C    3.783573   2.847361   7.435719   8.964548   6.237687
    20  C    5.170233   5.139065   6.584714   7.490123   5.763248
    21  C    7.162859   7.545194   6.592227   6.620608   6.291593
    22  C    2.450524   4.265321   3.801803   5.781894   2.481304
    23  C    7.469808   8.958565   3.776242   2.846835   4.331892
    24  C    2.469650   2.471962   6.227333   7.987739   4.942053
    25  C    4.303631   4.943322   5.174177   6.278716   4.321481
    26  C    6.595048   7.446683   5.188126   5.199311   5.017958
    27  C    4.256863   2.434822   8.683230  10.330312   7.408693
    28  C    4.947924   4.268865   7.567196   8.728376   6.559615
    29  C    6.570293   6.555106   7.151279   7.586832   6.577333
    30  H    5.344115   3.414361   9.601008  11.116633   8.373753
    31  H    5.907472   4.890788   8.605881   9.648121   7.633290
    32  H    7.316966   6.971965   8.240841   8.627702   7.646378
    33  H    8.250625   8.580101   7.350670   7.051274   7.196001
    34  H    8.600786   9.594894   5.902999   4.920346   6.234575
    35  H    9.637940  11.109695   5.361061   3.425895   6.246974
    36  H    9.988081  11.869882   4.649085   2.150664   5.942547
    37  H    8.483714  10.651096   2.754735   1.087477   4.204258
    38  H    6.339028   8.683227   1.086096   2.740068   2.183365
    39  H    4.649516   7.122257   2.754015   5.146827   2.185495
    40  H    2.719473   5.089246   4.669879   7.172696   3.435091
    41  H    1.087050   2.706313   6.358960   8.740440   4.920769
    42  H    2.700158   1.087194   8.427837  10.637116   6.977328
    43  H    4.623953   2.152875   9.957062  11.883884   8.565968
    44  Rh   4.969203   6.557613   2.847002   3.804032   2.494231
    45  N    4.003210   5.365522   3.792555   5.139262   2.952241
    46  O    4.408106   5.674096   4.217815   5.460623   3.481632
                   11         12         13         14         15
    11  C    0.000000
    12  C    2.440044   0.000000
    13  C    2.934951   5.197365   0.000000
    14  C    1.418161   2.752535   2.630006   0.000000
    15  C    2.850168   1.407654   5.028937   2.398999   0.000000
    16  C    5.202924   7.141937   2.493430   4.389401   6.566899
    17  C    3.906749   5.203075   2.636998   2.633690   4.344074
    18  C    3.822551   3.801510   4.372904   2.489309   2.522131
    19  C    7.617012   9.369543   4.974858   6.651736   8.595095
    20  C    6.314120   7.590740   4.382166   5.074055   6.599988
    21  C    5.808677   6.279882   5.074083   4.392596   5.025544
    22  C    4.358734   6.573679   1.425693   3.908391   6.275406
    23  C    2.492671   2.436733   3.888038   1.399403   1.408389
    24  C    6.590982   8.562594   3.775060   5.810059   7.966628
    25  C    5.019011   6.557882   2.940781   3.892746   5.744993
    26  C    4.362491   4.962943   3.916790   2.945972   3.810434
    27  C    8.962595  10.775355   6.222697   8.046651  10.015021
    28  C    7.479642   8.924347   5.198154   6.326571   7.981184
    29  C    6.598879   7.420201   5.240374   5.227950   6.246993
    30  H    9.781418  11.463882   7.137786   8.775899  10.609076
    31  H    8.445146   9.746938   6.265256   7.233295   8.717635
    32  H    7.674083   8.390018   6.297265   6.292186   7.161782
    33  H    6.420283   6.503057   6.042436   5.011272   5.151196
    34  H    4.674564   4.122601   5.459074   3.442796   2.722120
    35  H    3.937739   2.162852   6.007006   3.396567   1.087858
    36  H    3.425806   1.090433   6.260611   3.842921   2.155783
    37  H    2.179934   2.157638   4.989943   3.412245   3.431536
    38  H    2.170366   4.125767   3.424015   3.441635   4.917037
    39  H    4.174595   6.480378   3.393630   4.984985   7.016659
    40  H    5.944294   8.380265   3.858347   6.280475   8.602492
    41  H    7.361986   9.747743   4.605744   7.233105   9.630184
    42  H    9.217263  11.469510   6.294340   8.780953  11.101396
    43  H   10.473252  12.489141   7.580070   9.736606  11.861029
    44  Rh   2.514078   4.271421   1.520768   1.518886   3.785248
    45  N    3.815415   5.650721   1.705866   2.970963   5.120261
    46  O    4.238387   5.944478   2.513077   3.497491   5.442711
                   16         17         18         19         20
    16  C    0.000000
    17  C    2.485512   0.000000
    18  C    4.938261   2.455081   0.000000
    19  C    2.481984   4.252426   6.528269   0.000000
    20  C    2.504399   2.440509   4.290347   2.462758   0.000000
    21  C    4.304741   2.437089   2.503449   4.933121   2.470372
    22  C    1.438870   2.942810   5.180901   3.788064   3.833747
    23  C    5.192661   2.935855   1.470579   7.186729   5.222684
    24  C    1.420659   3.765651   6.206124   1.442866   2.865550
    25  C    1.445410   1.402848   3.765133   2.850189   1.441867
    26  C    3.820206   1.426147   1.398684   5.171023   2.892168
    27  C    3.767979   5.672637   7.931374   1.420217   3.764357
    28  C    2.863635   3.725440   5.697232   1.421504   1.407118
    29  C    3.803983   2.782497   3.750437   3.797070   1.441528
    30  H    4.648903   6.281678   8.389465   2.172295   4.107245
    31  H    3.951138   4.601681   6.322188   2.169880   2.164306
    32  H    4.672467   3.872024   4.640564   4.128595   2.173813
    33  H    5.392488   3.424580   2.742016   5.901657   3.455937
    34  H    5.916645   3.438077   1.086640   7.303502   4.940291
    35  H    7.336691   4.975492   2.764834   9.200506   7.044127
    36  H    8.232313   6.261550   4.674606  10.449748   8.624118
    37  H    7.357432   6.026833   5.404425   9.790021   8.457666
    38  H    5.910283   5.454775   5.926611   8.385568   7.650526
    39  H    5.371131   6.012618   7.338298   7.619749   7.658004
    40  H    4.657593   6.276695   8.231075   6.343439   7.161370
    41  H    3.945437   6.253725   8.595604   4.659350   6.229195
    42  H    4.650652   7.131243   9.586220   3.934548   6.202120
    43  H    5.347210   7.568911   9.927452   3.435194   5.878540
    44  Rh   2.870516   1.521816   2.852171   5.168048   3.827702
    45  N    1.825345   1.702280   3.786451   4.027638   3.111969
    46  O    2.595574   2.510578   4.212242   4.430315   3.617984
                   21         22         23         24         25
    21  C    0.000000
    22  C    5.212200   0.000000
    23  C    3.866213   5.019328   0.000000
    24  C    5.149740   2.460994   6.580663   0.000000
    25  C    2.859332   2.523375   4.336608   2.471643   0.000000
    26  C    1.446686   4.367256   2.526211   4.975000   2.503379
    27  C    6.209730   4.927458   8.606688   2.466750   4.270293
    28  C    3.760134   4.302262   6.591931   2.478382   2.460666
    29  C    1.378134   4.995866   4.983525   4.306288   2.472497
    30  H    6.424725   5.900999   9.205902   3.453156   4.906118
    31  H    4.108464   5.389641   7.359573   3.459524   3.448963
    32  H    2.141673   5.954324   5.958936   4.931118   3.450066
    33  H    1.087765   6.273498   4.209832   6.212441   3.947082
    34  H    2.745554   6.246909   2.187052   7.123097   4.653743
    35  H    5.157248   7.187711   2.173705   8.703933   6.369026
    36  H    7.177451   7.648594   3.416803   9.652967   7.628827
    37  H    7.693582   6.406663   3.934191   8.726267   7.191432
    38  H    7.665131   4.660445   4.656499   7.118556   6.230015
    39  H    8.442686   3.932497   6.375212   6.198352   6.243000
    40  H    8.627657   3.431325   7.644196   4.921791   5.939393
    41  H    8.249863   3.433431   8.428934   3.455707   5.390668
    42  H    8.583361   4.896006   9.772978   3.455069   5.913066
    43  H    8.341529   6.170505  10.462406   3.926552   6.181438
    44  Rh   3.830981   2.518749   2.500606   4.291174   2.504951
    45  N    3.906313   1.797933   3.804692   3.131783   1.790872
    46  O    4.320323   2.576366   4.228684   3.635043   2.571440
                   26         27         28         29         30
    26  C    0.000000
    27  C    6.561941   0.000000
    28  C    4.299236   2.475695   0.000000
    29  C    2.457539   4.972761   2.497095   0.000000
    30  H    6.994338   1.087314   2.704937   5.094978   0.000000
    31  H    4.936662   2.699466   1.087579   2.735092   2.471775
    32  H    3.446653   5.081500   2.712371   1.089672   4.968147
    33  H    2.186692   7.115876   4.641125   2.146042   7.223457
    34  H    2.156430   8.676713   6.331880   4.114893   9.036005
    35  H    4.159535  10.616805   8.448700   6.476770  11.128451
    36  H    5.922796  11.858093   9.973401   8.375188  12.534359
    37  H    6.264605  11.124009   9.651587   8.627343  11.957111
    38  H    6.250952   9.585022   8.594969   8.237264  10.536344
    39  H    7.198092   8.565802   8.234720   8.621736   9.615927
    40  H    7.667001   6.965372   7.313009   8.406212   8.052180
    41  H    7.666335   4.889524   5.913252   7.640264   5.957989
    42  H    8.409921   3.418871   5.356050   7.626243   4.308809
    43  H    8.591166   2.157066   4.630332   7.126310   2.476851
    44  Rh   2.523808   6.549668   4.965564   4.304293   7.313554
    45  N    2.988594   5.358636   4.003443   3.939856   6.153562
    46  O    3.512419   5.667557   4.408339   4.350677   6.424353
                   31         32         33         34         35
    31  H    0.000000
    32  H    2.496395   0.000000
    33  H    4.807736   2.474965   0.000000
    34  H    6.819030   4.826535   2.535043   0.000000
    35  H    9.086236   7.286644   5.050732   2.515735   0.000000
    36  H   10.771199   9.309754   7.291866   4.810538   2.469679
    37  H   10.602840   9.678750   8.138325   5.989395   4.313971
    38  H    9.645392   9.326792   8.399724   6.828229   5.986367
    39  H    9.322134   9.664306   9.370173   8.375186   8.104061
    40  H    8.353591   9.323704   9.674439   9.317372   9.653530
    41  H    6.821082   8.359912   9.337627   9.647684  10.584273
    42  H    5.960231   8.058527   9.629502  10.543609  11.940448
    43  H    4.783391   7.222051   9.266650  10.733195  12.544387
    44  Rh   5.938294   5.393840   4.704536   3.938308   4.670548
    45  N    5.018653   4.963641   4.911116   4.815160   5.929849
    46  O    5.347257   5.295684   5.246425   5.156729   6.210395
                   36         37         38         39         40
    36  H    0.000000
    37  H    2.475765   0.000000
    38  H    4.831693   2.543256   0.000000
    39  H    7.286277   5.055085   2.511858   0.000000
    40  H    9.312676   7.302763   4.814391   2.477639   0.000000
    41  H   10.779885   9.112436   6.816188   4.811421   2.498633
    42  H   12.544279  11.159264   9.038241   7.229571   4.974639
    43  H   13.579505  12.569904  10.732866   9.267523   7.227345
    44  Rh   5.361804   4.688550   3.932971   4.676166   5.379083
    45  N    6.728511   5.948686   4.808135   4.884071   4.946956
    46  O    6.977010   6.228415   5.150209   5.221076   5.279963
                   41         42         43         44         45
    41  H    0.000000
    42  H    2.476061   0.000000
    43  H    4.788975   2.481433   0.000000
    44  Rh   5.935926   7.317441   8.217723   0.000000
    45  N    5.013991   6.156199   6.978860   1.601659   0.000000
    46  O    5.342863   6.426957   7.218862   2.443552   1.134730
                   46
    46  O    0.000000
 Stoichiometry    C29H14NORh
 Framework group  C1[X(C29H14NORh)]
 Deg. of freedom   132
 Full point group                 C1      NOp   1
 Largest Abelian subgroup         C1      NOp   1
 Largest concise Abelian subgroup C1      NOp   1
                         Standard orientation:                         
 ---------------------------------------------------------------------
 Center     Atomic      Atomic             Coordinates (Angstroms)
 Number     Number       Type             X           Y           Z
 ---------------------------------------------------------------------
      1          6           0       -0.440374   -3.733398   -0.092942
      2          6           0        0.932391   -3.721315   -0.094271
      3          6           0        1.685004   -2.493391   -0.094950
      4          6           0        3.808910   -1.251524   -0.097527
      5          6           0        5.923920   -0.004261   -0.100242
      6          6           0        3.107461   -2.473076   -0.096800
      7          6           0        5.239724   -1.218528   -0.099423
      8          6           0       -2.633164   -2.465145   -0.090686
      9          6           0       -4.807058   -1.223400   -0.088050
     10          6           0       -1.180006   -2.496849   -0.092122
     11          6           0       -3.384044   -1.255270   -0.089716
     12          6           0       -5.475611    0.001373   -0.087054
     13          6           0       -0.449881   -1.323244   -0.092606
     14          6           0       -2.723078   -0.000557   -0.090000
     15          6           0       -4.783980    1.227397   -0.087629
     16          6           0        1.666319   -0.004578   -0.094631
     17          6           0       -0.440766    1.313738   -0.092160
     18          6           0       -2.598109    2.485613   -0.089827
     19          6           0        3.811093    1.244494   -0.097207
     20          6           0        1.692213    2.499688   -0.094512
     21          6           0       -0.437902    3.750824   -0.092171
     22          6           0        0.974674   -1.266312   -0.093990
     23          6           0       -3.375627    1.237388   -0.089236
     24          6           0        3.086976   -0.003511   -0.096384
     25          6           0        0.960934    1.257026   -0.093670
     26          6           0       -1.199875    2.521069   -0.091228
     27          6           0        5.231029    1.216279   -0.098984
     28          6           0        3.099110    2.474841   -0.096291
     29          6           0        0.940065    3.729434   -0.093730
     30          1           0        5.784717    2.152057   -0.099389
     31          1           0        3.656302    3.408845   -0.096981
     32          1           0        1.498911    4.664890   -0.094519
     33          1           0       -0.975854    4.696256   -0.091453
     34          1           0       -3.162722    3.414052   -0.089225
     35          1           0       -5.343724    2.160200   -0.086830
     36          1           0       -6.565968    0.014173   -0.085672
     37          1           0       -5.370233   -2.153689   -0.087481
     38          1           0       -3.161316   -3.414177   -0.090202
     39          1           0       -0.988184   -4.673909   -0.092352
     40          1           0        1.489407   -4.658809   -0.095208
     41          1           0        3.654868   -3.412236   -0.097691
     42          1           0        5.789023   -2.156749   -0.100348
     43          1           0        7.013521    0.001517   -0.101689
     44         45           0       -1.204194   -0.002735   -0.091627
     45          7           0        0.098513   -0.004474    0.840178
     46          8           0        0.099790   -0.004607    1.974908
 ---------------------------------------------------------------------
 Rotational constants (GHZ):      0.2938245      0.1296672      0.0924769
 Standard basis: VSTO-6G (5D, 7F)
 There are   148 symmetry adapted cartesian basis functions of A   symmetry.
 There are   147 symmetry adapted basis functions of A   symmetry.
   147 basis functions,   888 primitive gaussians,   148 cartesian basis functions
    75 alpha electrons       75 beta electrons
       nuclear repulsion energy      1561.2821073731 Hartrees.
 Integral buffers will be    262144 words long.
 Regular integral format.
 Two-electron integral symmetry is turned off.
 Do NDO integrals.
 One-electron integrals computed using PRISM.
 NBasis=   147 RedAO= F EigKep=  0.00D+00  NBF=   147
 NBsUse=   147 1.00D-04 EigRej=  0.00D+00 NBFU=   147
 Simple Huckel Guess.
 Keep J ints in memory in canonical form, NReq=2119168.
 Gradient too large for Newton-Raphson -- use scaled steepest descent instead.
     Minimum is close to point  4 DX=  2.88D-02 DF= -2.91D-03 DXR=  4.58D-02 DFR=  1.68D-03 which will be used.
 Gradient too large for Newton-Raphson -- use scaled steepest descent instead.
     Minimum is close to point  4 DX=  3.55D-02 DF= -4.63D-04 DXR=  3.42D-02 DFR=  1.31D-03 which will be used.
 Gradient too large for Newton-Raphson -- use scaled steepest descent instead.
     Minimum is close to point  2 DX=  4.50D-02 DF= -2.54D-04 DXR=  5.32D-02 DFR=  2.84D-03 which will be used.
 Gradient too large for Newton-Raphson -- use scaled steepest descent instead.
 Gradient too large for Newton-Raphson -- use scaled steepest descent instead.
     Accept linear search using points  1 and  2.
 Gradient too large for Newton-Raphson -- use scaled steepest descent instead.
 Gradient too large for Newton-Raphson -- use scaled steepest descent instead.
     Accept linear search using points  1 and  2.
 Gradient too large for Newton-Raphson -- use scaled steepest descent instead.
 Gradient too large for Newton-Raphson -- use scaled steepest descent instead.
     Accept linear search using points  1 and  2.
 Gradient too large for Newton-Raphson -- use scaled steepest descent instead.
 Gradient too large for Newton-Raphson -- use scaled steepest descent instead.
     Accept linear search using points  1 and  2.
 Gradient too large for Newton-Raphson -- use scaled steepest descent instead.
 Gradient too large for Newton-Raphson -- use scaled steepest descent instead.
     Accept linear search using points  1 and  2.
 Gradient too large for Newton-Raphson -- use scaled steepest descent instead.
 Gradient too large for Newton-Raphson -- use scaled steepest descent instead.
     Accept linear search using points  1 and  2.
 Gradient too large for Newton-Raphson -- use scaled steepest descent instead.
 Gradient too large for Newton-Raphson -- use scaled steepest descent instead.
     Accept linear search using points  1 and  2.
 Gradient too large for Newton-Raphson -- use scaled steepest descent instead.
 Gradient too large for Newton-Raphson -- use scaled steepest descent instead.
     Accept linear search using points  1 and  2.
 Gradient too large for Newton-Raphson -- use scaled steepest descent instead.
 Gradient too large for Newton-Raphson -- use scaled steepest descent instead.
     Accept linear search using points  1 and  2.
     Minimum is close to point  2 DX= -7.99D-02 DF= -3.27D-05 DXR=  8.68D-02 DFR=  7.39D-03 which will be used.
 Gradient too large for Newton-Raphson -- use scaled steepest descent instead.
     Accept linear search using points  1 and  2.
     Minimum is close to point  2 DX= -6.08D-02 DF= -1.86D-05 DXR=  6.48D-02 DFR=  4.34D-03 which will be used.
 Gradient too large for Newton-Raphson -- use scaled steepest descent instead.
     Minimum is close to point  2 DX=  6.27D-02 DF= -1.68D-05 DXR=  6.51D-02 DFR=  4.25D-03 which will be used.
 Gradient too large for Newton-Raphson -- use scaled steepest descent instead.
 Gradient too large for Newton-Raphson -- use scaled steepest descent instead.
     Accept linear search using points  1 and  2.
 Gradient too large for Newton-Raphson -- use scaled steepest descent instead.
     Minimum is close to point  2 DX=  6.28D-02 DF= -1.12D-05 DXR=  5.91D-02 DFR=  3.51D-03 which will be used.
 Gradient too large for Newton-Raphson -- use scaled steepest descent instead.
     Minimum is close to point  2 DX=  8.64D-02 DF= -1.84D-05 DXR=  7.96D-02 DFR=  6.37D-03 which will be used.
 Gradient too large for Newton-Raphson -- use scaled steepest descent instead.
     Accept linear search using points  1 and  2.
     Minimum is close to point  2 DX= -3.35D-02 DF= -3.15D-06 DXR=  3.14D-02 DFR=  1.19D-03 which will be used.
 Gradient too large for Newton-Raphson -- use scaled steepest descent instead.
     Accept linear search using points  1 and  2.
 Gradient too large for Newton-Raphson -- use scaled steepest descent instead.
     Minimum is close to point  2 DX=  3.68D-02 DF= -2.70D-06 DXR=  3.55D-02 DFR=  1.26D-03 which will be used.
 Gradient too large for Newton-Raphson -- use scaled steepest descent instead.
     Minimum is close to point  2 DX=  3.83D-02 DF= -2.57D-06 DXR=  3.69D-02 DFR=  1.36D-03 which will be used.
 Gradient too large for Newton-Raphson -- use scaled steepest descent instead.
     Minimum is close to point  2 DX= -8.39D-03 DF= -1.21D-07 DXR=  8.46D-03 DFR=  7.15D-05 which will be used.
 Gradient too large for Newton-Raphson -- use scaled steepest descent instead.
     Accept linear search using points  1 and  2.
     Minimum is close to point  2 DX= -2.00D-02 DF= -6.05D-07 DXR=  2.04D-02 DFR=  4.08D-04 which will be used.
 Gradient too large for Newton-Raphson -- use scaled steepest descent instead.
     Accept linear search using points  1 and  2.
     Minimum is close to point  2 DX= -4.79D-02 DF= -3.41D-06 DXR=  5.04D-02 DFR=  2.59D-03 which will be used.
 Gradient too large for Newton-Raphson -- use scaled steepest descent instead.
     Accept linear search using points  1 and  2.
     Minimum is close to point  2 DX= -7.24D-02 DF= -6.93D-06 DXR=  7.81D-02 DFR=  6.03D-03 which will be used.
 Gradient too large for Newton-Raphson -- use scaled steepest descent instead.
     Minimum is close to point  2 DX= -5.08D-03 DF= -3.32D-08 DXR=  5.67D-03 DFR=  3.22D-05 which will be used.
 Gradient too large for Newton-Raphson -- use scaled steepest descent instead.
 Gradient too large for Newton-Raphson -- use scaled steepest descent instead.
     Accept linear search using points  1 and  2.
 Gradient too large for Newton-Raphson -- use scaled steepest descent instead.
 Gradient too large for Newton-Raphson -- use scaled steepest descent instead.
     Accept linear search using points  1 and  2.
 Gradient too large for Newton-Raphson -- use scaled steepest descent instead.
 Gradient too large for Newton-Raphson -- use scaled steepest descent instead.
     Accept linear search using points  1 and  2.
 Gradient too large for Newton-Raphson -- use scaled steepest descent instead.
 Gradient too large for Newton-Raphson -- use scaled steepest descent instead.
     Accept linear search using points  1 and  2.
 Gradient too large for Newton-Raphson -- use scaled steepest descent instead.
 Gradient too large for Newton-Raphson -- use scaled steepest descent instead.
     Accept linear search using points  1 and  2.
 Gradient too large for Newton-Raphson -- use scaled steepest descent instead.
 Gradient too large for Newton-Raphson -- use scaled steepest descent instead.
     Accept linear search using points  1 and  2.
 LinEq1:  Iter=  0 NonCon=     1 RMS=3.77D-04 Max=2.33D-02 NDo=     1
 AX will form     1 AO Fock derivatives at one time.
 LinEq1:  Iter=  1 NonCon=     1 RMS=1.57D-04 Max=2.95D-03 NDo=     1
 LinEq1:  Iter=  2 NonCon=     1 RMS=5.88D-05 Max=2.79D-03 NDo=     1
 LinEq1:  Iter=  3 NonCon=     1 RMS=2.05D-05 Max=7.28D-04 NDo=     1
 LinEq1:  Iter=  4 NonCon=     1 RMS=9.58D-06 Max=1.68D-04 NDo=     1
 LinEq1:  Iter=  5 NonCon=     1 RMS=4.32D-06 Max=7.47D-05 NDo=     1
 LinEq1:  Iter=  6 NonCon=     1 RMS=1.69D-06 Max=2.73D-05 NDo=     1
 LinEq1:  Iter=  7 NonCon=     1 RMS=6.23D-07 Max=1.04D-05 NDo=     1
 LinEq1:  Iter=  8 NonCon=     1 RMS=2.21D-07 Max=4.64D-06 NDo=     1
 LinEq1:  Iter=  9 NonCon=     1 RMS=6.52D-08 Max=1.59D-06 NDo=     1
 LinEq1:  Iter= 10 NonCon=     1 RMS=2.09D-08 Max=3.35D-07 NDo=     1
 LinEq1:  Iter= 11 NonCon=     0 RMS=6.55D-09 Max=8.37D-08 NDo=     1
 Linear equations converged to 1.039D-08 1.039D-07 after    11 iterations.
     Accept linear search using points  1 and  2.
     Minimum is close to point  2 DX= -2.23D-02 DF= -5.26D-07 DXR=  2.28D-02 DFR=  5.34D-04 which will be used.
 LinEq1:  Iter=  0 NonCon=     1 RMS=8.20D-05 Max=1.58D-03 NDo=     1
 LinEq1:  Iter=  1 NonCon=     1 RMS=4.02D-05 Max=8.37D-04 NDo=     1
 LinEq1:  Iter=  2 NonCon=     1 RMS=1.34D-05 Max=2.50D-04 NDo=     1
 LinEq1:  Iter=  3 NonCon=     1 RMS=6.50D-06 Max=2.16D-04 NDo=     1
 LinEq1:  Iter=  4 NonCon=     1 RMS=3.40D-06 Max=1.32D-04 NDo=     1
 LinEq1:  Iter=  5 NonCon=     1 RMS=1.91D-06 Max=6.37D-05 NDo=     1
 LinEq1:  Iter=  6 NonCon=     1 RMS=9.18D-07 Max=1.85D-05 NDo=     1
 LinEq1:  Iter=  7 NonCon=     1 RMS=3.09D-07 Max=4.84D-06 NDo=     1
 LinEq1:  Iter=  8 NonCon=     1 RMS=1.00D-07 Max=1.51D-06 NDo=     1
 LinEq1:  Iter=  9 NonCon=     1 RMS=4.57D-08 Max=1.19D-06 NDo=     1
 LinEq1:  Iter= 10 NonCon=     1 RMS=1.96D-08 Max=3.24D-07 NDo=     1
 LinEq1:  Iter= 11 NonCon=     1 RMS=7.71D-09 Max=1.60D-07 NDo=     1
 LinEq1:  Iter= 12 NonCon=     0 RMS=2.65D-09 Max=4.98D-08 NDo=     1
 Linear equations converged to 1.039D-08 1.039D-07 after    12 iterations.
     Minimum is close to point  2 DX=  4.40D-03 DF= -5.97D-10 DXR=  4.38D-03 DFR=  1.92D-05 which will be used.
 LinEq1:  Iter=  0 NonCon=     1 RMS=1.21D-06 Max=2.73D-05 NDo=     1
 LinEq1:  Iter=  1 NonCon=     1 RMS=6.54D-07 Max=2.17D-05 NDo=     1
 LinEq1:  Iter=  2 NonCon=     1 RMS=3.03D-07 Max=1.04D-05 NDo=     1
 LinEq1:  Iter=  3 NonCon=     1 RMS=1.57D-07 Max=5.40D-06 NDo=     1
 LinEq1:  Iter=  4 NonCon=     1 RMS=6.90D-08 Max=1.57D-06 NDo=     1
 LinEq1:  Iter=  5 NonCon=     1 RMS=3.13D-08 Max=9.93D-07 NDo=     1
 LinEq1:  Iter=  6 NonCon=     1 RMS=1.25D-08 Max=1.84D-07 NDo=     1
 LinEq1:  Iter=  7 NonCon=     1 RMS=5.50D-09 Max=9.92D-08 NDo=     1
 LinEq1:  Iter=  8 NonCon=     1 RMS=2.36D-09 Max=5.00D-08 NDo=     1
 LinEq1:  Iter=  9 NonCon=     1 RMS=8.78D-10 Max=1.46D-08 NDo=     1
 LinEq1:  Iter= 10 NonCon=     1 RMS=3.47D-10 Max=6.41D-09 NDo=     1
 LinEq1:  Iter= 11 NonCon=     0 RMS=1.09D-10 Max=1.74D-09 NDo=     1
 Linear equations converged to 5.326D-10 5.326D-09 after    11 iterations.
 SCF Done:  E(RPM6) =  0.968600449969     a.u. after   52 cycles
            Convg  =    0.1015D-05                   149 Fock formations.
              S**2 =  0.0000                  -V/T =  1.0090

 **********************************************************************

            Population analysis using the SCF density.

 **********************************************************************

 Orbital symmetries:
       Occupied  (A) (A) (A) (A) (A) (A) (A) (A) (A) (A) (A) (A)
                 (A) (A) (A) (A) (A) (A) (A) (A) (A) (A) (A) (A)
                 (A) (A) (A) (A) (A) (A) (A) (A) (A) (A) (A) (A)
                 (A) (A) (A) (A) (A) (A) (A) (A) (A) (A) (A) (A)
                 (A) (A) (A) (A) (A) (A) (A) (A) (A) (A) (A) (A)
                 (A) (A) (A) (A) (A) (A) (A) (A) (A) (A) (A) (A)
                 (A) (A) (A)
       Virtual   (A) (A) (A) (A) (A) (A) (A) (A) (A) (A) (A) (A)
                 (A) (A) (A) (A) (A) (A) (A) (A) (A) (A) (A) (A)
                 (A) (A) (A) (A) (A) (A) (A) (A) (A) (A) (A) (A)
                 (A) (A) (A) (A) (A) (A) (A) (A) (A) (A) (A) (A)
                 (A) (A) (A) (A) (A) (A) (A) (A) (A) (A) (A) (A)
                 (A) (A) (A) (A) (A) (A) (A) (A) (A) (A) (A) (A)
 The electronic state is 1-A.
 Alpha  occ. eigenvalues --   -1.33668  -1.17052  -1.06953  -1.06168  -1.03837
 Alpha  occ. eigenvalues --   -1.02519  -0.98987  -0.97993  -0.95651  -0.94120
 Alpha  occ. eigenvalues --   -0.93398  -0.89372  -0.89152  -0.86590  -0.84447
 Alpha  occ. eigenvalues --   -0.83167  -0.80602  -0.77067  -0.76350  -0.74816
 Alpha  occ. eigenvalues --   -0.74044  -0.73207  -0.70480  -0.69135  -0.68847
 Alpha  occ. eigenvalues --   -0.65397  -0.64787  -0.61353  -0.60082  -0.59243
 Alpha  occ. eigenvalues --   -0.57511  -0.55710  -0.55503  -0.53930  -0.52765
 Alpha  occ. eigenvalues --   -0.52189  -0.51944  -0.51688  -0.51519  -0.49077
 Alpha  occ. eigenvalues --   -0.48482  -0.47824  -0.46890  -0.46739  -0.46521
 Alpha  occ. eigenvalues --   -0.45992  -0.45340  -0.44712  -0.44412  -0.44194
 Alpha  occ. eigenvalues --   -0.43793  -0.43426  -0.43060  -0.41861  -0.40589
 Alpha  occ. eigenvalues --   -0.40460  -0.39654  -0.38868  -0.38050  -0.37692
 Alpha  occ. eigenvalues --   -0.37300  -0.36918  -0.36600  -0.36101  -0.35514
 Alpha  occ. eigenvalues --   -0.34560  -0.32617  -0.30566  -0.30326  -0.29423
 Alpha  occ. eigenvalues --   -0.26006  -0.24812  -0.22560  -0.21874  -0.18136
 Alpha virt. eigenvalues --   -0.05111  -0.01126   0.00975   0.01171   0.02453
 Alpha virt. eigenvalues --    0.04044   0.04458   0.06045   0.06647   0.07423
 Alpha virt. eigenvalues --    0.08117   0.09023   0.10507   0.11458   0.12599
 Alpha virt. eigenvalues --    0.13607   0.14141   0.16392   0.16536   0.16961
 Alpha virt. eigenvalues --    0.17923   0.18437   0.18729   0.18952   0.19584
 Alpha virt. eigenvalues --    0.20039   0.20371   0.20603   0.20738   0.21129
 Alpha virt. eigenvalues --    0.21189   0.21387   0.21677   0.21822   0.21953
 Alpha virt. eigenvalues --    0.22091   0.22338   0.22464   0.22556   0.22773
 Alpha virt. eigenvalues --    0.22949   0.23129   0.23422   0.23798   0.23902
 Alpha virt. eigenvalues --    0.24145   0.24294   0.24432   0.24911   0.25100
 Alpha virt. eigenvalues --    0.25250   0.25418   0.25690   0.25860   0.25966
 Alpha virt. eigenvalues --    0.26618   0.26700   0.26919   0.27027   0.27628
 Alpha virt. eigenvalues --    0.28078   0.28103   0.28419   0.28465   0.28544
 Alpha virt. eigenvalues --    0.28740   0.29234   0.29468   0.30073   0.32082
 Alpha virt. eigenvalues --    0.34181   0.34247
          Condensed to atoms (all electrons):
               1          2          3          4          5          6
     1  C    4.121779   0.000000   0.000000   0.000000   0.000000   0.000000
     2  C    0.000000   4.308328   0.000000   0.000000   0.000000   0.000000
     3  C    0.000000   0.000000   3.793653   0.000000   0.000000   0.000000
     4  C    0.000000   0.000000   0.000000   3.705583   0.000000   0.000000
     5  C    0.000000   0.000000   0.000000   0.000000   3.931203   0.000000
     6  C    0.000000   0.000000   0.000000   0.000000   0.000000   4.486709
     7  C    0.000000   0.000000   0.000000   0.000000   0.000000   0.000000
     8  C    0.000000   0.000000   0.000000   0.000000   0.000000   0.000000
     9  C    0.000000   0.000000   0.000000   0.000000   0.000000   0.000000
    10  C    0.000000   0.000000   0.000000   0.000000   0.000000   0.000000
    11  C    0.000000   0.000000   0.000000   0.000000   0.000000   0.000000
    12  C    0.000000   0.000000   0.000000   0.000000   0.000000   0.000000
    13  C    0.000000   0.000000   0.000000   0.000000   0.000000   0.000000
    14  C    0.000000   0.000000   0.000000   0.000000   0.000000   0.000000
    15  C    0.000000   0.000000   0.000000   0.000000   0.000000   0.000000
    16  C    0.000000   0.000000   0.000000   0.000000   0.000000   0.000000
    17  C    0.000000   0.000000   0.000000   0.000000   0.000000   0.000000
    18  C    0.000000   0.000000   0.000000   0.000000   0.000000   0.000000
    19  C    0.000000   0.000000   0.000000   0.000000   0.000000   0.000000
    20  C    0.000000   0.000000   0.000000   0.000000   0.000000   0.000000
    21  C    0.000000   0.000000   0.000000   0.000000   0.000000   0.000000
    22  C    0.000000   0.000000   0.000000   0.000000   0.000000   0.000000
    23  C    0.000000   0.000000   0.000000   0.000000   0.000000   0.000000
    24  C    0.000000   0.000000   0.000000   0.000000   0.000000   0.000000
    25  C    0.000000   0.000000   0.000000   0.000000   0.000000   0.000000
    26  C    0.000000   0.000000   0.000000   0.000000   0.000000   0.000000
    27  C    0.000000   0.000000   0.000000   0.000000   0.000000   0.000000
    28  C    0.000000   0.000000   0.000000   0.000000   0.000000   0.000000
    29  C    0.000000   0.000000   0.000000   0.000000   0.000000   0.000000
    30  H    0.000000   0.000000   0.000000   0.000000   0.000000   0.000000
    31  H    0.000000   0.000000   0.000000   0.000000   0.000000   0.000000
    32  H    0.000000   0.000000   0.000000   0.000000   0.000000   0.000000
    33  H    0.000000   0.000000   0.000000   0.000000   0.000000   0.000000
    34  H    0.000000   0.000000   0.000000   0.000000   0.000000   0.000000
    35  H    0.000000   0.000000   0.000000   0.000000   0.000000   0.000000
    36  H    0.000000   0.000000   0.000000   0.000000   0.000000   0.000000
    37  H    0.000000   0.000000   0.000000   0.000000   0.000000   0.000000
    38  H    0.000000   0.000000   0.000000   0.000000   0.000000   0.000000
    39  H    0.000000   0.000000   0.000000   0.000000   0.000000   0.000000
    40  H    0.000000   0.000000   0.000000   0.000000   0.000000   0.000000
    41  H    0.000000   0.000000   0.000000   0.000000   0.000000   0.000000
    42  H    0.000000   0.000000   0.000000   0.000000   0.000000   0.000000
    43  H    0.000000   0.000000   0.000000   0.000000   0.000000   0.000000
    44  Rh   0.000000   0.000000   0.000000   0.000000   0.000000   0.000000
    45  N    0.000000   0.000000   0.000000   0.000000   0.000000   0.000000
    46  O    0.000000   0.000000   0.000000   0.000000   0.000000   0.000000
               7          8          9         10         11         12
     1  C    0.000000   0.000000   0.000000   0.000000   0.000000   0.000000
     2  C    0.000000   0.000000   0.000000   0.000000   0.000000   0.000000
     3  C    0.000000   0.000000   0.000000   0.000000   0.000000   0.000000
     4  C    0.000000   0.000000   0.000000   0.000000   0.000000   0.000000
     5  C    0.000000   0.000000   0.000000   0.000000   0.000000   0.000000
     6  C    0.000000   0.000000   0.000000   0.000000   0.000000   0.000000
     7  C    4.448502   0.000000   0.000000   0.000000   0.000000   0.000000
     8  C    0.000000   4.617279   0.000000   0.000000   0.000000   0.000000
     9  C    0.000000   0.000000   4.570611   0.000000   0.000000   0.000000
    10  C    0.000000   0.000000   0.000000   4.017290   0.000000   0.000000
    11  C    0.000000   0.000000   0.000000   0.000000   3.659007   0.000000
    12  C    0.000000   0.000000   0.000000   0.000000   0.000000   3.880136
    13  C    0.000000   0.000000   0.000000   0.000000   0.000000   0.000000
    14  C    0.000000   0.000000   0.000000   0.000000   0.000000   0.000000
    15  C    0.000000   0.000000   0.000000   0.000000   0.000000   0.000000
    16  C    0.000000   0.000000   0.000000   0.000000   0.000000   0.000000
    17  C    0.000000   0.000000   0.000000   0.000000   0.000000   0.000000
    18  C    0.000000   0.000000   0.000000   0.000000   0.000000   0.000000
    19  C    0.000000   0.000000   0.000000   0.000000   0.000000   0.000000
    20  C    0.000000   0.000000   0.000000   0.000000   0.000000   0.000000
    21  C    0.000000   0.000000   0.000000   0.000000   0.000000   0.000000
    22  C    0.000000   0.000000   0.000000   0.000000   0.000000   0.000000
    23  C    0.000000   0.000000   0.000000   0.000000   0.000000   0.000000
    24  C    0.000000   0.000000   0.000000   0.000000   0.000000   0.000000
    25  C    0.000000   0.000000   0.000000   0.000000   0.000000   0.000000
    26  C    0.000000   0.000000   0.000000   0.000000   0.000000   0.000000
    27  C    0.000000   0.000000   0.000000   0.000000   0.000000   0.000000
    28  C    0.000000   0.000000   0.000000   0.000000   0.000000   0.000000
    29  C    0.000000   0.000000   0.000000   0.000000   0.000000   0.000000
    30  H    0.000000   0.000000   0.000000   0.000000   0.000000   0.000000
    31  H    0.000000   0.000000   0.000000   0.000000   0.000000   0.000000
    32  H    0.000000   0.000000   0.000000   0.000000   0.000000   0.000000
    33  H    0.000000   0.000000   0.000000   0.000000   0.000000   0.000000
    34  H    0.000000   0.000000   0.000000   0.000000   0.000000   0.000000
    35  H    0.000000   0.000000   0.000000   0.000000   0.000000   0.000000
    36  H    0.000000   0.000000   0.000000   0.000000   0.000000   0.000000
    37  H    0.000000   0.000000   0.000000   0.000000   0.000000   0.000000
    38  H    0.000000   0.000000   0.000000   0.000000   0.000000   0.000000
    39  H    0.000000   0.000000   0.000000   0.000000   0.000000   0.000000
    40  H    0.000000   0.000000   0.000000   0.000000   0.000000   0.000000
    41  H    0.000000   0.000000   0.000000   0.000000   0.000000   0.000000
    42  H    0.000000   0.000000   0.000000   0.000000   0.000000   0.000000
    43  H    0.000000   0.000000   0.000000   0.000000   0.000000   0.000000
    44  Rh   0.000000   0.000000   0.000000   0.000000   0.000000   0.000000
    45  N    0.000000   0.000000   0.000000   0.000000   0.000000   0.000000
    46  O    0.000000   0.000000   0.000000   0.000000   0.000000   0.000000
              13         14         15         16         17         18
     1  C    0.000000   0.000000   0.000000   0.000000   0.000000   0.000000
     2  C    0.000000   0.000000   0.000000   0.000000   0.000000   0.000000
     3  C    0.000000   0.000000   0.000000   0.000000   0.000000   0.000000
     4  C    0.000000   0.000000   0.000000   0.000000   0.000000   0.000000
     5  C    0.000000   0.000000   0.000000   0.000000   0.000000   0.000000
     6  C    0.000000   0.000000   0.000000   0.000000   0.000000   0.000000
     7  C    0.000000   0.000000   0.000000   0.000000   0.000000   0.000000
     8  C    0.000000   0.000000   0.000000   0.000000   0.000000   0.000000
     9  C    0.000000   0.000000   0.000000   0.000000   0.000000   0.000000
    10  C    0.000000   0.000000   0.000000   0.000000   0.000000   0.000000
    11  C    0.000000   0.000000   0.000000   0.000000   0.000000   0.000000
    12  C    0.000000   0.000000   0.000000   0.000000   0.000000   0.000000
    13  C    4.466713   0.000000   0.000000   0.000000   0.000000   0.000000
    14  C    0.000000   4.849586   0.000000   0.000000   0.000000   0.000000
    15  C    0.000000   0.000000   4.553661   0.000000   0.000000   0.000000
    16  C    0.000000   0.000000   0.000000   3.747890   0.000000   0.000000
[...]
 07124,-0.00000648,0.00005648,0.00003571,0.00001331,0.00004759,0.000023
 80,-0.00004931,-0.00012450,-0.00016363,0.00000042,0.00090043,0.,-0.000
 12962,0.00004740,-0.00002440,-0.00004911,-0.00022503,-0.00001034,-0.00
 003357,-0.02637622,0.01415366,0.00256275,0.00005603,-0.00029807,-0.000
 02756,-0.00001386,-0.00004469,-0.00000026,0.00034760,0.00039858,-0.000
 12692,0.00002617,0.00005489,0.00001256,0.00000944,0.00002017,-0.000004
 07,-0.00000389,0.00001460,-0.00000133,-0.00001094,0.00001335,-0.000000
 18,-0.00001166,0.00001447,-0.00000387,-0.00000927,0.,-0.00000118,-0.00
 001166,-0.00001448,-0.00000384,-0.00001095,-0.00001336,-0.00000014,-0.
 00000389,-0.00001459,-0.00000131,0.00000945,-0.00002021,-0.00000404,0.
 00002615,-0.00005486,0.00001264,0.00034760,-0.00039879,-0.00012644,0.2
 7047033,0.00005309,-0.00004138,-0.00001364,-0.00010438,-0.00005208,-0.
 00000037,0.00022142,-0.00010397,-0.00003254,-0.00073039,-0.00232785,0.
 00001009,0.00000660,-0.03475610,-0.00000700,-0.00081127,-0.00012125,0.
 00007116,-0.02973822,-0.00759441,0.00244069,-0.00003134,0.00001631,-0.
 00000066,-0.00002342,0.00001592,-0.00000418,0.00002275,0.00006235,0.00
 001646,0.00002706,-0.00002243,0.00000433,0.00000001,-0.00002751,0.0000
 0003,-0.00010151,-0.00000065,0.00000099,0.00000005,0.00001047,0.000000
 04,0.00002333,0.00001592,0.00000414,0.00000015,-0.00023309,-0.00000027
 ,0.00010139,-0.00000019,-0.00000084,0.00003108,0.00001618,0.00000060,0
 .00073117,-0.00232746,0.00000121,-0.00022157,-0.00010422,0.00003231,-0
 .00005302,-0.00004136,0.00001371,0.00005726,0.00020567,0.00000711,-0.0
 0002694,-0.00002227,-0.00000428,-0.00000025,0.00003873,0.00000003,-0.0
 0005717,0.00020594,-0.00000739,-0.00002245,0.00006214,-0.00001650,0.02
 974139,-0.00759970,-0.00242177,0.00081142,-0.00012159,-0.00007161,0.00
 010429,-0.00005198,0.00000045,0.00084461,-0.00028892,-0.00007405,0.000
 00361,0.00005191,-0.00000319,0.00000141,0.00000437,-0.00000087,0.00000
 166,0.00000210,-0.00000062,-0.00000044,-0.00000002,0.00000026,-0.00000
 007,-0.00000018,-0.00000032,0.,0.00000024,0.,0.00000008,-0.00000017,0.
 00000033,0.00000044,-0.00000001,-0.00000025,-0.00000166,0.00000208,0.0
 0000062,-0.00000141,0.00000439,0.00000087,-0.00000359,0.00005191,0.000
 00330,-0.00084464,-0.00028860,0.00007252,-0.00001041,0.05544006,-0.000
 01428,0.00000789,0.00001390,0.00001030,0.00000222,-0.00000502,-0.00004
 836,0.00005955,-0.00032438,0.00067302,-0.00005549,0.00577939,0.0139096
 7,-0.00000743,-0.04512473,0.00003050,0.00000628,-0.00040563,0.00256341
 ,0.00107510,0.00597482,-0.00003205,0.00001399,-0.00001515,-0.00001091,
 -0.00000009,-0.00000649,0.00003172,-0.00000602,0.00000767,0.00001412,-
 0.00001875,0.00000557,0.00000193,0.00000005,0.00000200,0.00000266,-0.0
 0001431,0.00003564,0.00001313,-0.00000006,-0.00000285,-0.00001099,0.00
 000002,-0.00000650,0.00001138,-0.00000016,-0.00054736,0.00000244,0.000
 01440,0.00003572,-0.00003218,-0.00001409,-0.00001511,0.00067233,0.0000
 6639,0.00577755,-0.00004785,-0.00006007,-0.00032419,-0.00001415,-0.000
 00779,0.00001385,-0.00001399,-0.00004098,-0.00001141,0.00001422,0.0000
 1884,0.00000556,-0.00013951,0.00000009,0.00003641,-0.00001392,0.000040
 61,-0.00001148,0.00003183,0.00000586,0.00000771,0.00252156,-0.00105565
 ,0.00597993,0.00002919,-0.00000638,-0.00040544,0.00001008,-0.00000208,
 -0.00000500,-0.00015641,-0.00004129,-0.00136793,0.00000396,0.00000905,
 0.00012512,-0.00000107,-0.00000232,0.00000356,0.00000071,-0.00000067,0
 .00000339,0.00000119,-0.00000164,0.00000242,0.00000109,-0.00000165,0.0
 0000149,0.00000090,0.,0.00000055,0.00000109,0.00000166,0.00000149,0.00
 000118,0.00000164,0.00000242,0.00000072,0.00000067,0.00000339,-0.00000
 107,0.00000232,0.00000355,0.00000397,-0.00000894,0.00012519,-0.0001553
 3,0.00003982,-0.00136871,-0.01986501,-0.00002078,0.02594517,-0.0166056
 7,0.01224290,0.00433651,0.01395154,0.00648944,0.00062246,-0.00534233,-
 0.01230964,-0.00206878,-0.00050019,-0.00459942,-0.00008678,-0.00053600
 ,0.00002815,0.00011764,0.00364098,0.00232158,-0.00034750,0.00062825,-0
 .00017744,-0.00015883,-0.07319670,0.04131330,-0.00009751,-0.01289489,0
 .00048268,0.00007998,0.07719963,0.01018564,0.00525347,0.00264799,-0.09
 011262,-0.01902897,0.00512113,0.00009818,0.00107617,-0.04244439,0.0624
 1755,0.00615579,-0.14903269,-0.00021565,-0.04056625,-0.01304716,-0.000
 61061,0.00001938,0.00357290,-0.00001178,0.00201022,-0.04244970,-0.0622
 2457,0.00627513,-0.07350749,-0.04147788,-0.00006304,-0.00054793,0.0046
 5206,-0.00009211,-0.00541248,0.01235450,-0.00210235,-0.01665918,-0.012
 29816,0.00436298,-0.03534946,0.00645710,0.01147280,0.00286378,0.090330
 64,-0.01909494,-0.00873332,-0.00001066,0.00113882,-0.03537415,-0.00642
 593,0.01150649,0.07751257,-0.01024200,0.00532173,0.00067092,0.00014442
 ,-0.00016258,0.00370664,-0.00236502,-0.00034710,0.01402034,-0.00651384
 ,0.00063469,-0.00019467,-0.00016381,0.00000829,-0.00028738,-0.00032070
 ,0.00016638,-0.00044150,-0.00092186,0.00001758,0.00018192,-0.00040121,
 -0.00061326,0.00040972,-0.00045235,0.00031449,0.00156072,-0.00095402,-
 0.00078950,-0.00074473,-0.00000119,-0.00046206,0.00155709,0.00095687,-
 0.00078324,0.00040178,0.00044302,0.00030586,0.00018267,0.00039680,-0.0
 0061108,-0.00043927,0.00091567,0.00001321,-0.00028496,0.00031981,0.000
 16386,-0.00019432,0.00016523,0.00000762,-0.00001706,-0.00000022,0.0000
 0413,0.33523464,0.01026358,-0.01051121,-0.00145545,-0.01192272,-0.0049
 7588,-0.00001528,0.01035424,0.01211945,0.00223156,0.01161372,0.0091901
 8,-0.00024973,-0.00000091,0.01276594,-0.00000961,-0.01116703,-0.008668
 65,0.00016240,-0.01056041,-0.00785738,0.00094974,0.05136461,-0.0345119
 3,0.00871900,0.02681235,-0.02202793,0.00659387,-0.05629796,-0.03669373
 ,-0.02412622,-0.04445307,0.04211218,-0.01229754,0.00001298,0.03434566,
 -0.00002750,0.09458067,-0.12973400,-0.01982306,-0.00000502,-0.01892296
 ,0.00006588,-0.02687076,-0.02203768,-0.00656854,0.00000797,-0.00084885
 ,0.00000939,-0.09465770,-0.12940784,0.02014165,-0.05161302,-0.03470358
 ,-0.00863526,-0.01161256,0.00919535,0.00023419,-0.01036459,0.01219780,
 -0.00227946,-0.01032727,-0.01058591,0.00144278,0.03182191,-0.00301876,
 -0.00459413,0.04450797,0.04239059,0.01219743,-0.00000166,-0.00349389,0
 .00000295,-0.03189130,-0.00304055,0.00463970,0.05660451,-0.03663447,0.
 02424811,0.01056185,-0.00785980,-0.00093706,0.01116642,-0.00867782,-0.
 00014604,0.01199140,-0.00499450,0.00002190,-0.00003498,0.00034699,0.00
 010741,-0.00023573,0.00018720,0.00067395,-0.00063539,-0.00141653,0.000
 21947,0.00028423,-0.00002849,0.00028400,0.00095431,-0.00076926,0.00007
 436,0.00000033,0.00063852,0.00031821,-0.00000035,-0.00039429,0.0000012
 3,0.00000689,0.00064578,-0.00031835,-0.00095085,-0.00076478,-0.0000714
 7,-0.00028422,-0.00002975,-0.00028224,0.00063330,-0.00140999,-0.000208
 20,0.00023403,0.00018694,-0.00067635,0.00003418,0.00034715,-0.00010804
 ,0.00000012,-0.00009902,0.00000003,-0.00040034,0.38750155,-0.00098709,
 0.00217282,0.00325225,0.00064614,-0.00053500,-0.00020353,0.00307444,-0
 .00164284,0.00190071,0.00184290,0.00137530,0.00079586,0.00034523,-0.00
 004294,0.00023154,-0.00298620,-0.00094679,-0.00102594,-0.00156506,0.00
 006923,-0.00054396,-0.00622077,0.00360820,-0.00837197,0.00099058,0.000
 88388,-0.00004654,0.00291431,-0.01433780,0.00376353,-0.01211276,-0.018
 43763,0.00320374,-0.00105898,-0.00001108,0.00093711,0.02918543,-0.0493
 3319,-0.05103273,-0.07853493,0.00009858,-0.07040323,0.00100371,-0.0008
 4633,-0.00003096,0.00153412,0.00000597,0.00000679,0.02908866,0.0490877
 5,-0.05064628,-0.00602321,-0.00350224,-0.00829537,0.00190918,-0.001408
 98,0.00079484,0.00312327,0.00159092,0.00189042,-0.00095454,-0.00213031
 ,0.00322719,0.01034533,-0.00101729,-0.00013657,-0.01219946,0.01824699,
 0.00313629,-0.00000474,-0.00000236,-0.00046065,0.01040283,0.00103198,-
 0.00013190,0.00271010,0.01445077,0.00364564,-0.00162719,-0.00002760,-0
 .00053749,-0.00304029,0.00099018,-0.00102140,0.00059344,0.00056291,-0.
 00020253,0.00016103,0.00022397,0.00012546,0.00007795,0.00020350,0.0003
 6763,-0.00001912,-0.00008605,-0.00017727,-0.00032435,0.00014707,0.0000
 9834,-0.00007637,-0.00002479,0.00127619,0.00001662,0.00026451,0.000420
 63,-0.00002969,0.00000023,-0.00017226,0.00001811,-0.00026666,0.0004197
 2,-0.00007038,0.00003429,0.00128460,-0.00032581,-0.00014544,0.00009888
 ,-0.00002089,0.00008960,-0.00017938,0.00007733,-0.00020518,0.00037212,
 0.00016110,-0.00022532,0.00012670,0.00013022,0.00000020,0.00004655,-0.
 03618222,0.00119616,1.03621977,0.00375398,-0.00368393,-0.00226351,-0.0
 0380585,-0.00164178,-0.00014196,0.00119696,0.00353891,0.00055118,-0.00
 005557,0.00153611,0.00006805,0.00013238,0.00000575,-0.00003345,-0.0011
 1790,-0.00089880,0.00001732,-0.00002143,-0.00001649,0.00005342,0.01819
 126,-0.01033302,0.00053214,0.00318770,0.00083187,0.00131399,-0.0169194
 1,-0.00288065,-0.00242836,-0.00644133,0.01579188,0.00056904,-0.0019743
 3,-0.00019373,-0.00070550,-0.01282671,0.01090398,0.02312884,-0.0287658
 0,-0.00006150,-0.04405137,0.00350170,-0.00061405,0.00140110,-0.0024861
 9,0.00002942,0.00002299,-0.01283503,-0.01128132,0.02310664,0.01855138,
 0.01058123,0.00056677,-0.00006503,-0.00158341,0.00007450,0.00123851,-0
 .00360530,0.00059222,0.00383495,0.00377342,-0.00225871,0.00160824,0.00
 199585,0.00095711,-0.00678483,-0.01602322,0.00047216,0.00243875,0.0000
 2817,-0.00049280,0.00166493,-0.00199237,0.00098159,-0.01727452,0.00281
 633,-0.00252090,-0.00000945,0.00001905,0.00005190,-0.00114702,0.000918
 57,0.00000967,-0.00388029,0.00165564,-0.00014397,0.00002989,0.00000088
 ,-0.00000192,0.00004581,0.00002005,-0.00008960,0.00011066,0.00029556,0
 .00009250,0.00011263,0.00009344,0.00021288,-0.00025048,0.00015841,-0.0
 0015305,-0.00038696,0.00042813,0.00030902,0.00026489,0.00000125,-0.000
 01555,-0.00038748,-0.00043203,0.00031051,-0.00024491,-0.00015935,-0.00
 015269,0.00011249,-0.00009311,0.00021553,0.00010621,-0.00028370,0.0000
 9746,0.00004209,-0.00001717,-0.00008511,0.00002921,-0.00000237,-0.0000
 0186,-0.00004314,0.00000012,-0.00000084,-0.01597328,0.00069085,0.05449
 647,0.10578673,-0.00502667,0.00488871,0.00177194,0.00512733,0.00192498
 ,0.00013443,-0.00303694,-0.00468626,-0.00063837,-0.00054777,-0.0028283
 0,-0.00020260,0.00000139,-0.00044770,0.00000281,0.00246631,0.00161870,
 0.00012716,0.00035456,0.00068045,-0.00001991,-0.01847829,0.01062266,-0
 .00264336,-0.00769219,0.00569163,-0.00185448,0.01898028,-0.00366071,0.
 00249545,0.00820896,-0.01461095,-0.00060877,-0.00001915,-0.00922226,0.
 00000921,0.00370111,-0.01959204,-0.03415162,-0.00021537,0.00163057,-0.
 00024702,0.00780303,0.00571207,0.00180205,-0.00000231,0.00478444,0.000
 00273,-0.00390562,-0.01999331,0.03374091,0.01886367,0.01087103,0.00245
 627,0.00053753,-0.00282170,0.00022420,0.00302868,-0.00481077,0.0007036
 3,0.00511784,0.00502250,-0.00178584,-0.00386282,-0.00065440,-0.0000330
 1,-0.00833297,-0.01504001,0.00075175,0.00000114,0.00248530,-0.00000981
 ,0.00387158,-0.00058656,-0.00005743,-0.01932059,-0.00376854,-0.0023894
 2,-0.00034932,0.00067941,0.00000149,-0.00244323,0.00161947,-0.00016152
 ,-0.00522863,0.00194236,-0.00014721,0.00002975,-0.00007840,-0.00000879
 ,0.00019107,0.00012849,-0.00025607,0.00021654,0.00055944,0.00006057,0.
 00006725,0.00007839,0.00005026,-0.00046176,0.00031509,-0.00036432,0.00
 002248,-0.00015208,-0.00011199,-0.00000033,0.00009856,0.00000224,-0.00
 004272,-0.00016411,0.00013294,0.00045817,0.00031300,0.00038143,-0.0000
 6233,0.00007442,-0.00004062,-0.00021186,0.00054719,-0.00006385,-0.0001
 8763,0.00012804,0.00026528,-0.00002920,-0.00007793,0.00001338,-0.00000
 067,0.00001735,0.00000084,0.00076205,-0.02625653,-0.00040877,-0.001034
 84,0.09133250,-0.00119345,-0.00112291,-0.00057120,0.00156170,0.0021309
 7,-0.00019017,-0.00458833,-0.00018075,0.00058117,-0.00145566,-0.003264
 39,0.00040978,-0.00029954,0.00008315,0.00014629,0.00433798,0.00240522,
 -0.00117319,0.00125768,0.00006636,-0.00061285,0.00137347,-0.00288754,-
 0.00325397,-0.00067459,-0.00064463,-0.00242814,0.00413534,0.00754764,0
 .00042614,0.00299515,0.01028612,0.00274101,0.00079145,0.00002163,0.000
 76216,0.00842380,-0.01832378,-0.00589635,-0.02230275,-0.00022823,-0.01
 465571,-0.00070831,0.00057214,-0.00243806,0.00213420,-0.00002591,0.001
 50483,0.00861359,0.01901288,-0.00656129,0.00086439,0.00262780,-0.00335
 759,-0.00158806,0.00335681,0.00041041,-0.00472006,0.00031386,0.0005748
 6,-0.00131244,0.00101025,-0.00054221,-0.00566937,-0.00315572,-0.001970
 93,0.00310148,-0.00978640,0.00266840,-0.00240263,-0.00000628,-0.000013
 02,-0.00576912,0.00313146,-0.00194254,0.00466310,-0.00761622,0.0005191
 4,0.00138055,-0.00015330,-0.00062495,0.00446882,-0.00250750,-0.0011810
 5,0.00170945,-0.00220139,-0.00018519,-0.00012454,-0.00016377,0.0001634
 6,0.00001512,-0.00005990,0.00027501,0.00005680,0.00010196,0.00022239,0
 .00021229,-0.00003499,0.00025099,0.00020827,-0.00056906,0.00101136,-0.
 00009368,-0.00018691,0.00041619,-0.00009108,-0.00000070,0.00020155,-0.
 00009510,0.00019372,0.00041468,0.00019376,0.00055133,0.00097969,0.0002
 1494,0.00003244,0.00024983,0.00006138,-0.00011202,0.00022022,0.0000182
 4,0.00006274,0.00026837,-0.00012438,0.00016723,0.00016166,-0.00007037,
 -0.00000035,0.00005684,0.05318966,-0.00108264,-0.74535247,-0.10505358,
 0.00769247,1.35034365,0.00003101,0.00007549,0.00028598,0.00012140,0.00
 007960,0.00001837,-0.00011084,-0.00004297,0.00000790,-0.00002384,-0.00
 021612,-0.00007265,-0.00000971,-0.00000847,-0.00001568,0.00020534,0.00
 011705,0.00007021,0.00000139,0.00001518,0.00005178,-0.00086589,0.00069
 396,-0.00096630,0.00026553,-0.00020261,-0.00065047,0.00089478,0.001046
 49,0.00074261,-0.00023525,-0.00155579,0.00050974,0.00007967,0.00008934
 ,0.00019772,0.00221910,0.00033522,-0.00389214,0.00451527,0.00004721,0.
 00441592,0.00012150,0.00010402,-0.00069067,0.00028821,-0.00001330,-0.0
 0008821,0.00220455,-0.00017996,-0.00387792,-0.00100432,-0.00079695,-0.
 00099421,-0.00001127,0.00023188,-0.00007572,-0.00012164,0.00007083,-0.
 00000746,-0.00000123,-0.00011354,0.00027889,-0.00010132,-0.00063121,-0
 .00017672,-0.00009113,0.00164673,0.00056090,-0.00032238,-0.00001275,0.
 00013041,-0.00013033,0.00062688,-0.00018538,0.00102892,-0.00101183,0.0
 0078202,-0.00001178,-0.00001085,0.00005348,0.00021031,-0.00012024,0.00
 007485,0.00014981,-0.00008266,0.00001873,0.00000210,0.00000554,-0.0000
 1325,0.00000608,0.00000315,-0.00000194,-0.00000819,-0.00001701,-0.0000
 3607,-0.00002809,0.00002400,0.00000656,-0.00004756,0.00002196,0.000130
 69,-0.00003290,-0.00000321,0.00011939,-0.00004537,-0.00000052,0.000047
 80,-0.00003201,0.00000556,0.00011759,-0.00004879,-0.00001996,0.0001302
 2,-0.00002791,-0.00002341,0.00000493,-0.00000615,0.00001170,-0.0000378
 0,0.00000773,-0.00000465,-0.00000328,0.00000241,-0.00000508,-0.0000131
 0,0.00001106,-0.00000004,-0.00000493,0.00515714,-0.00021396,0.00953030
 ,-0.03224831,0.00068175,0.05232763,0.01803863,0.00083666,-0.00055818,-
 0.00049278,-0.00085641,-0.00045651,-0.00009793,0.00063751,0.00063559,0
 .00006560,0.00004957,0.00042197,0.00005428,-0.00000019,-0.00002683,-0.
 00000198,-0.00049547,-0.00018540,-0.00006449,-0.00000084,-0.00002078,-
 0.00001793,0.00207777,-0.00061984,-0.00074450,-0.00057892,0.00038237,-
 0.00020528,-0.00266785,-0.00011104,0.00026993,0.00050788,0.00151432,0.
 00097708,0.00000677,-0.00081066,-0.00000365,-0.00042059,0.00353899,0.0
 0413802,0.00007467,-0.00028654,0.00017201,0.00052783,0.00037142,0.0002
 4588,-0.00000238,-0.00105017,-0.00000699,0.00055534,0.00374645,-0.0038
 3970,-0.00225920,-0.00072267,0.00089033,-0.00004137,0.00040498,-0.0000
 6866,-0.00061652,0.00069581,-0.00010250,-0.00087476,-0.00062639,0.0004
 9996,0.00084178,0.00032849,-0.00023250,-0.00046269,0.00173575,-0.00107
 930,0.00000545,-0.00031602,0.00000559,-0.00082310,0.00028494,0.0002840
 5,0.00280314,-0.00003614,-0.00034770,-0.00000448,-0.00001931,0.0000321
 0,0.00046980,-0.00017476,0.00009168,0.00090024,-0.00045502,0.00010712,
 -0.00000656,-0.00000203,-0.00000818,-0.00003372,-0.00004703,0.00000487
 ,-0.00001728,-0.00006234,-0.00005538,0.00000315,-0.00005238,-0.0001078
 3,0.00011473,-0.00017718,-0.00005868,0.00002698,-0.00002387,-0.0000790
 1,0.00000071,-0.00000725,-0.00000174,-0.00001626,-0.00001831,0.0000644
 7,-0.00011235,-0.00017591,0.00003888,-0.00000592,-0.00004906,0.0000995
 6,0.00001444,-0.00005522,0.00005438,0.00003153,-0.00004622,-0.00001209
 ,0.00000651,-0.00000243,0.00000452,0.00000026,-0.00000314,-0.00000066,
 -0.00026486,0.00616119,-0.00075136,0.00071735,-0.02429649,-0.00705171,
 -0.00064789,0.01126953,0.00042459,0.00082742,0.00005317,-0.00027751,-0
 .00094522,0.00021842,0.00157250,-0.00037277,-0.00074584,0.00030036,0.0
 0127104,-0.00046970,0.00005422,-0.00001188,-0.00015413,-0.00148404,-0.
 00091545,0.00098403,-0.00022373,-0.00006522,0.00053170,-0.00151529,0.0
 0107339,0.00420219,-0.00048196,0.00040472,0.00160489,-0.00112345,-0.00
 336934,-0.00175571,-0.00049482,-0.00460739,-0.00324235,-0.00021838,-0.
 00000425,-0.00059909,0.00083962,-0.00110938,0.00738955,-0.00050212,0.0
 0002462,0.00935153,-0.00047444,-0.00038762,0.00161009,-0.00076821,0.00
 000234,-0.00080978,0.00085742,0.00101132,0.00759427,-0.00139825,-0.001
 00209,0.00422707,0.00033197,-0.00129263,-0.00046949,0.00160191,0.00033
 961,-0.00074588,0.00045484,-0.00080043,0.00004705,0.00227279,0.0015593
 3,0.00120574,-0.00050343,0.00448497,-0.00323189,0.00110994,0.00000071,
 0.00027262,0.00229157,-0.00154781,0.00120247,-0.00125034,0.00336375,-0
 .00177989,-0.00025342,0.00008714,0.00053492,-0.00151334,0.00094115,0.0
 0098598,-0.00031221,0.00096119,0.00021577,0.00000982,0.00001779,-0.000
 13872,-0.00006485,-0.00003569,-0.00024888,-0.00007477,-0.00015978,-0.0
 0010631,-0.00008254,-0.00006705,-0.00022105,-0.00000524,0.00013697,-0.
 00079650,0.00018496,-0.00002012,-0.00038045,0.00012069,0.00000015,-0.0
 0009080,0.00018474,0.00001784,-0.00037994,-0.00000225,-0.00013477,-0.0
 0078878,-0.00008317,0.00006711,-0.00022024,-0.00007601,0.00016219,-0.0
 0010593,-0.00006550,0.00003430,-0.00024697,0.00000981,-0.00001893,-0.0
 0013818,-0.00000323,0.00000005,-0.00004867,0.00907783,-0.00062362,-0.1
 2866338,0.05039371,-0.00661854,-0.57305094,-0.05881024,0.00733232,0.67
 741544||-0.00000065,-0.00000178,-0.00000318,0.00000334,-0.00000017,0.0
 0000102,-0.00002560,0.00001379,0.00000582,-0.00000789,-0.00001036,-0.0
 0000024,-0.00000288,-0.00001087,0.00000094,0.00001919,0.00000860,0.000
 00016,0.00001751,0.00000520,-0.00000159,0.00000912,0.00000007,-0.00000
 177,0.00000969,0.00000480,0.00000048,-0.00001454,-0.00001778,0.0000113
 9,-0.00000551,0.00000832,0.00000908,-0.00000238,0.00000321,0.00000200,
 -0.00002016,0.00003658,0.00001709,-0.00000659,0.00001246,-0.00003128,0
 .00000729,-0.00000327,-0.00000045,-0.00001302,-0.00001539,0.00000688,-
 0.00003368,-0.00002881,0.00003110,0.00000592,-0.00000278,-0.00000096,0
 .00000979,0.00001271,-0.00000179,-0.00001102,-0.00001083,0.00000625,0.
 00000717,0.00001082,-0.00000362,0.00000593,0.00000456,-0.00001386,-0.0
 0001579,-0.00000342,0.00000012,-0.00002046,-0.00000317,0.00000281,0.00
 002241,0.00001562,-0.00001715,-0.00001036,0.00000137,0.00000621,-0.000
 00599,0.00000420,-0.00000070,0.00001405,-0.00000989,-0.00000079,-0.000
 00552,0.00001131,-0.00000490,0.00000085,0.00000063,0.00000043,-0.00000
 240,0.00000367,0.00000119,0.00000329,-0.00000007,0.00000003,-0.0000040
 7,0.00000022,0.00000261,-0.00000132,0.00000310,0.00000091,-0.00000231,
 -0.00000078,-0.00000050,-0.00000128,0.00000158,-0.00000122,0.00000038,
 -0.00000544,-0.00000209,0.00000259,0.00000158,0.00000610,0.00000171,0.
 00000260,0.00000486,-0.00000015,-0.00000062,-0.00000270,-0.00000319,-0
 .00000438,-0.00000084,-0.00000257,-0.00000131,-0.00000031,0.00000359,0
 .00000168,-0.00000085,0.00023931,0.00019629,-0.00003187,-0.00034883,-0
 .00050584,0.00000971,0.00018505,0.00027200,-0.00000455|||@


 LOVE IS BLIND, THAT'S WHY ALL THE WORLD LOVES A LOUVER.
 Job cpu time:       0 days  0 hours  0 minutes  9.0 seconds.
 File lengths (MBytes):  RWF=    455 Int=      0 D2E=      0 Chk=      5 Scr=      1
 Normal termination of Gaussian 09 at Sat Mar 14 12:02:25 2026.
