 Entering Link 1 = C:\Gaussian\G09W\l1.exe PID=     23632.
  
 Copyright (c) 1988,1990,1992,1993,1995,1998,2003,2009,2013,
            Gaussian, Inc.  All Rights Reserved.
  
 This is part of the Gaussian(R) 09 program.  It is based on
 the Gaussian(R) 03 system (copyright 2003, Gaussian, Inc.),
 the Gaussian(R) 98 system (copyright 1998, Gaussian, Inc.),
 the Gaussian(R) 94 system (copyright 1995, Gaussian, Inc.),
 the Gaussian 92(TM) system (copyright 1992, Gaussian, Inc.),
 the Gaussian 90(TM) system (copyright 1990, Gaussian, Inc.),
 the Gaussian 88(TM) system (copyright 1988, Gaussian, Inc.),
 the Gaussian 86(TM) system (copyright 1986, Carnegie Mellon
 University), and the Gaussian 82(TM) system (copyright 1983,
 Carnegie Mellon University). Gaussian is a federally registered
 trademark of Gaussian, Inc.
  
 This software contains proprietary and confidential information,
 including trade secrets, belonging to Gaussian, Inc.
  
 This software is provided under written license and may be
 used, copied, transmitted, or stored only in accord with that
 written license.
  
 The following legend is applicable only to US Government
 contracts under FAR:
  
                    RESTRICTED RIGHTS LEGEND
  
 Use, reproduction and disclosure by the US Government is
 subject to restrictions as set forth in subparagraphs (a)
 and (c) of the Commercial Computer Software - Restricted
 Rights clause in FAR 52.227-19.
  
 Gaussian, Inc.
 340 Quinnipiac St., Bldg. 40, Wallingford CT 06492
  
  
 ---------------------------------------------------------------
 Warning -- This program may not be used in any manner that
 competes with the business of Gaussian, Inc. or will provide
 assistance to any competitor of Gaussian, Inc.  The licensee
 of this program is prohibited from giving any competitor of
 Gaussian, Inc. access to this program.  By using this program,
 the user acknowledges that Gaussian, Inc. is engaged in the
 business of creating and licensing software in the field of
 computational chemistry and represents and warrants to the
 licensee that it is not a competitor of Gaussian, Inc. and that
 it will not use this program in any manner prohibited above.
 ---------------------------------------------------------------
  

 Cite this work as:
 Gaussian 09, Revision D.01,
 M. J. Frisch, G. W. Trucks, H. B. Schlegel, G. E. Scuseria, 
 M. A. Robb, J. R. Cheeseman, G. Scalmani, V. Barone, B. Mennucci, 
 G. A. Petersson, H. Nakatsuji, M. Caricato, X. Li, H. P. Hratchian, 
 A. F. Izmaylov, J. Bloino, G. Zheng, J. L. Sonnenberg, M. Hada, 
 M. Ehara, K. Toyota, R. Fukuda, J. Hasegawa, M. Ishida, T. Nakajima, 
 Y. Honda, O. Kitao, H. Nakai, T. Vreven, J. A. Montgomery, Jr., 
 J. E. Peralta, F. Ogliaro, M. Bearpark, J. J. Heyd, E. Brothers, 
 K. N. Kudin, V. N. Staroverov, T. Keith, R. Kobayashi, J. Normand, 
 K. Raghavachari, A. Rendell, J. C. Burant, S. S. Iyengar, J. Tomasi, 
 M. Cossi, N. Rega, J. M. Millam, M. Klene, J. E. Knox, J. B. Cross, 
 V. Bakken, C. Adamo, J. Jaramillo, R. Gomperts, R. E. Stratmann, 
 O. Yazyev, A. J. Austin, R. Cammi, C. Pomelli, J. W. Ochterski, 
 R. L. Martin, K. Morokuma, V. G. Zakrzewski, G. A. Voth, 
 P. Salvador, J. J. Dannenberg, S. Dapprich, A. D. Daniels, 
 O. Farkas, J. B. Foresman, J. V. Ortiz, J. Cioslowski, 
 and D. J. Fox, Gaussian, Inc., Wallingford CT, 2013.
 
 ******************************************
 Gaussian 09:  IA32W-G09RevD.01 24-Apr-2013
                11-Mar-2026 
 ******************************************
 %chk=C:\Users\User\Desktop\IMRG\ECE+ML\Rh_Gr_NS.chk
 ---------------------------------------
 # opt freq pm6 scf=qc geom=connectivity
 ---------------------------------------
 1/14=-1,18=20,19=15,26=1,38=1,57=2/1,3;
 2/9=110,12=2,17=6,18=5,40=1/2;
 3/5=2,16=1,25=1,41=3900000,71=1/1,2,3;
 4/35=1/1;
 5/5=2,8=3,35=1,38=5/8;
 6/7=2,8=2,9=2,10=2,28=1/1;
 7//1,2,3,16;
 1/14=-1,18=20,19=15,26=1/3(2);
 2/9=110/2;
 99//99;
 2/9=110/2;
 3/5=2,16=1,25=1,41=3900000,71=1,135=20/1,2,3;
 4/5=5,16=3,35=1/1;
 5/5=2,8=3,35=1,38=5/8;
 7//1,2,3,16;
 1/14=-1,18=20,19=15,26=1/3(-5);
 2/9=110/2;
 6/7=2,8=2,9=2,10=2,19=2,28=1/1;
 99/9=1/99;
 --------
 Rh_Gr_NS
 --------
 Symbolic Z-matrix:
 Charge =  0 Multiplicity = 2
 C                    -1.48734   1.25527   0. 
 C                    -0.11458   1.26757   0.00021 
 C                     0.63784   2.49562   0.00024 
 C                     2.76155   3.73782  -0.0001 
 C                     4.87637   4.98541  -0.00058 
 C                     2.0603    2.51615  -0.00001 
 C                     4.19236   3.77104  -0.00038 
 C                    -3.68033   2.52318  -0.00036 
 C                    -5.85442   3.76459  -0.00032 
 C                    -2.22717   2.49171  -0.00016 
 C                    -4.4314    3.73294  -0.00038 
 C                    -6.52317   4.98925  -0.00022 
 C                    -1.49723   3.66543   0.00004 
 C                    -3.77063   4.98776  -0.00006 
 C                    -5.83173   6.21539  -0.00016 
 C                     0.61876   4.98443   0.00024 
 C                    -1.48853   6.30241   0.00019 
 C                    -3.64606   7.47395  -0.00004 
 C                     2.76334   6.23383  -0.00007 
 C                     0.64426   7.4887    0.0001 
 C                    -1.48605   8.7395   -0.00011 
 C                    -0.07268   3.72258   0.00025 
 C                    -4.42338   6.2256   -0.00018 
 C                     2.03942   4.98572   0.00009 
 C                    -0.08682   6.24592   0.00026 
 C                    -2.24783   7.50962   0.00012 
 C                     4.18329   6.20584  -0.00024 
 C                     2.05117   7.46407  -0.0001 
 C                    -0.10808   8.71832  -0.00011 
 H                     4.73683   7.14171  -0.00013 
 H                     2.60821   8.39816  -0.00027 
 H                     0.45062   9.65387  -0.00038 
 H                    -2.02415   9.68484  -0.0001 
 H                    -4.21082   8.4023   -0.00019 
 H                    -6.39162   7.1481   -0.0001 
 H                    -7.61353   5.00188  -0.00006 
 H                    -6.41745   2.83421  -0.00027 
 H                    -4.20834   1.57407  -0.00036 
 H                    -2.035     0.31468   0.00008 
 H                     0.44259   0.33017   0.00001 
 H                     2.60785   1.57708  -0.00018 
 H                     4.74181   2.8329   -0.00058 
 H                     5.96597   4.99136  -0.0008 
 Rh                   -2.25175   4.98582   0.00002 
 

 GradGradGradGradGradGradGradGradGradGradGradGradGradGradGradGradGradGrad
 Berny optimization.
 Initialization pass.
                           ----------------------------
                           !    Initial Parameters    !
                           ! (Angstroms and Degrees)  !
 --------------------------                            --------------------------
 ! Name  Definition              Value          Derivative Info.                !
 --------------------------------------------------------------------------------
 ! R1    R(1,2)                  1.3728         estimate D2E/DX2                !
 ! R2    R(1,10)                 1.4409         estimate D2E/DX2                !
 ! R3    R(1,39)                 1.0884         estimate D2E/DX2                !
 ! R4    R(2,3)                  1.4402         estimate D2E/DX2                !
 ! R5    R(2,40)                 1.0905         estimate D2E/DX2                !
 ! R6    R(3,6)                  1.4226         estimate D2E/DX2                !
 ! R7    R(3,22)                 1.4178         estimate D2E/DX2                !
 ! R8    R(4,6)                  1.4086         estimate D2E/DX2                !
 ! R9    R(4,7)                  1.4312         estimate D2E/DX2                !
 ! R10   R(4,24)                 1.4418         estimate D2E/DX2                !
 ! R11   R(5,7)                  1.3938         estimate D2E/DX2                !
 ! R12   R(5,27)                 1.4035         estimate D2E/DX2                !
 ! R13   R(5,43)                 1.0896         estimate D2E/DX2                !
 ! R14   R(6,41)                 1.087          estimate D2E/DX2                !
 ! R15   R(7,42)                 1.0872         estimate D2E/DX2                !
 ! R16   R(8,10)                 1.4535         estimate D2E/DX2                !
 ! R17   R(8,11)                 1.4239         estimate D2E/DX2                !
 ! R18   R(8,38)                 1.0861         estimate D2E/DX2                !
 ! R19   R(9,11)                 1.4234         estimate D2E/DX2                !
 ! R20   R(9,12)                 1.3954         estimate D2E/DX2                !
 ! R21   R(9,37)                 1.0875         estimate D2E/DX2                !
 ! R22   R(10,13)                1.3822         estimate D2E/DX2                !
 ! R23   R(11,14)                1.4182         estimate D2E/DX2                !
 ! R24   R(12,15)                1.4077         estimate D2E/DX2                !
 ! R25   R(12,36)                1.0904         estimate D2E/DX2                !
 ! R26   R(13,22)                1.4257         estimate D2E/DX2                !
 ! R27   R(13,44)                1.5208         estimate D2E/DX2                !
 ! R28   R(14,23)                1.3994         estimate D2E/DX2                !
 ! R29   R(14,44)                1.5189         estimate D2E/DX2                !
 ! R30   R(15,23)                1.4084         estimate D2E/DX2                !
 ! R31   R(15,35)                1.0879         estimate D2E/DX2                !
 ! R32   R(16,22)                1.4389         estimate D2E/DX2                !
 ! R33   R(16,24)                1.4207         estimate D2E/DX2                !
 ! R34   R(16,25)                1.4454         estimate D2E/DX2                !
 ! R35   R(17,25)                1.4028         estimate D2E/DX2                !
 ! R36   R(17,26)                1.4261         estimate D2E/DX2                !
 ! R37   R(17,44)                1.5218         estimate D2E/DX2                !
 ! R38   R(18,23)                1.4706         estimate D2E/DX2                !
 ! R39   R(18,26)                1.3987         estimate D2E/DX2                !
 ! R40   R(18,34)                1.0866         estimate D2E/DX2                !
 ! R41   R(19,24)                1.4429         estimate D2E/DX2                !
 ! R42   R(19,27)                1.4202         estimate D2E/DX2                !
 ! R43   R(19,28)                1.4215         estimate D2E/DX2                !
 ! R44   R(20,25)                1.4419         estimate D2E/DX2                !
 ! R45   R(20,28)                1.4071         estimate D2E/DX2                !
 ! R46   R(20,29)                1.4415         estimate D2E/DX2                !
 ! R47   R(21,26)                1.4467         estimate D2E/DX2                !
 ! R48   R(21,29)                1.3781         estimate D2E/DX2                !
 ! R49   R(21,33)                1.0878         estimate D2E/DX2                !
 ! R50   R(27,30)                1.0873         estimate D2E/DX2                !
 ! R51   R(28,31)                1.0876         estimate D2E/DX2                !
 ! R52   R(29,32)                1.0897         estimate D2E/DX2                !
 ! A1    A(2,1,10)             120.3811         estimate D2E/DX2                !
 ! A2    A(2,1,39)             120.7234         estimate D2E/DX2                !
 ! A3    A(10,1,39)            118.8954         estimate D2E/DX2                !
 ! A4    A(1,2,3)              122.0091         estimate D2E/DX2                !
 ! A5    A(1,2,40)             120.2126         estimate D2E/DX2                !
 ! A6    A(3,2,40)             117.7783         estimate D2E/DX2                !
 ! A7    A(2,3,6)              122.323          estimate D2E/DX2                !
 ! A8    A(2,3,22)             118.4295         estimate D2E/DX2                !
 ! A9    A(6,3,22)             119.2474         estimate D2E/DX2                !
 ! A10   A(6,4,7)              121.1867         estimate D2E/DX2                !
 ! A11   A(6,4,24)             120.0864         estimate D2E/DX2                !
 ! A12   A(7,4,24)             118.7269         estimate D2E/DX2                !
 ! A13   A(7,5,27)             121.017          estimate D2E/DX2                !
 ! A14   A(7,5,43)             119.7036         estimate D2E/DX2                !
 ! A15   A(27,5,43)            119.2794         estimate D2E/DX2                !
 ! A16   A(3,6,4)              120.6839         estimate D2E/DX2                !
 ! A17   A(3,6,41)             119.4183         estimate D2E/DX2                !
 ! A18   A(4,6,41)             119.8978         estimate D2E/DX2                !
 ! A19   A(4,7,5)              120.7208         estimate D2E/DX2                !
 ! A20   A(4,7,42)             119.0266         estimate D2E/DX2                !
 ! A21   A(5,7,42)             120.2526         estimate D2E/DX2                !
 ! A22   A(10,8,11)            123.0746         estimate D2E/DX2                !
 ! A23   A(10,8,38)            117.8469         estimate D2E/DX2                !
 ! A24   A(11,8,38)            119.0785         estimate D2E/DX2                !
 ! A25   A(11,9,12)            119.9113         estimate D2E/DX2                !
 ! A26   A(11,9,37)            119.9067         estimate D2E/DX2                !
 ! A27   A(12,9,37)            120.182          estimate D2E/DX2                !
 ! A28   A(1,10,8)             122.1353         estimate D2E/DX2                !
 ! A29   A(1,10,13)            117.2279         estimate D2E/DX2                !
 ! A30   A(8,10,13)            120.6368         estimate D2E/DX2                !
 ! A31   A(8,11,9)             123.1078         estimate D2E/DX2                !
 ! A32   A(8,11,14)            120.3955         estimate D2E/DX2                !
 ! A33   A(9,11,14)            116.4967         estimate D2E/DX2                !
 ! A34   A(9,12,15)            121.9432         estimate D2E/DX2                !
 ! A35   A(9,12,36)            119.3009         estimate D2E/DX2                !
 ! A36   A(15,12,36)           118.7559         estimate D2E/DX2                !
 ! A37   A(10,13,22)           124.1752         estimate D2E/DX2                !
 ! A38   A(10,13,44)           118.3771         estimate D2E/DX2                !
 ! A39   A(22,13,44)           117.4477         estimate D2E/DX2                !
 ! A40   A(11,14,23)           124.4256         estimate D2E/DX2                !
 ! A41   A(11,14,44)           117.6975         estimate D2E/DX2                !
 ! A42   A(23,14,44)           117.8769         estimate D2E/DX2                !
 ! A43   A(12,15,23)           119.8349         estimate D2E/DX2                !
 ! A44   A(12,15,35)           119.6049         estimate D2E/DX2                !
 ! A45   A(23,15,35)           120.5602         estimate D2E/DX2                !
 ! A46   A(22,16,24)           118.7733         estimate D2E/DX2                !
 ! A47   A(22,16,25)           122.0594         estimate D2E/DX2                !
 ! A48   A(24,16,25)           119.1674         estimate D2E/DX2                !
 ! A49   A(25,17,26)           124.4765         estimate D2E/DX2                !
 ! A50   A(25,17,44)           117.7927         estimate D2E/DX2                !
 ! A51   A(26,17,44)           117.7308         estimate D2E/DX2                !
 ! A52   A(23,18,26)           123.3713         estimate D2E/DX2                !
 ! A53   A(23,18,34)           116.7761         estimate D2E/DX2                !
 ! A54   A(26,18,34)           119.8525         estimate D2E/DX2                !
 ! A55   A(24,19,27)           118.9848         estimate D2E/DX2                !
 ! A56   A(24,19,28)           119.8195         estimate D2E/DX2                !
 ! A57   A(27,19,28)           121.1957         estimate D2E/DX2                !
 ! A58   A(25,20,28)           119.4641         estimate D2E/DX2                !
 ! A59   A(25,20,29)           118.073          estimate D2E/DX2                !
 ! A60   A(28,20,29)           122.4629         estimate D2E/DX2                !
 ! A61   A(26,21,29)           120.8936         estimate D2E/DX2                !
 ! A62   A(26,21,33)           118.5771         estimate D2E/DX2                !
 ! A63   A(29,21,33)           120.5293         estimate D2E/DX2                !
 ! A64   A(3,22,13)            117.777          estimate D2E/DX2                !
 ! A65   A(3,22,16)            121.2041         estimate D2E/DX2                !
 ! A66   A(13,22,16)           121.0189         estimate D2E/DX2                !
 ! A67   A(14,23,15)           117.3883         estimate D2E/DX2                !
 ! A68   A(14,23,18)           120.2865         estimate D2E/DX2                !
 ! A69   A(15,23,18)           122.3252         estimate D2E/DX2                !
 ! A70   A(4,24,16)            120.005          estimate D2E/DX2                !
 ! A71   A(4,24,19)            119.8289         estimate D2E/DX2                !
 ! A72   A(16,24,19)           120.1662         estimate D2E/DX2                !
 ! A73   A(16,25,17)           121.5273         estimate D2E/DX2                !
 ! A74   A(16,25,20)           120.3138         estimate D2E/DX2                !
 ! A75   A(17,25,20)           118.159          estimate D2E/DX2                !
 ! A76   A(17,26,18)           120.707          estimate D2E/DX2                !
 ! A77   A(17,26,21)           116.0575         estimate D2E/DX2                !
 ! A78   A(18,26,21)           123.2355         estimate D2E/DX2                !
 ! A79   A(5,27,19)            120.7216         estimate D2E/DX2                !
 ! A80   A(5,27,30)            119.8045         estimate D2E/DX2                !
 ! A81   A(19,27,30)           119.4739         estimate D2E/DX2                !
 ! A82   A(19,28,20)           121.0692         estimate D2E/DX2                !
 ! A83   A(19,28,31)           119.1239         estimate D2E/DX2                !
 ! A84   A(20,28,31)           119.8069         estimate D2E/DX2                !
 ! A85   A(20,29,21)           122.3405         estimate D2E/DX2                !
 ! A86   A(20,29,32)           117.6945         estimate D2E/DX2                !
 ! A87   A(21,29,32)           119.965          estimate D2E/DX2                !
 ! A88   A(13,44,14)           119.8184         estimate D2E/DX2                !
 ! A89   A(13,44,17)           120.1541         estimate D2E/DX2                !
 ! A90   A(14,44,17)           120.0275         estimate D2E/DX2                !
 ! D1    D(10,1,2,3)            -0.0025         estimate D2E/DX2                !
 ! D2    D(10,1,2,40)         -179.9806         estimate D2E/DX2                !
 ! D3    D(39,1,2,3)          -179.9941         estimate D2E/DX2                !
 ! D4    D(39,1,2,40)            0.0278         estimate D2E/DX2                !
 ! D5    D(2,1,10,8)          -179.9988         estimate D2E/DX2                !
 ! D6    D(2,1,10,13)           -0.0059         estimate D2E/DX2                !
 ! D7    D(39,1,10,8)           -0.0071         estimate D2E/DX2                !
 ! D8    D(39,1,10,13)         179.9859         estimate D2E/DX2                !
 ! D9    D(1,2,3,6)           -179.9775         estimate D2E/DX2                !
 ! D10   D(1,2,3,22)             0.0102         estimate D2E/DX2                !
 ! D11   D(40,2,3,6)             0.0012         estimate D2E/DX2                !
 ! D12   D(40,2,3,22)          179.9889         estimate D2E/DX2                !
 ! D13   D(2,3,6,4)            179.9947         estimate D2E/DX2                !
 ! D14   D(2,3,6,41)            -0.0032         estimate D2E/DX2                !
 ! D15   D(22,3,6,4)             0.0071         estimate D2E/DX2                !
 ! D16   D(22,3,6,41)         -179.9908         estimate D2E/DX2                !
 ! D17   D(2,3,22,13)           -0.0093         estimate D2E/DX2                !
 ! D18   D(2,3,22,16)         -179.9984         estimate D2E/DX2                !
 ! D19   D(6,3,22,13)          179.9788         estimate D2E/DX2                !
 ! D20   D(6,3,22,16)           -0.0104         estimate D2E/DX2                !
 ! D21   D(7,4,6,3)           -179.9983         estimate D2E/DX2                !
 ! D22   D(7,4,6,41)            -0.0004         estimate D2E/DX2                !
 ! D23   D(24,4,6,3)             0.0005         estimate D2E/DX2                !
 ! D24   D(24,4,6,41)          179.9984         estimate D2E/DX2                !
 ! D25   D(6,4,7,5)            179.9946         estimate D2E/DX2                !
 ! D26   D(6,4,7,42)             0.0023         estimate D2E/DX2                !
 ! D27   D(24,4,7,5)            -0.0043         estimate D2E/DX2                !
 ! D28   D(24,4,7,42)         -179.9966         estimate D2E/DX2                !
 ! D29   D(6,4,24,16)           -0.0051         estimate D2E/DX2                !
 ! D30   D(6,4,24,19)         -179.9968         estimate D2E/DX2                !
 ! D31   D(7,4,24,16)          179.9938         estimate D2E/DX2                !
 ! D32   D(7,4,24,19)            0.0021         estimate D2E/DX2                !
 ! D33   D(27,5,7,4)             0.0119         estimate D2E/DX2                !
 ! D34   D(27,5,7,42)         -179.9959         estimate D2E/DX2                !
 ! D35   D(43,5,7,4)          -179.9999         estimate D2E/DX2                !
 ! D36   D(43,5,7,42)           -0.0077         estimate D2E/DX2                !
 ! D37   D(7,5,27,19)           -0.0173         estimate D2E/DX2                !
 ! D38   D(7,5,27,30)          179.9838         estimate D2E/DX2                !
 ! D39   D(43,5,27,19)         179.9944         estimate D2E/DX2                !
 ! D40   D(43,5,27,30)          -0.0044         estimate D2E/DX2                !
 ! D41   D(11,8,10,1)          179.9932         estimate D2E/DX2                !
 ! D42   D(11,8,10,13)           0.0005         estimate D2E/DX2                !
 ! D43   D(38,8,10,1)            0.002          estimate D2E/DX2                !
 ! D44   D(38,8,10,13)        -179.9907         estimate D2E/DX2                !
 ! D45   D(10,8,11,9)         -179.9875         estimate D2E/DX2                !
 ! D46   D(10,8,11,14)          -0.0059         estimate D2E/DX2                !
 ! D47   D(38,8,11,9)            0.0036         estimate D2E/DX2                !
 ! D48   D(38,8,11,14)         179.9852         estimate D2E/DX2                !
 ! D49   D(12,9,11,8)          179.9943         estimate D2E/DX2                !
 ! D50   D(12,9,11,14)           0.012          estimate D2E/DX2                !
 ! D51   D(37,9,11,8)           -0.0011         estimate D2E/DX2                !
 ! D52   D(37,9,11,14)        -179.9834         estimate D2E/DX2                !
 ! D53   D(11,9,12,15)          -0.0008         estimate D2E/DX2                !
 ! D54   D(11,9,12,36)        -179.9935         estimate D2E/DX2                !
 ! D55   D(37,9,12,15)         179.9946         estimate D2E/DX2                !
 ! D56   D(37,9,12,36)           0.0019         estimate D2E/DX2                !
 ! D57   D(1,10,13,22)           0.0067         estimate D2E/DX2                !
 ! D58   D(1,10,13,44)        -179.9942         estimate D2E/DX2                !
 ! D59   D(8,10,13,22)         179.9997         estimate D2E/DX2                !
 ! D60   D(8,10,13,44)          -0.0012         estimate D2E/DX2                !
 ! D61   D(8,11,14,23)         179.9937         estimate D2E/DX2                !
 ! D62   D(8,11,14,44)           0.0113         estimate D2E/DX2                !
 ! D63   D(9,11,14,23)          -0.0235         estimate D2E/DX2                !
 ! D64   D(9,11,14,44)         179.9941         estimate D2E/DX2                !
 ! D65   D(9,12,15,23)          -0.0008         estimate D2E/DX2                !
 ! D66   D(9,12,15,35)         179.9989         estimate D2E/DX2                !
 ! D67   D(36,12,15,23)        179.9919         estimate D2E/DX2                !
 ! D68   D(36,12,15,35)         -0.0083         estimate D2E/DX2                !
 ! D69   D(10,13,22,3)           0.001          estimate D2E/DX2                !
 ! D70   D(10,13,22,16)        179.9902         estimate D2E/DX2                !
 ! D71   D(44,13,22,3)        -179.9981         estimate D2E/DX2                !
 ! D72   D(44,13,22,16)         -0.0089         estimate D2E/DX2                !
 ! D73   D(10,13,44,14)          0.0069         estimate D2E/DX2                !
 ! D74   D(10,13,44,17)       -179.9981         estimate D2E/DX2                !
 ! D75   D(22,13,44,14)       -179.9939         estimate D2E/DX2                !
 ! D76   D(22,13,44,17)          0.001          estimate D2E/DX2                !
 ! D77   D(11,14,23,15)          0.0221         estimate D2E/DX2                !
 ! D78   D(11,14,23,18)       -179.9904         estimate D2E/DX2                !
 ! D79   D(44,14,23,15)       -179.9955         estimate D2E/DX2                !
 ! D80   D(44,14,23,18)         -0.008          estimate D2E/DX2                !
 ! D81   D(11,14,44,13)         -0.012          estimate D2E/DX2                !
 ! D82   D(11,14,44,17)        179.993          estimate D2E/DX2                !
 ! D83   D(23,14,44,13)       -179.9956         estimate D2E/DX2                !
 ! D84   D(23,14,44,17)          0.0095         estimate D2E/DX2                !
 ! D85   D(12,15,23,14)         -0.0092         estimate D2E/DX2                !
 ! D86   D(12,15,23,18)       -179.9964         estimate D2E/DX2                !
 ! D87   D(35,15,23,14)        179.991          estimate D2E/DX2                !
 ! D88   D(35,15,23,18)          0.0039         estimate D2E/DX2                !
 ! D89   D(24,16,22,3)           0.0059         estimate D2E/DX2                !
 ! D90   D(24,16,22,13)       -179.9829         estimate D2E/DX2                !
 ! D91   D(25,16,22,3)        -179.9999         estimate D2E/DX2                !
 ! D92   D(25,16,22,13)          0.0113         estimate D2E/DX2                !
 ! D93   D(22,16,24,4)           0.0019         estimate D2E/DX2                !
 ! D94   D(22,16,24,19)        179.9936         estimate D2E/DX2                !
 ! D95   D(25,16,24,4)        -179.9925         estimate D2E/DX2                !
 ! D96   D(25,16,24,19)         -0.0008         estimate D2E/DX2                !
 ! D97   D(22,16,25,17)         -0.005          estimate D2E/DX2                !
 ! D98   D(22,16,25,20)       -179.9929         estimate D2E/DX2                !
 ! D99   D(24,16,25,17)        179.9893         estimate D2E/DX2                !
 ! D100  D(24,16,25,20)          0.0013         estimate D2E/DX2                !
 ! D101  D(26,17,25,16)       -179.9962         estimate D2E/DX2                !
 ! D102  D(26,17,25,20)         -0.008          estimate D2E/DX2                !
 ! D103  D(44,17,25,16)         -0.003          estimate D2E/DX2                !
 ! D104  D(44,17,25,20)        179.9852         estimate D2E/DX2                !
 ! D105  D(25,17,26,18)        179.9954         estimate D2E/DX2                !
 ! D106  D(25,17,26,21)          0.0108         estimate D2E/DX2                !
 ! D107  D(44,17,26,18)          0.0021         estimate D2E/DX2                !
 ! D108  D(44,17,26,21)       -179.9825         estimate D2E/DX2                !
 ! D109  D(25,17,44,13)          0.0049         estimate D2E/DX2                !
 ! D110  D(25,17,44,14)        179.9998         estimate D2E/DX2                !
 ! D111  D(26,17,44,13)        179.9986         estimate D2E/DX2                !
 ! D112  D(26,17,44,14)         -0.0065         estimate D2E/DX2                !
 ! D113  D(26,18,23,14)          0.0039         estimate D2E/DX2                !
 ! D114  D(26,18,23,15)        179.9907         estimate D2E/DX2                !
 ! D115  D(34,18,23,14)        179.9976         estimate D2E/DX2                !
 ! D116  D(34,18,23,15)         -0.0156         estimate D2E/DX2                !
 ! D117  D(23,18,26,17)         -0.0007         estimate D2E/DX2                !
 ! D118  D(23,18,26,21)        179.9827         estimate D2E/DX2                !
 ! D119  D(34,18,26,17)       -179.9942         estimate D2E/DX2                !
 ! D120  D(34,18,26,21)         -0.0107         estimate D2E/DX2                !
 ! D121  D(27,19,24,4)          -0.0072         estimate D2E/DX2                !
 ! D122  D(27,19,24,16)       -179.999          estimate D2E/DX2                !
 ! D123  D(28,19,24,4)         179.9902         estimate D2E/DX2                !
 ! D124  D(28,19,24,16)         -0.0015         estimate D2E/DX2                !
 ! D125  D(24,19,27,5)           0.0148         estimate D2E/DX2                !
 ! D126  D(24,19,27,30)       -179.9864         estimate D2E/DX2                !
 ! D127  D(28,19,27,5)        -179.9826         estimate D2E/DX2                !
 ! D128  D(28,19,27,30)          0.0163         estimate D2E/DX2                !
 ! D129  D(24,19,28,20)          0.0035         estimate D2E/DX2                !
 ! D130  D(24,19,28,31)       -179.9967         estimate D2E/DX2                !
 ! D131  D(27,19,28,20)       -179.9991         estimate D2E/DX2                !
 ! D132  D(27,19,28,31)          0.0007         estimate D2E/DX2                !
 ! D133  D(28,20,25,16)          0.0006         estimate D2E/DX2                !
 ! D134  D(28,20,25,17)       -179.9877         estimate D2E/DX2                !
 ! D135  D(29,20,25,16)        179.9894         estimate D2E/DX2                !
 ! D136  D(29,20,25,17)          0.0011         estimate D2E/DX2                !
 ! D137  D(25,20,28,19)         -0.003          estimate D2E/DX2                !
 ! D138  D(25,20,28,31)        179.9972         estimate D2E/DX2                !
 ! D139  D(29,20,28,19)       -179.9913         estimate D2E/DX2                !
 ! D140  D(29,20,28,31)          0.0089         estimate D2E/DX2                !
 ! D141  D(25,20,29,21)          0.0025         estimate D2E/DX2                !
 ! D142  D(25,20,29,32)       -179.9913         estimate D2E/DX2                !
 ! D143  D(28,20,29,21)        179.991          estimate D2E/DX2                !
 ! D144  D(28,20,29,32)         -0.0029         estimate D2E/DX2                !
 ! D145  D(29,21,26,17)         -0.0068         estimate D2E/DX2                !
 ! D146  D(29,21,26,18)       -179.9909         estimate D2E/DX2                !
 ! D147  D(33,21,26,17)       -179.9966         estimate D2E/DX2                !
 ! D148  D(33,21,26,18)          0.0193         estimate D2E/DX2                !
 ! D149  D(26,21,29,20)          0.0005         estimate D2E/DX2                !
 ! D150  D(26,21,29,32)        179.9942         estimate D2E/DX2                !
 ! D151  D(33,21,29,20)        179.9901         estimate D2E/DX2                !
 ! D152  D(33,21,29,32)         -0.0162         estimate D2E/DX2                !
 --------------------------------------------------------------------------------
 Trust Radius=3.00D-01 FncErr=1.00D-07 GrdErr=1.00D-07
 Number of steps in this run=    264 maximum allowed number of steps=    264.
 GradGradGradGradGradGradGradGradGradGradGradGradGradGradGradGradGradGrad

                          Input orientation:                          
 ---------------------------------------------------------------------
 Center     Atomic      Atomic             Coordinates (Angstroms)
 Number     Number       Type             X           Y           Z
 ---------------------------------------------------------------------
      1          6           0       -1.487342    1.255274    0.000000
      2          6           0       -0.114579    1.267573    0.000214
      3          6           0        0.637842    2.495615    0.000237
      4          6           0        2.761554    3.737816   -0.000096
      5          6           0        4.876369    4.985412   -0.000577
      6          6           0        2.060297    2.516154   -0.000014
      7          6           0        4.192364    3.771038   -0.000385
      8          6           0       -3.680332    2.523182   -0.000361
      9          6           0       -5.854424    3.764586   -0.000316
     10          6           0       -2.227169    2.491707   -0.000158
     11          6           0       -4.431403    3.732940   -0.000377
     12          6           0       -6.523170    4.989254   -0.000217
     13          6           0       -1.497229    3.665426    0.000042
     14          6           0       -3.770635    4.987756   -0.000065
     15          6           0       -5.831731    6.215386   -0.000158
     16          6           0        0.618765    4.984426    0.000243
     17          6           0       -1.488529    6.302410    0.000188
     18          6           0       -3.646057    7.473946   -0.000044
     19          6           0        2.763344    6.233835   -0.000066
     20          6           0        0.644264    7.488696    0.000097
     21          6           0       -1.486048    8.739497   -0.000106
     22          6           0       -0.072682    3.722583    0.000254
     23          6           0       -4.423380    6.225598   -0.000181
     24          6           0        2.039423    4.985716    0.000088
     25          6           0       -0.086819    6.245918    0.000262
     26          6           0       -2.247828    7.509622    0.000125
     27          6           0        4.183286    6.205843   -0.000242
     28          6           0        2.051167    7.464069   -0.000096
     29          6           0       -0.108077    8.718323   -0.000112
     30          1           0        4.736826    7.141709   -0.000134
     31          1           0        2.608212    8.398162   -0.000269
     32          1           0        0.450622    9.653867   -0.000382
     33          1           0       -2.024149    9.684844   -0.000104
     34          1           0       -4.210816    8.402296   -0.000186
     35          1           0       -6.391623    7.148101   -0.000098
     36          1           0       -7.613530    5.001882   -0.000063
     37          1           0       -6.417453    2.834207   -0.000272
     38          1           0       -4.208336    1.574068   -0.000359
     39          1           0       -2.035005    0.314677    0.000084
     40          1           0        0.442586    0.330166    0.000014
     41          1           0        2.607852    1.577080   -0.000179
     42          1           0        4.741811    2.832903   -0.000582
     43          1           0        5.965971    4.991361   -0.000799
     44         45           0       -2.251750    4.985817    0.000017
 ---------------------------------------------------------------------
                    Distance matrix (angstroms):
                    1          2          3          4          5
     1  C    0.000000
     2  C    1.372818   0.000000
     3  C    2.460661   1.440217   0.000000
     4  C    4.920988   3.791337   2.460328   0.000000
     5  C    7.376364   6.223494   4.915709   2.455390   0.000000
     6  C    3.765044   2.507795   1.422603   1.408623   3.745330
     7  C    6.211934   4.981675   3.776417   1.431196   1.393760
     8  C    2.533140   3.780364   4.318263   6.555397   8.903916
     9  C    5.036670   6.259464   6.615119   8.616019  10.800015
    10  C    1.440871   2.441627   2.865014   5.141998   7.528533
    11  C    3.847899   4.971218   5.218067   7.192959   9.391662
    12  C    6.269144   7.410867   7.582765   9.368681  11.399540
    13  C    2.410172   2.767927   2.434540   4.259398   6.508849
    14  C    4.375483   5.215986   5.064132   6.650702   8.647004
    15  C    6.593666   7.560866   7.462713   8.943316  10.778509
    16  C    4.282786   3.788507   2.488884   2.479028   4.257604
    17  C    5.047136   5.218939   4.360406   4.963904   6.499724
    18  C    6.582699   7.140757   6.567768   7.417287   8.878319
    19  C    6.546327   5.739878   4.300238   2.496019   2.454269
    20  C    6.587813   6.267233   4.993085   4.307204   4.917026
    21  C    7.484223   7.596748   6.595223   6.561930   7.387389
    22  C    2.844095   2.455367   1.417849   2.834277   5.107626
    23  C    5.772732   6.568697   6.287188   7.603442   9.382078
    24  C    5.133641   4.297012   2.857452   1.441779   2.836946
    25  C    5.183434   4.978422   3.819674   3.795234   5.120753
    26  C    6.300413   6.596509   5.785098   6.270600   7.558163
    27  C    7.527559   6.546613   5.131857   2.848241   1.403502
    28  C    7.146340   6.564070   5.165562   3.793364   3.758392
    29  C    7.589432   7.450753   6.267256   5.748063   6.227305
    30  H    8.566818   7.618504   6.195794   3.935503   2.160808
    31  H    8.233736   7.632751   6.222734   4.662868   4.097731
    32  H    8.619284   8.405318   7.160700   6.351382   6.432862
    33  H    8.446645   8.631159   7.666238   7.633485   8.348761
    34  H    7.648348   8.226994   7.641883   8.388761   9.708349
    35  H    7.666641   8.601273   8.429650   9.767839  11.473660
    36  H    7.181034   8.377311   8.623602  10.451805  12.489910
    37  H    5.176778   6.494657   7.063415   9.223376  11.496873
    38  H    2.739605   4.105214   4.933020   7.298025   9.704078
    39  H    1.088420   2.143839   3.449725   5.892780   8.341634
    40  H    2.140197   1.090488   2.174234   4.121855   6.428821
    41  H    4.107818   2.739967   2.173625   2.166196   4.094252
    42  H    6.425828   5.102429   4.117806   2.177221   2.156710
    43  H    8.337279   7.130195   5.883681   3.440881   1.089618
    44  Rh   3.808053   4.288687   3.814558   5.166306   7.128119
                    6          7          8          9         10
     6  C    0.000000
     7  C    2.473953   0.000000
     8  C    5.740633   7.970978   0.000000
     9  C    8.012576  10.046789   2.503549   0.000000
    10  C    4.287535   6.545768   1.453504   3.844112   0.000000
    11  C    6.604751   8.623851   1.423946   1.423372   2.529685
    12  C    8.932643  10.784559   3.763407   1.395361   4.969242
    13  C    3.738558   5.690573   2.463871   4.358323   1.382183
    14  C    6.333133   8.055417   2.466228   2.416262   2.934714
    15  C    8.715987  10.317816   4.273276   2.450906   5.182534
    16  C    2.858387   3.773979   4.953783   6.587123   3.783251
    17  C    5.189402   6.219356   4.368817   5.049910   3.881629
    18  C    7.559244   8.669047   4.950883   4.316971   5.180343
    19  C    3.783573   2.847361   7.435719   8.964548   6.237687
    20  C    5.170233   5.139065   6.584714   7.490123   5.763248
    21  C    7.162859   7.545194   6.592227   6.620608   6.291593
    22  C    2.450524   4.265321   3.801803   5.781894   2.481304
    23  C    7.469808   8.958565   3.776242   2.846835   4.331892
    24  C    2.469650   2.471962   6.227333   7.987739   4.942053
    25  C    4.303631   4.943322   5.174177   6.278716   4.321481
    26  C    6.595048   7.446683   5.188126   5.199311   5.017958
    27  C    4.256863   2.434822   8.683230  10.330312   7.408693
    28  C    4.947924   4.268865   7.567196   8.728376   6.559615
    29  C    6.570293   6.555106   7.151279   7.586832   6.577333
    30  H    5.344115   3.414361   9.601008  11.116633   8.373753
    31  H    5.907472   4.890788   8.605881   9.648121   7.633290
    32  H    7.316966   6.971965   8.240841   8.627702   7.646378
    33  H    8.250625   8.580101   7.350670   7.051274   7.196001
    34  H    8.600786   9.594894   5.902999   4.920346   6.234575
    35  H    9.637940  11.109695   5.361061   3.425895   6.246974
    36  H    9.988081  11.869882   4.649085   2.150664   5.942547
    37  H    8.483714  10.651096   2.754735   1.087477   4.204258
    38  H    6.339028   8.683227   1.086096   2.740068   2.183365
    39  H    4.649516   7.122257   2.754015   5.146827   2.185495
    40  H    2.719473   5.089246   4.669879   7.172696   3.435091
    41  H    1.087050   2.706313   6.358960   8.740440   4.920769
    42  H    2.700158   1.087194   8.427837  10.637116   6.977328
    43  H    4.623953   2.152875   9.957062  11.883884   8.565968
    44  Rh   4.969203   6.557613   2.847002   3.804032   2.494231
                   11         12         13         14         15
    11  C    0.000000
    12  C    2.440044   0.000000
    13  C    2.934951   5.197365   0.000000
    14  C    1.418161   2.752535   2.630006   0.000000
    15  C    2.850168   1.407654   5.028937   2.398999   0.000000
    16  C    5.202924   7.141937   2.493430   4.389401   6.566899
    17  C    3.906749   5.203075   2.636998   2.633690   4.344074
    18  C    3.822551   3.801510   4.372904   2.489309   2.522131
    19  C    7.617012   9.369543   4.974858   6.651736   8.595095
    20  C    6.314120   7.590740   4.382166   5.074055   6.599988
    21  C    5.808677   6.279882   5.074083   4.392596   5.025544
    22  C    4.358734   6.573679   1.425693   3.908391   6.275406
    23  C    2.492671   2.436733   3.888038   1.399403   1.408389
    24  C    6.590982   8.562594   3.775060   5.810059   7.966628
    25  C    5.019011   6.557882   2.940781   3.892746   5.744993
    26  C    4.362491   4.962943   3.916790   2.945972   3.810434
    27  C    8.962595  10.775355   6.222697   8.046651  10.015021
    28  C    7.479642   8.924347   5.198154   6.326571   7.981184
    29  C    6.598879   7.420201   5.240374   5.227950   6.246993
    30  H    9.781418  11.463882   7.137786   8.775899  10.609076
    31  H    8.445146   9.746938   6.265256   7.233295   8.717635
    32  H    7.674083   8.390018   6.297265   6.292186   7.161782
    33  H    6.420283   6.503057   6.042436   5.011272   5.151196
    34  H    4.674564   4.122601   5.459074   3.442796   2.722120
    35  H    3.937739   2.162852   6.007006   3.396567   1.087858
    36  H    3.425806   1.090433   6.260611   3.842921   2.155783
    37  H    2.179934   2.157638   4.989943   3.412245   3.431536
    38  H    2.170366   4.125767   3.424015   3.441635   4.917037
    39  H    4.174595   6.480378   3.393630   4.984985   7.016659
    40  H    5.944294   8.380265   3.858347   6.280475   8.602492
    41  H    7.361986   9.747743   4.605744   7.233105   9.630184
    42  H    9.217263  11.469510   6.294340   8.780953  11.101396
    43  H   10.473252  12.489141   7.580070   9.736606  11.861029
    44  Rh   2.514078   4.271421   1.520768   1.518886   3.785248
                   16         17         18         19         20
    16  C    0.000000
    17  C    2.485512   0.000000
    18  C    4.938261   2.455081   0.000000
    19  C    2.481984   4.252426   6.528269   0.000000
    20  C    2.504399   2.440509   4.290347   2.462758   0.000000
    21  C    4.304741   2.437089   2.503449   4.933121   2.470372
    22  C    1.438870   2.942810   5.180901   3.788064   3.833747
    23  C    5.192661   2.935855   1.470579   7.186729   5.222684
    24  C    1.420659   3.765651   6.206124   1.442866   2.865550
    25  C    1.445410   1.402848   3.765133   2.850189   1.441867
    26  C    3.820206   1.426147   1.398684   5.171023   2.892168
    27  C    3.767979   5.672637   7.931374   1.420217   3.764357
    28  C    2.863635   3.725440   5.697232   1.421504   1.407118
    29  C    3.803983   2.782497   3.750437   3.797070   1.441528
    30  H    4.648903   6.281678   8.389465   2.172295   4.107245
    31  H    3.951138   4.601681   6.322188   2.169880   2.164306
    32  H    4.672467   3.872024   4.640564   4.128595   2.173813
    33  H    5.392488   3.424580   2.742016   5.901657   3.455937
    34  H    5.916645   3.438077   1.086640   7.303502   4.940291
    35  H    7.336691   4.975492   2.764834   9.200506   7.044127
    36  H    8.232313   6.261550   4.674606  10.449748   8.624118
    37  H    7.357432   6.026833   5.404425   9.790021   8.457666
    38  H    5.910283   5.454775   5.926611   8.385568   7.650526
    39  H    5.371131   6.012618   7.338298   7.619749   7.658004
    40  H    4.657593   6.276695   8.231075   6.343439   7.161370
    41  H    3.945437   6.253725   8.595604   4.659350   6.229195
    42  H    4.650652   7.131243   9.586220   3.934548   6.202120
    43  H    5.347210   7.568911   9.927452   3.435194   5.878540
    44  Rh   2.870516   1.521816   2.852171   5.168048   3.827702
                   21         22         23         24         25
    21  C    0.000000
    22  C    5.212200   0.000000
    23  C    3.866213   5.019328   0.000000
    24  C    5.149740   2.460994   6.580663   0.000000
    25  C    2.859332   2.523375   4.336608   2.471643   0.000000
    26  C    1.446686   4.367256   2.526211   4.975000   2.503379
    27  C    6.209730   4.927458   8.606688   2.466750   4.270293
    28  C    3.760134   4.302262   6.591931   2.478382   2.460666
    29  C    1.378134   4.995866   4.983525   4.306288   2.472497
    30  H    6.424725   5.900999   9.205902   3.453156   4.906118
    31  H    4.108464   5.389641   7.359573   3.459524   3.448963
    32  H    2.141673   5.954324   5.958936   4.931118   3.450066
    33  H    1.087765   6.273498   4.209832   6.212441   3.947082
    34  H    2.745554   6.246909   2.187052   7.123097   4.653743
    35  H    5.157248   7.187711   2.173705   8.703933   6.369026
    36  H    7.177451   7.648594   3.416803   9.652967   7.628827
    37  H    7.693582   6.406663   3.934191   8.726267   7.191432
    38  H    7.665131   4.660445   4.656499   7.118556   6.230015
    39  H    8.442686   3.932497   6.375212   6.198352   6.243000
    40  H    8.627657   3.431325   7.644196   4.921791   5.939393
    41  H    8.249863   3.433431   8.428934   3.455707   5.390668
    42  H    8.583361   4.896006   9.772978   3.455069   5.913066
    43  H    8.341529   6.170505  10.462406   3.926552   6.181438
    44  Rh   3.830981   2.518749   2.500606   4.291174   2.504951
                   26         27         28         29         30
    26  C    0.000000
    27  C    6.561941   0.000000
    28  C    4.299236   2.475695   0.000000
    29  C    2.457539   4.972761   2.497095   0.000000
    30  H    6.994338   1.087314   2.704937   5.094978   0.000000
    31  H    4.936662   2.699466   1.087579   2.735092   2.471775
    32  H    3.446653   5.081500   2.712371   1.089672   4.968147
    33  H    2.186692   7.115876   4.641125   2.146042   7.223457
    34  H    2.156430   8.676713   6.331880   4.114893   9.036005
    35  H    4.159535  10.616805   8.448700   6.476770  11.128451
    36  H    5.922796  11.858093   9.973401   8.375188  12.534359
    37  H    6.264605  11.124009   9.651587   8.627343  11.957111
    38  H    6.250952   9.585022   8.594969   8.237264  10.536344
    39  H    7.198092   8.565802   8.234720   8.621736   9.615927
    40  H    7.667001   6.965372   7.313009   8.406212   8.052180
    41  H    7.666335   4.889524   5.913252   7.640264   5.957989
    42  H    8.409921   3.418871   5.356050   7.626243   4.308809
    43  H    8.591166   2.157066   4.630332   7.126310   2.476851
    44  Rh   2.523808   6.549668   4.965564   4.304293   7.313554
                   31         32         33         34         35
    31  H    0.000000
    32  H    2.496395   0.000000
    33  H    4.807736   2.474965   0.000000
    34  H    6.819030   4.826535   2.535043   0.000000
    35  H    9.086236   7.286644   5.050732   2.515735   0.000000
    36  H   10.771199   9.309754   7.291866   4.810538   2.469679
    37  H   10.602840   9.678750   8.138325   5.989395   4.313971
    38  H    9.645392   9.326792   8.399724   6.828229   5.986367
    39  H    9.322134   9.664306   9.370173   8.375186   8.104061
    40  H    8.353591   9.323704   9.674439   9.317372   9.653530
    41  H    6.821082   8.359912   9.337627   9.647684  10.584273
    42  H    5.960231   8.058527   9.629502  10.543609  11.940448
    43  H    4.783391   7.222051   9.266650  10.733195  12.544387
    44  Rh   5.938294   5.393840   4.704536   3.938308   4.670548
                   36         37         38         39         40
    36  H    0.000000
    37  H    2.475765   0.000000
    38  H    4.831693   2.543256   0.000000
    39  H    7.286277   5.055085   2.511858   0.000000
    40  H    9.312676   7.302763   4.814391   2.477639   0.000000
    41  H   10.779885   9.112436   6.816188   4.811421   2.498633
    42  H   12.544279  11.159264   9.038241   7.229571   4.974639
    43  H   13.579505  12.569904  10.732866   9.267523   7.227345
    44  Rh   5.361804   4.688550   3.932971   4.676166   5.379083
                   41         42         43         44
    41  H    0.000000
    42  H    2.476061   0.000000
    43  H    4.788975   2.481433   0.000000
    44  Rh   5.935926   7.317441   8.217723   0.000000
 Stoichiometry    C29H14Rh(2)
 Framework group  C1[X(C29H14Rh)]
 Deg. of freedom   126
 Full point group                 C1      NOp   1
 Largest Abelian subgroup         C1      NOp   1
 Largest concise Abelian subgroup C1      NOp   1
                         Standard orientation:                         
 ---------------------------------------------------------------------
 Center     Atomic      Atomic             Coordinates (Angstroms)
 Number     Number       Type             X           Y           Z
 ---------------------------------------------------------------------
      1          6           0        0.434011   -3.733688   -0.000058
      2          6           0       -0.938754   -3.721613   -0.000272
      3          6           0       -1.691376   -2.493695   -0.000295
      4          6           0       -3.815290   -1.251840    0.000038
      5          6           0       -5.930310   -0.004591    0.000519
      6          6           0       -3.113834   -2.473388   -0.000044
      7          6           0       -5.246106   -1.218853    0.000327
      8          6           0        2.626794   -2.465422    0.000303
      9          6           0        4.800682   -1.223662    0.000258
     10          6           0        1.173636   -2.497134    0.000100
     11          6           0        3.377667   -1.255541    0.000319
     12          6           0        5.469228    0.001115    0.000159
     13          6           0        0.443504   -1.323534   -0.000100
     14          6           0        2.716694   -0.000833    0.000007
     15          6           0        4.777589    1.227134    0.000100
     16          6           0       -1.672706   -0.004881   -0.000301
     17          6           0        0.434373    1.313448   -0.000246
     18          6           0        2.591709    2.485337   -0.000014
     19          6           0       -3.817489    1.244178    0.000008
     20          6           0       -1.698615    2.499385   -0.000155
     21          6           0        0.431494    3.750535    0.000048
     22          6           0       -0.981052   -1.266611   -0.000312
     23          6           0        3.369236    1.237116    0.000123
     24          6           0       -3.093364   -0.003823   -0.000146
     25          6           0       -0.967328    1.256727   -0.000320
     26          6           0        1.193475    2.520784   -0.000183
     27          6           0       -5.237426    1.215954    0.000184
     28          6           0       -3.105513    2.474529    0.000038
     29          6           0       -0.946475    3.729136    0.000054
     30          1           0       -5.791120    2.151729    0.000076
     31          1           0       -3.662711    3.408530    0.000211
     32          1           0       -1.505326    4.664588    0.000324
     33          1           0        0.969440    4.695969    0.000046
     34          1           0        3.156317    3.413779    0.000128
     35          1           0        5.337329    2.159941    0.000040
     36          1           0        6.559586    0.013921    0.000005
     37          1           0        5.363864   -2.153949    0.000214
     38          1           0        3.154953   -3.414450    0.000301
     39          1           0        0.981828   -4.674195   -0.000142
     40          1           0       -1.495766   -4.659111   -0.000072
     41          1           0       -3.661235   -3.412552    0.000121
     42          1           0       -5.795400   -2.157078    0.000524
     43          1           0       -7.019912    0.001181    0.000741
     44         45           0        1.197809   -0.003020   -0.000075
 ---------------------------------------------------------------------
 Rotational constants (GHZ):      0.3074628      0.1322768      0.0924870
 Standard basis: VSTO-6G (5D, 7F)
 There are   140 symmetry adapted cartesian basis functions of A   symmetry.
 There are   139 symmetry adapted basis functions of A   symmetry.
   139 basis functions,   840 primitive gaussians,   140 cartesian basis functions
    70 alpha electrons       69 beta electrons
       nuclear repulsion energy      1325.4484138638 Hartrees.
 Integral buffers will be    262144 words long.
 Regular integral format.
 Two-electron integral symmetry is turned off.
 Do NDO integrals.
 One-electron integrals computed using PRISM.
 NBasis=   139 RedAO= F EigKep=  0.00D+00  NBF=   139
 NBsUse=   139 1.00D-04 EigRej=  0.00D+00 NBFU=   139
 Simple Huckel Guess.
 Initial guess <Sx>= 0.0000 <Sy>= 0.0000 <Sz>= 0.5000 <S**2>= 0.7500 S= 0.5000
 Keep J ints in memory in canonical form, NReq=2111950.
 Gradient too large for Newton-Raphson -- use scaled steepest descent instead.
     Accept linear search using points  4 and  5.
 Gradient too large for Newton-Raphson -- use scaled steepest descent instead.
 Gradient too large for Newton-Raphson -- use scaled steepest descent instead.
     Minimum is close to point  2 DX=  9.48D-02 DF= -3.33D-04 DXR=  8.66D-02 DFR=  7.55D-03 which will be used.
 Gradient too large for Newton-Raphson -- use scaled steepest descent instead.
     Minimum is close to point  2 DX=  4.77D-02 DF= -3.29D-05 DXR=  3.82D-02 DFR=  1.46D-03 which will be used.
 Gradient too large for Newton-Raphson -- use scaled steepest descent instead.
     Accept linear search using points  1 and  2.
     Minimum is close to point  2 DX= -3.22D-02 DF= -1.26D-05 DXR=  2.75D-02 DFR=  1.01D-03 which will be used.
 Gradient too large for Newton-Raphson -- use scaled steepest descent instead.
     Accept linear search using points  1 and  2.
 Gradient too large for Newton-Raphson -- use scaled steepest descent instead.
     Minimum is close to point  2 DX=  7.35D-02 DF= -2.21D-05 DXR=  6.27D-02 DFR=  3.94D-03 which will be used.
 Gradient too large for Newton-Raphson -- use scaled steepest descent instead.
 Gradient too large for Newton-Raphson -- use scaled steepest descent instead.
     Accept linear search using points  1 and  2.
     Minimum is close to point  2 DX= -8.13D-02 DF= -2.16D-05 DXR=  7.27D-02 DFR=  6.92D-03 which will be used.
 Gradient too large for Newton-Raphson -- use scaled steepest descent instead.
     Accept linear search using points  1 and  2.
     Minimum is close to point  2 DX= -1.06D-01 DF= -3.17D-05 DXR=  9.70D-02 DFR=  1.26D-02 which will be used.
 Gradient too large for Newton-Raphson -- use scaled steepest descent instead.
     Accept linear search using points  1 and  2.
     Minimum is close to point  2 DX= -6.37D-02 DF= -8.97D-06 DXR=  6.15D-02 DFR=  4.38D-03 which will be used.
 Gradient too large for Newton-Raphson -- use scaled steepest descent instead.
     Minimum is close to point  2 DX=  6.48D-02 DF= -5.11D-06 DXR=  5.56D-02 DFR=  3.10D-03 which will be used.
 Gradient too large for Newton-Raphson -- use scaled steepest descent instead.
 Gradient too large for Newton-Raphson -- use scaled steepest descent instead.
     Accept linear search using points  1 and  2.
 Gradient too large for Newton-Raphson -- use scaled steepest descent instead.
     Accept linear search using points  1 and  2.
     Minimum is close to point  2 DX= -3.20D-02 DF= -8.81D-07 DXR=  2.74D-02 DFR=  1.01D-03 which will be used.
 Gradient too large for Newton-Raphson -- use scaled steepest descent instead.
     Minimum is close to point  2 DX=  9.93D-03 DF= -5.71D-08 DXR=  8.95D-03 DFR=  8.01D-05 which will be used.
 Gradient too large for Newton-Raphson -- use scaled steepest descent instead.
 Gradient too large for Newton-Raphson -- use scaled steepest descent instead.
     Accept linear search using points  1 and  2.
     Minimum is close to point  2 DX= -8.55D-02 DF= -3.55D-06 DXR=  7.67D-02 DFR=  7.86D-03 which will be used.
 Gradient too large for Newton-Raphson -- use scaled steepest descent instead.
     Accept linear search using points  1 and  2.
 Gradient too large for Newton-Raphson -- use scaled steepest descent instead.
     Minimum is close to point  2 DX=  1.15D-01 DF= -2.56D-06 DXR=  9.45D-02 DFR=  9.00D-03 which will be used.
 LinEq1:  Iter=  0 NonCon=     1 RMS=2.23D-04 Max=8.37D-03 NDo=     1
 AX will form     1 AO Fock derivatives at one time.
 LinEq1:  Iter=  1 NonCon=     1 RMS=1.31D-04 Max=2.89D-03 NDo=     1
 LinEq1:  Iter=  2 NonCon=     1 RMS=1.97D-05 Max=4.50D-04 NDo=     1
 LinEq1:  Iter=  3 NonCon=     1 RMS=5.66D-06 Max=9.91D-05 NDo=     1
 LinEq1:  Iter=  4 NonCon=     1 RMS=2.23D-06 Max=3.68D-05 NDo=     1
 LinEq1:  Iter=  5 NonCon=     1 RMS=7.88D-07 Max=3.00D-05 NDo=     1
 LinEq1:  Iter=  6 NonCon=     1 RMS=2.58D-07 Max=9.17D-06 NDo=     1
 LinEq1:  Iter=  7 NonCon=     1 RMS=1.21D-07 Max=5.13D-06 NDo=     1
 LinEq1:  Iter=  8 NonCon=     1 RMS=3.99D-08 Max=8.18D-07 NDo=     1
 LinEq1:  Iter=  9 NonCon=     1 RMS=1.23D-08 Max=1.87D-07 NDo=     1
 LinEq1:  Iter= 10 NonCon=     0 RMS=4.37D-09 Max=8.29D-08 NDo=     1
 Linear equations converged to 9.829D-09 9.829D-08 after    10 iterations.
     Accept linear search using points  1 and  2.
 LinEq1:  Iter=  0 NonCon=     1 RMS=5.23D-05 Max=1.44D-03 NDo=     1
 LinEq1:  Iter=  1 NonCon=     1 RMS=2.67D-05 Max=7.72D-04 NDo=     1
 LinEq1:  Iter=  2 NonCon=     1 RMS=1.06D-05 Max=2.15D-04 NDo=     1
 LinEq1:  Iter=  3 NonCon=     1 RMS=3.34D-06 Max=6.60D-05 NDo=     1
 LinEq1:  Iter=  4 NonCon=     1 RMS=1.21D-06 Max=2.15D-05 NDo=     1
 LinEq1:  Iter=  5 NonCon=     1 RMS=3.78D-07 Max=1.17D-05 NDo=     1
 LinEq1:  Iter=  6 NonCon=     1 RMS=1.36D-07 Max=3.78D-06 NDo=     1
 LinEq1:  Iter=  7 NonCon=     1 RMS=5.48D-08 Max=1.48D-06 NDo=     1
 LinEq1:  Iter=  8 NonCon=     1 RMS=1.89D-08 Max=3.13D-07 NDo=     1
 LinEq1:  Iter=  9 NonCon=     1 RMS=6.97D-09 Max=1.74D-07 NDo=     1
 LinEq1:  Iter= 10 NonCon=     0 RMS=2.21D-09 Max=3.85D-08 NDo=     1
 Linear equations converged to 9.829D-09 9.829D-08 after    10 iterations.
     Minimum is close to point  2 DX=  9.32D-03 DF= -2.42D-09 DXR=  9.23D-03 DFR=  8.53D-05 which will be used.
 LinEq1:  Iter=  0 NonCon=     1 RMS=1.26D-06 Max=3.61D-05 NDo=     1
 LinEq1:  Iter=  1 NonCon=     1 RMS=5.29D-07 Max=1.86D-05 NDo=     1
 LinEq1:  Iter=  2 NonCon=     1 RMS=1.96D-07 Max=3.54D-06 NDo=     1
 LinEq1:  Iter=  3 NonCon=     1 RMS=7.84D-08 Max=1.68D-06 NDo=     1
 LinEq1:  Iter=  4 NonCon=     1 RMS=2.89D-08 Max=5.30D-07 NDo=     1
 LinEq1:  Iter=  5 NonCon=     1 RMS=1.12D-08 Max=2.03D-07 NDo=     1
 LinEq1:  Iter=  6 NonCon=     1 RMS=3.91D-09 Max=7.03D-08 NDo=     1
 LinEq1:  Iter=  7 NonCon=     1 RMS=1.76D-09 Max=3.80D-08 NDo=     1
 LinEq1:  Iter=  8 NonCon=     1 RMS=5.25D-10 Max=1.06D-08 NDo=     1
 LinEq1:  Iter=  9 NonCon=     0 RMS=1.75D-10 Max=4.49D-09 NDo=     1
 Linear equations converged to 5.873D-10 5.873D-09 after     9 iterations.
 LinEq1:  Iter=  0 NonCon=     1 RMS=7.18D-08 Max=1.85D-06 NDo=     1
 LinEq1:  Iter=  1 NonCon=     1 RMS=3.54D-08 Max=1.05D-06 NDo=     1
 LinEq1:  Iter=  2 NonCon=     1 RMS=9.87D-09 Max=3.41D-07 NDo=     1
 LinEq1:  Iter=  3 NonCon=     1 RMS=3.85D-09 Max=8.70D-08 NDo=     1
 LinEq1:  Iter=  4 NonCon=     1 RMS=1.49D-09 Max=2.28D-08 NDo=     1
 LinEq1:  Iter=  5 NonCon=     1 RMS=5.27D-10 Max=7.07D-09 NDo=     1
 LinEq1:  Iter=  6 NonCon=     1 RMS=2.11D-10 Max=3.59D-09 NDo=     1
 LinEq1:  Iter=  7 NonCon=     1 RMS=8.09D-11 Max=1.21D-09 NDo=     1
 LinEq1:  Iter=  8 NonCon=     1 RMS=3.26D-11 Max=8.69D-10 NDo=     1
 LinEq1:  Iter=  9 NonCon=     0 RMS=1.29D-11 Max=2.27D-10 NDo=     1
 Linear equations converged to 3.521D-11 3.521D-10 after     9 iterations.
 SCF Done:  E(UPM6) =  0.713287573413     a.u. after   25 cycles
            Convg  =    0.8394D-07                    88 Fock formations.
              S**2 =  2.9484                  -V/T =  1.0073
 <Sx>= 0.0000 <Sy>= 0.0000 <Sz>= 0.5000 <S**2>= 2.9484 S= 1.2884
 <L.S>= 0.000000000000E+00
 Annihilation of the first spin contaminant:
 S**2 before annihilation     2.9484,   after     7.7820

 **********************************************************************

            Population analysis using the SCF density.

 **********************************************************************

 Orbital symmetries:
 Alpha Orbitals:
       Occupied  (A) (A) (A) (A) (A) (A) (A) (A) (A) (A) (A) (A)
                 (A) (A) (A) (A) (A) (A) (A) (A) (A) (A) (A) (A)
                 (A) (A) (A) (A) (A) (A) (A) (A) (A) (A) (A) (A)
                 (A) (A) (A) (A) (A) (A) (A) (A) (A) (A) (A) (A)
                 (A) (A) (A) (A) (A) (A) (A) (A) (A) (A) (A) (A)
                 (A) (A) (A) (A) (A) (A) (A) (A) (A) (A)
       Virtual   (A) (A) (A) (A) (A) (A) (A) (A) (A) (A) (A) (A)
                 (A) (A) (A) (A) (A) (A) (A) (A) (A) (A) (A) (A)
                 (A) (A) (A) (A) (A) (A) (A) (A) (A) (A) (A) (A)
                 (A) (A) (A) (A) (A) (A) (A) (A) (A) (A) (A) (A)
                 (A) (A) (A) (A) (A) (A) (A) (A) (A) (A) (A) (A)
                 (A) (A) (A) (A) (A) (A) (A) (A) (A)
 Beta  Orbitals:
       Occupied  (A) (A) (A) (A) (A) (A) (A) (A) (A) (A) (A) (A)
                 (A) (A) (A) (A) (A) (A) (A) (A) (A) (A) (A) (A)
                 (A) (A) (A) (A) (A) (A) (A) (A) (A) (A) (A) (A)
                 (A) (A) (A) (A) (A) (A) (A) (A) (A) (A) (A) (A)
                 (A) (A) (A) (A) (A) (A) (A) (A) (A) (A) (A) (A)
                 (A) (A) (A) (A) (A) (A) (A) (A) (A)
       Virtual   (A) (A) (A) (A) (A) (A) (A) (A) (A) (A) (A) (A)
                 (A) (A) (A) (A) (A) (A) (A) (A) (A) (A) (A) (A)
                 (A) (A) (A) (A) (A) (A) (A) (A) (A) (A) (A) (A)
                 (A) (A) (A) (A) (A) (A) (A) (A) (A) (A) (A) (A)
                 (A) (A) (A) (A) (A) (A) (A) (A) (A) (A) (A) (A)
                 (A) (A) (A) (A) (A) (A) (A) (A) (A) (A)
 The electronic state is 2-A.
 Alpha  occ. eigenvalues --   -1.19021  -1.09404  -1.07600  -1.06425  -1.03243
 Alpha  occ. eigenvalues --   -1.02482  -0.99314  -0.98786  -0.95631  -0.93434
 Alpha  occ. eigenvalues --   -0.91928  -0.91597  -0.88564  -0.87081  -0.84710
 Alpha  occ. eigenvalues --   -0.81062  -0.80121  -0.78157  -0.77767  -0.74657
 Alpha  occ. eigenvalues --   -0.73201  -0.71525  -0.68457  -0.67624  -0.66028
 Alpha  occ. eigenvalues --   -0.62994  -0.61639  -0.59032  -0.57951  -0.57665
 Alpha  occ. eigenvalues --   -0.56885  -0.55980  -0.55135  -0.53811  -0.52795
 Alpha  occ. eigenvalues --   -0.51866  -0.51429  -0.50580  -0.50491  -0.49339
 Alpha  occ. eigenvalues --   -0.48808  -0.48530  -0.48224  -0.47857  -0.47599
 Alpha  occ. eigenvalues --   -0.47183  -0.46912  -0.46853  -0.45781  -0.44910
 Alpha  occ. eigenvalues --   -0.43260  -0.42599  -0.42537  -0.41794  -0.41237
 Alpha  occ. eigenvalues --   -0.39403  -0.38709  -0.38391  -0.38320  -0.37646
 Alpha  occ. eigenvalues --   -0.37299  -0.36886  -0.34938  -0.34035  -0.32954
 Alpha  occ. eigenvalues --   -0.30053  -0.27857  -0.24420  -0.22756  -0.19255
 Alpha virt. eigenvalues --   -0.03420  -0.01411  -0.01139  -0.00345   0.01545
 Alpha virt. eigenvalues --    0.01906   0.04367   0.04467   0.05594   0.05915
 Alpha virt. eigenvalues --    0.06948   0.07936   0.09996   0.11986   0.12688
 Alpha virt. eigenvalues --    0.12792   0.13866   0.14013   0.15527   0.15961
 Alpha virt. eigenvalues --    0.16119   0.16302   0.16557   0.16777   0.17033
 Alpha virt. eigenvalues --    0.17529   0.17633   0.17927   0.18115   0.18274
 Alpha virt. eigenvalues --    0.18567   0.18737   0.18980   0.19129   0.19268
 Alpha virt. eigenvalues --    0.19618   0.19923   0.20052   0.20328   0.20340
 Alpha virt. eigenvalues --    0.20514   0.20742   0.20930   0.21198   0.21397
 Alpha virt. eigenvalues --    0.21516   0.21673   0.22086   0.22156   0.22356
 Alpha virt. eigenvalues --    0.22453   0.22619   0.22704   0.22948   0.23004
 Alpha virt. eigenvalues --    0.23074   0.23228   0.23294   0.23790   0.23874
 Alpha virt. eigenvalues --    0.24027   0.24444   0.24589   0.24742   0.24944
 Alpha virt. eigenvalues --    0.25353   0.29506   0.33654   0.33896
  Beta  occ. eigenvalues --   -1.18995  -1.09340  -1.07549  -1.06380  -1.03240
  Beta  occ. eigenvalues --   -1.02396  -0.99315  -0.98749  -0.95522  -0.93350
  Beta  occ. eigenvalues --   -0.91883  -0.91505  -0.88488  -0.86870  -0.84678
  Beta  occ. eigenvalues --   -0.80930  -0.80047  -0.78137  -0.77655  -0.74616
  Beta  occ. eigenvalues --   -0.73174  -0.71492  -0.68397  -0.67505  -0.65864
  Beta  occ. eigenvalues --   -0.62942  -0.61598  -0.58944  -0.57860  -0.57554
  Beta  occ. eigenvalues --   -0.56721  -0.55853  -0.55054  -0.53822  -0.52377
  Beta  occ. eigenvalues --   -0.51893  -0.51308  -0.50426  -0.50250  -0.49318
  Beta  occ. eigenvalues --   -0.48993  -0.48238  -0.48080  -0.47813  -0.47379
  Beta  occ. eigenvalues --   -0.47284  -0.46783  -0.46204  -0.45720  -0.44709
  Beta  occ. eigenvalues --   -0.42596  -0.42563  -0.42459  -0.41663  -0.41193
  Beta  occ. eigenvalues --   -0.39010  -0.38625  -0.38284  -0.38032  -0.37574
  Beta  occ. eigenvalues --   -0.37150  -0.36418  -0.34420  -0.33289  -0.31615
  Beta  occ. eigenvalues --   -0.28557  -0.23889  -0.23320  -0.19255
  Beta virt. eigenvalues --   -0.04235  -0.01564  -0.01419  -0.01115   0.00846
  Beta virt. eigenvalues --    0.02228   0.02381   0.04553   0.04798   0.05973
  Beta virt. eigenvalues --    0.06188   0.07073   0.08758   0.10357   0.11978
  Beta virt. eigenvalues --    0.12708   0.13187   0.13879   0.14073   0.15281
  Beta virt. eigenvalues --    0.15902   0.16068   0.16532   0.16619   0.16767
  Beta virt. eigenvalues --    0.17110   0.17589   0.17745   0.17943   0.18151
  Beta virt. eigenvalues --    0.18404   0.18630   0.18690   0.18999   0.19182
  Beta virt. eigenvalues --    0.19380   0.19710   0.19960   0.20135   0.20228
  Beta virt. eigenvalues --    0.20461   0.20587   0.20778   0.20890   0.21246
  Beta virt. eigenvalues --    0.21426   0.21585   0.21765   0.22147   0.22281
  Beta virt. eigenvalues --    0.22454   0.22578   0.22643   0.22869   0.23039
  Beta virt. eigenvalues --    0.23127   0.23264   0.23350   0.23494   0.23673
  Beta virt. eigenvalues --    0.23988   0.24164   0.24442   0.24581   0.24800
  Beta virt. eigenvalues --    0.24962   0.25603   0.29133   0.33632   0.33709
          Condensed to atoms (all electrons):
               1          2          3          4          5          6
     1  C    4.055262   0.000000   0.000000   0.000000   0.000000   0.000000
     2  C    0.000000   4.299179   0.000000   0.000000   0.000000   0.000000
     3  C    0.000000   0.000000   3.933475   0.000000   0.000000   0.000000
     4  C    0.000000   0.000000   0.000000   3.964092   0.000000   0.000000
     5  C    0.000000   0.000000   0.000000   0.000000   4.134754   0.000000
     6  C    0.000000   0.000000   0.000000   0.000000   0.000000   4.215643
     7  C    0.000000   0.000000   0.000000   0.000000   0.000000   0.000000
     8  C    0.000000   0.000000   0.000000   0.000000   0.000000   0.000000
     9  C    0.000000   0.000000   0.000000   0.000000   0.000000   0.000000
    10  C    0.000000   0.000000   0.000000   0.000000   0.000000   0.000000
    11  C    0.000000   0.000000   0.000000   0.000000   0.000000   0.000000
    12  C    0.000000   0.000000   0.000000   0.000000   0.000000   0.000000
    13  C    0.000000   0.000000   0.000000   0.000000   0.000000   0.000000
    14  C    0.000000   0.000000   0.000000   0.000000   0.000000   0.000000
    15  C    0.000000   0.000000   0.000000   0.000000   0.000000   0.000000
    16  C    0.000000   0.000000   0.000000   0.000000   0.000000   0.000000
    17  C    0.000000   0.000000   0.000000   0.000000   0.000000   0.000000
    18  C    0.000000   0.000000   0.000000   0.000000   0.000000   0.000000
    19  C    0.000000   0.000000   0.000000   0.000000   0.000000   0.000000
    20  C    0.000000   0.000000   0.000000   0.000000   0.000000   0.000000
    21  C    0.000000   0.000000   0.000000   0.000000   0.000000   0.000000
    22  C    0.000000   0.000000   0.000000   0.000000   0.000000   0.000000
    23  C    0.000000   0.000000   0.000000   0.000000   0.000000   0.000000
    24  C    0.000000   0.000000   0.000000   0.000000   0.000000   0.000000
    25  C    0.000000   0.000000   0.000000   0.000000   0.000000   0.000000
    26  C    0.000000   0.000000   0.000000   0.000000   0.000000   0.000000
    27  C    0.000000   0.000000   0.000000   0.000000   0.000000   0.000000
    28  C    0.000000   0.000000   0.000000   0.000000   0.000000   0.000000
    29  C    0.000000   0.000000   0.000000   0.000000   0.000000   0.000000
    30  H    0.000000   0.000000   0.000000   0.000000   0.000000   0.000000
    31  H    0.000000   0.000000   0.000000   0.000000   0.000000   0.000000
    32  H    0.000000   0.000000   0.000000   0.000000   0.000000   0.000000
    33  H    0.000000   0.000000   0.000000   0.000000   0.000000   0.000000
    34  H    0.000000   0.000000   0.000000   0.000000   0.000000   0.000000
    35  H    0.000000   0.000000   0.000000   0.000000   0.000000   0.000000
    36  H    0.000000   0.000000   0.000000   0.000000   0.000000   0.000000
    37  H    0.000000   0.000000   0.000000   0.000000   0.000000   0.000000
    38  H    0.000000   0.000000   0.000000   0.000000   0.000000   0.000000
    39  H    0.000000   0.000000   0.000000   0.000000   0.000000   0.000000
    40  H    0.000000   0.000000   0.000000   0.000000   0.000000   0.000000
    41  H    0.000000   0.000000   0.000000   0.000000   0.000000   0.000000
    42  H    0.000000   0.000000   0.000000   0.000000   0.000000   0.000000
    43  H    0.000000   0.000000   0.000000   0.000000   0.000000   0.000000
    44  Rh   0.000000   0.000000   0.000000   0.000000   0.000000   0.000000
               7          8          9         10         11         12
     1  C    0.000000   0.000000   0.000000   0.000000   0.000000   0.000000
     2  C    0.000000   0.000000   0.000000   0.000000   0.000000   0.000000
     3  C    0.000000   0.000000   0.000000   0.000000   0.000000   0.000000
     4  C    0.000000   0.000000   0.000000   0.000000   0.000000   0.000000
     5  C    0.000000   0.000000   0.000000   0.000000   0.000000   0.000000
     6  C    0.000000   0.000000   0.000000   0.000000   0.000000   0.000000
     7  C    4.170246   0.000000   0.000000   0.000000   0.000000   0.000000
     8  C    0.000000   4.220120   0.000000   0.000000   0.000000   0.000000
     9  C    0.000000   0.000000   4.117251   0.000000   0.000000   0.000000
    10  C    0.000000   0.000000   0.000000   4.137316   0.000000   0.000000
    11  C    0.000000   0.000000   0.000000   0.000000   4.042982   0.000000
    12  C    0.000000   0.000000   0.000000   0.000000   0.000000   4.242036
    13  C    0.000000   0.000000   0.000000   0.000000   0.000000   0.000000
    14  C    0.000000   0.000000   0.000000   0.000000   0.000000   0.000000
    15  C    0.000000   0.000000   0.000000   0.000000   0.000000   0.000000
    16  C    0.000000   0.000000   0.000000   0.000000   0.000000   0.000000
    17  C    0.000000   0.000000   0.000000   0.000000   0.000000   0.000000
    18  C    0.000000   0.000000   0.000000   0.000000   0.000000   0.000000
    19  C    0.000000   0.000000   0.000000   0.000000   0.000000   0.000000
    20  C    0.000000   0.000000   0.000000   0.000000   0.000000   0.000000
    21  C    0.000000   0.000000   0.000000   0.000000   0.000000   0.000000
    22  C    0.000000   0.000000   0.000000   0.000000   0.000000   0.000000
    23  C    0.000000   0.000000   0.000000   0.000000   0.000000   0.000000
    24  C    0.000000   0.000000   0.000000   0.000000   0.000000   0.000000
    25  C    0.000000   0.000000   0.000000   0.000000   0.000000   0.000000
    26  C    0.000000   0.000000   0.000000   0.000000   0.000000   0.000000
    27  C    0.000000   0.000000   0.000000   0.000000   0.000000   0.000000
    28  C    0.000000   0.000000   0.000000   0.000000   0.000000   0.000000
    29  C    0.000000   0.000000   0.000000   0.000000   0.000000   0.000000
    30  H    0.000000   0.000000   0.000000   0.000000   0.000000   0.000000
    31  H    0.000000   0.000000   0.000000   0.000000   0.000000   0.000000
    32  H    0.000000   0.000000   0.000000   0.000000   0.000000   0.000000
    33  H    0.000000   0.000000   0.000000   0.000000   0.000000   0.000000
    34  H    0.000000   0.000000   0.000000   0.000000   0.000000   0.000000
    35  H    0.000000   0.000000   0.000000   0.000000   0.000000   0.000000
    36  H    0.000000   0.000000   0.000000   0.000000   0.000000   0.000000
    37  H    0.000000   0.000000   0.000000   0.000000   0.000000   0.000000
    38  H    0.000000   0.000000   0.000000   0.000000   0.000000   0.000000
    39  H    0.000000   0.000000   0.000000   0.000000   0.000000   0.000000
    40  H    0.000000   0.000000   0.000000   0.000000   0.000000   0.000000
    41  H    0.000000   0.000000   0.000000   0.000000   0.000000   0.000000
    42  H    0.000000   0.000000   0.000000   0.000000   0.000000   0.000000
    43  H    0.000000   0.000000   0.000000   0.000000   0.000000   0.000000
    44  Rh   0.000000   0.000000   0.000000   0.000000   0.000000   0.000000
              13         14         15         16         17         18
     1  C    0.000000   0.000000   0.000000   0.000000   0.000000   0.000000
     2  C    0.000000   0.000000   0.000000   0.000000   0.000000   0.000000
     3  C    0.000000   0.000000   0.000000   0.000000   0.000000   0.000000
     4  C    0.000000   0.000000   0.000000   0.000000   0.000000   0.000000
     5  C    0.000000   0.000000   0.000000   0.000000   0.000000   0.000000
     6  C    0.000000   0.000000   0.000000   0.000000   0.000000   0.000000
     7  C    0.000000   0.000000   0.000000   0.000000   0.000000   0.000000
     8  C    0.000000   0.000000   0.000000   0.000000   0.000000   0.000000
     9  C    0.000000   0.000000   0.000000   0.000000   0.000000   0.000000
    10  C    0.000000   0.000000   0.000000   0.000000   0.000000   0.000000
    11  C    0.000000   0.000000   0.000000   0.000000   0.000000   0.000000
    12  C    0.000000   0.000000   0.000000   0.000000   0.000000   0.000000
    13  C    4.242168   0.000000   0.000000   0.000000   0.000000   0.000000
    14  C    0.000000   4.254396   0.000000   0.000000   0.000000   0.000000
    15  C    0.000000   0.000000   4.121999   0.000000   0.000000   0.000000
    16  C    0.000000   0.000000   0.000000   4.031208   0.000000   0.000000
    17  C    0.000000   0.000000   0.000000   0.000000   4.349965   0.000000
    18  C    0.000000   0.000000   0.000000   0.000000   0.000000   4.202483
    19  C    0.000000   0.000000   0.000000   0.000000   0.000000   0.000000
    20  C    0.000000   0.000000   0.000000   0.000000   0.000000   0.000000
    21  C    0.000000   0.000000   0.000000   0.000000   0.000000   0.000000
    22  C    0.000000   0.000000   0.000000   0.000000   0.000000   0.000000
    23  C    0.000000   0.000000   0.000000   0.000000   0.000000   0.000000
    24  C    0.000000   0.000000   0.000000   0.000000   0.000000   0.000000
    25  C    0.000000   0.000000   0.000000   0.000000   0.000000   0.000000
    26  C    0.000000   0.000000   0.000000   0.000000   0.000000   0.000000
    27  C    0.000000   0.000000   0.000000   0.000000   0.000000   0.000000
    28  C    0.000000   0.000000   0.000000   0.000000   0.000000   0.000000
    29  C    0.000000   0.000000   0.000000   0.000000   0.000000   0.000000
    30  H    0.000000   0.000000   0.000000   0.000000   0.000000   0.000000
    31  H    0.000000   0.000000   0.000000   0.000000   0.000000   0.000000
    32  H    0.000000   0.000000   0.000000   0.000000   0.000000   0.000000
    33  H    0.000000   0.000000   0.000000   0.000000   0.000000   0.000000
    34  H    0.000000   0.000000   0.000000   0.000000   0.000000   0.000000
    35  H    0.000000   0.000000   0.000000   0.000000   0.000000   0.000000
    36  H    0.000000   0.000000   0.000000   0.000000   0.000000   0.000000
    37  H    0.000000   0.000000   0.000000   0.000000   0.000000   0.000000
    38  H    0.000000   0.000000   0.000000   0.000000   0.000000   0.000000
    39  H    0.000000   0.000000   0.000000   0.000000   0.000000   0.000000
    40  H    0.000000   0.000000   0.000000   0.000000   0.000000   0.000000
    41  H    0.000000   0.000000   0.000000   0.000000   0.000000   0.000000
    42  H    0.000000   0.000000   0.000000   0.000000   0.000000   0.000000
    43  H    0.000000   0.000000   0.000000   0.000000   0.000000   0.000000
    44  Rh   0.000000   0.000000   0.000000   0.000000   0.000000   0.000000
              19         20         21         22         23         24
     1  C    0.000000   0.000000   0.000000   0.000000   0.000000   0.000000
     2  C    0.000000   0.000000   0.000000   0.000000   0.000000   0.000000
     3  C    0.000000   0.000000   0.000000   0.000000   0.000000   0.000000
     4  C    0.000000   0.000000   0.000000   0.000000   0.000000   0.000000
     5  C    0.000000   0.000000   0.000000   0.000000   0.000000   0.000000
     6  C    0.000000   0.000000   0.000000   0.000000   0.000000   0.000000
     7  C    0.000000   0.000000   0.000000   0.000000   0.000000   0.000000
     8  C    0.000000   0.000000   0.000000   0.000000   0.000000   0.000000
     9  C    0.000000   0.000000   0.000000   0.000000   0.000000   0.000000
    10  C    0.000000   0.000000   0.000000   0.000000   0.000000   0.000000
    11  C    0.000000   0.000000   0.000000   0.000000   0.000000   0.000000
    12  C    0.000000   0.000000   0.000000   0.000000   0.000000   0.000000
    13  C    0.000000   0.000000   0.000000   0.000000   0.000000   0.000000
    14  C    0.000000   0.000000   0.000000   0.000000   0.000000   0.000000
    15  C    0.000000   0.000000   0.000000   0.000000   0.000000   0.000000
    16  C    0.000000   0.000000   0.000000   0.000000   0.000000   0.000000
    17  C    0.000000   0.000000   0.000000   0.000000   0.000000   0.000000
    18  C    0.000000   0.000000   0.000000   0.000000   0.000000   0.000000
    19  C    3.969649   0.000000   0.000000   0.000000   0.000000   0.000000
    20  C    0.000000   3.973290   0.000000   0.000000   0.000000   0.000000
    21  C    0.000000   0.000000   4.145107   0.000000   0.000000   0.000000
    22  C    0.000000   0.000000   0.000000   4.036269   0.000000   0.000000
    23  C    0.000000   0.000000   0.000000   0.000000   4.067222   0.000000
    24  C    0.000000   0.000000   0.000000   0.000000   0.000000   4.037664
    25  C    0.000000   0.000000   0.000000   0.000000   0.000000   0.000000
    26  C    0.000000   0.000000   0.000000   0.000000   0.000000   0.000000
    27  C    0.000000   0.000000   0.000000   0.000000   0.000000   0.000000
    28  C    0.000000   0.000000   0.000000   0.000000   0.000000   0.000000
    29  C    0.000000   0.000000   0.000000   0.000000   0.000000   0.000000
    30  H    0.000000   0.000000   0.000000   0.000000   0.000000   0.000000
    31  H    0.000000   0.000000   0.000000   0.000000   0.000000   0.000000
    32  H    0.000000   0.000000   0.000000   0.000000   0.000000   0.000000
[...]
 52113,-0.00156573,0.02335918,-0.04122321,0.03131686,0.00019957,0.00010
 989,-0.00001068,-0.00179611,0.00005514,-0.00002184,-0.02935446,0.02497
 211,-0.00684182,0.00733840,-0.00967892,0.00110203,-0.00012436,-0.00001
 393,-0.00001414,-0.07764306,0.07855182,-0.01213257,-0.00027799,-0.0010
 6718,0.00017837,0.00014698,-0.00002796,-0.00000680,0.00002556,0.000002
 61,-0.00000377,-0.00011476,0.00001451,0.00002702,-0.00002643,0.0000639
 3,-0.00000552,0.00001644,0.00000030,-0.00000534,-0.00041502,0.00056167
 ,-0.00025742,0.00008027,-0.00001758,-0.00008163,0.00001340,-0.00000389
 ,-0.00000453,-0.00003220,-0.00030106,0.00002324,-0.00002208,-0.0002059
 5,-0.00010487,0.00002120,-0.00003283,-0.00000381,0.00023525,-0.0002031
 6,0.00003688,0.00000757,0.00002457,0.00001255,-0.00000133,-0.00002419,
 -0.00000508,-0.00249009,-0.00027704,-0.00062384,-0.00001430,0.00000027
 ,0.00000695,-0.00089318,-0.00138038,-0.00054306,-0.00013587,0.00012359
 ,0.00003770,-0.00000315,0.00005721,0.00001919,-0.00006245,0.00001580,-
 0.00000585,-0.00006218,-0.00011627,-0.00001197,0.00000566,-0.00002577,
 -0.00000464,0.00001178,0.00002971,-0.00000011,0.00002688,0.00000656,0.
 00000234,0.00000806,0.00001330,0.00000196,-0.00000549,0.00001771,0.000
 00057,-0.00000692,0.00001359,0.00000283,-0.00000887,0.00000943,0.00000
 342,-0.00001262,-0.00000038,0.00000437,-0.00000930,-0.00000985,0.00000
 251,-0.00000880,-0.00000759,0.00000434,0.00000690,-0.00005886,-0.00000
 309,-0.00059476,-0.00067511,0.00003456,0.10648534,-0.00020380,-0.00010
 979,0.00000933,-0.00020674,0.00012873,-0.00018561,0.01181668,-0.001541
 37,0.00220306,0.00338861,-0.04003386,0.00453095,0.00025442,0.00009550,
 0.00002095,0.07864089,-0.17238047,0.02267006,-0.00085558,-0.00125434,-
 0.00009602,-0.00005050,-0.00004280,0.00002199,-0.00002244,-0.00001248,
 0.00000524,-0.00002124,-0.00018652,-0.00000577,-0.00000391,-0.00002047
 ,0.00000248,-0.00002057,-0.00000877,0.00000770,0.00036855,-0.00017740,
 0.00016859,-0.00015520,0.00000528,0.00013996,-0.00000347,0.00000492,0.
 00000218,-0.00010674,0.00033510,-0.00003763,0.00004727,0.00040771,0.00
 023864,-0.00004464,0.00005706,0.00000866,0.00017950,-0.00030614,-0.000
 01820,-0.00005120,-0.00003032,-0.00002613,0.00000164,0.00003196,0.0000
 0802,-0.00045103,-0.00001227,0.00025731,-0.00001226,-0.00000333,0.0000
 0709,-0.00146099,-0.00167031,0.00030485,0.00018032,-0.00014350,-0.0000
 3930,0.00002196,-0.00010226,-0.00003702,0.00016921,0.00002297,0.000018
 70,-0.00001254,-0.00006086,-0.00001649,-0.00000787,0.00002604,0.000005
 74,-0.00004167,-0.00006103,-0.00000166,-0.00000629,-0.00004466,-0.0000
 0187,-0.00000905,-0.00001887,-0.00000296,0.00000876,-0.00002789,-0.000
 00172,0.00001233,-0.00002169,-0.00000656,0.00001185,-0.00001263,-0.000
 00595,0.00001909,0.00000124,-0.00000798,0.00001411,0.00002297,-0.00000
 571,0.00001021,0.00003307,-0.00000258,-0.00002042,0.00007682,-0.000003
 04,-0.00050232,0.00012333,-0.00000886,-0.08997724,0.21674982,-0.000294
 05,0.00022231,-0.00015221,0.00045983,0.00013068,-0.00105863,-0.0077123
 9,0.00388638,0.00536525,-0.00090241,0.00179319,0.00591179,-0.00002130,
 -0.00009458,-0.00000880,-0.01025829,0.02350242,-0.04064674,0.00042325,
 -0.00013168,-0.00121547,0.00000516,-0.00000006,0.00000346,0.00000705,0
 .00000611,-0.00000261,0.00004769,-0.00031597,0.00006650,-0.00000267,0.
 00002841,-0.00000275,0.00000301,-0.00000305,-0.00000552,0.00036613,0.0
 0009119,-0.00030048,-0.00006791,-0.00002088,0.00006207,0.00000584,-0.0
 0000754,-0.00000514,0.00048248,0.00056515,0.00012017,-0.00001156,0.000
 01080,0.00008374,0.00001710,0.00000250,-0.00001384,-0.00010014,0.00011
 119,-0.00018805,0.00003389,0.00001514,0.00001390,0.00000781,-0.0000014
 1,-0.00000377,-0.00077220,-0.00073615,0.00317786,-0.00000018,-0.000001
 41,-0.00001871,-0.00084320,0.00061581,0.00401817,0.00015621,-0.0001033
 0,-0.00052562,-0.00002123,0.00000181,0.00000116,0.00002208,0.00004668,
 -0.00003392,0.00002070,-0.00003369,-0.00007057,-0.00000945,-0.00000894
 ,0.00001397,0.00000126,0.00000725,0.00003453,0.00000089,0.00000281,0.0
 0001121,0.00000244,0.00000279,0.00000573,-0.00000234,0.00000311,0.0000
 0476,-0.00000242,0.00000442,0.00000369,-0.00000103,0.00000595,0.000006
 29,-0.00000523,-0.00000046,0.00000497,-0.00000214,-0.00000636,0.000004
 73,-0.00000333,-0.00000589,0.00000970,-0.00000237,-0.00000260,0.000102
 23,0.00001184,-0.00001762,0.00035171,0.01901512,-0.02959663,0.02448135
 ,0.00001184,0.00001151,0.00000393,0.00005242,0.00000688,0.00000944,0.0
 0007695,0.00005390,-0.00001442,-0.02996102,0.02494568,-0.00478764,0.00
 702184,-0.00911428,0.00025490,-0.00185101,0.00006613,-0.00007555,-0.08
 024327,0.08078342,-0.00632424,-0.00001417,0.00001679,-0.00000329,0.000
 00766,0.00000471,-0.00000133,0.00004711,0.00000769,0.00001684,0.000004
 78,-0.00000036,0.00000121,0.00001093,0.00000056,-0.00000410,-0.0001409
 0,0.00012776,-0.00011506,0.00009172,-0.00000162,-0.00007674,0.00000387
 ,-0.00000143,-0.00000104,-0.00022928,0.00044078,-0.00004209,-0.0000279
 0,-0.00013686,-0.00009786,0.00002897,-0.00002413,-0.00000061,0.0000132
 2,-0.00023464,-0.00000119,0.00003929,-0.00002088,0.00000824,0.00001440
 ,-0.00000533,-0.00000086,0.00008777,0.00005976,0.00002014,0.00000216,0
 .00000070,-0.00000268,-0.00262082,-0.00046340,-0.00070662,-0.00015894,
 -0.00000753,-0.00002701,-0.00002665,0.00002300,0.00001228,-0.00083752,
 -0.00153986,-0.00067012,-0.00006088,0.00006804,0.00005157,-0.00000461,
 0.00002074,0.00000020,0.00022336,-0.00015322,0.00005969,0.00001151,0.0
 0004019,0.00000072,0.00000387,0.00001719,0.00000158,-0.00000510,0.0000
 1951,0.00000181,-0.00000999,0.00001442,0.00000280,-0.00000813,0.000008
 77,0.00000350,-0.00001166,-0.00000026,0.00000408,-0.00000852,-0.000010
 58,0.00000231,-0.00000731,-0.00001126,-0.00000120,-0.00000335,-0.00002
 478,0.00000289,0.00000275,-0.00003623,0.00000055,-0.00056487,-0.000698
 60,-0.00001747,0.10853043,0.00003392,-0.00002131,-0.00000016,-0.000036
 74,-0.00008700,-0.00000128,0.00002204,-0.00006516,0.00001534,0.0114401
 9,-0.00152986,0.00152968,0.00472380,-0.04095056,0.00133343,-0.00028987
 ,0.00025942,-0.00010264,0.08041318,-0.17258058,0.01209263,0.00008283,-
 0.00004472,0.00000287,-0.00001012,-0.00000743,0.00000360,-0.00012328,-
 0.00002576,-0.00001222,-0.00001561,0.00003305,-0.00000485,-0.00001365,
 -0.00001129,0.00000444,0.00009120,-0.00014424,0.00011183,-0.00012477,-
 0.00002579,0.00009853,0.00000717,0.00000169,-0.00000321,0.00002385,0.0
 0008271,-0.00000200,0.00006442,0.00027297,0.00015979,-0.00004212,0.000
 04183,-0.00000117,-0.00013828,0.00032847,-0.00001110,-0.00006570,0.000
 01964,-0.00001800,-0.00002017,0.00001047,0.00000059,0.00002794,-0.0000
 2303,0.00000133,-0.00001521,0.00000672,0.00001047,-0.00036289,0.000021
 02,0.00001990,0.00002268,-0.00001476,-0.00001350,0.00001012,-0.0000387
 9,-0.00001996,-0.00149839,-0.00187009,-0.00007703,0.00008924,-0.000072
 56,-0.00000435,0.00000487,-0.00003252,-0.00000507,0.00015441,-0.000405
 37,-0.00001314,-0.00002812,-0.00005541,-0.00000536,-0.00000591,-0.0000
 2370,-0.00000244,0.00000779,-0.00003176,-0.00000237,0.00001492,-0.0000
 2113,-0.00000436,0.00001087,-0.00001006,-0.00000485,0.00001522,0.00000
 058,-0.00000604,0.00001171,0.00001718,-0.00000389,0.00001013,0.0000203
 3,0.00000324,0.00000387,0.00003335,-0.00000597,-0.00007809,0.00007731,
 -0.00001252,-0.00050100,0.00013239,-0.00003453,-0.09338792,0.21713056,
 0.00004336,-0.00000382,-0.00000026,-0.00002754,0.00001257,-0.00002397,
 -0.00007638,0.00004749,0.00001332,-0.00553395,0.00277589,0.00555847,-0
 .00018840,-0.00110078,0.00631535,0.00013817,0.00024488,-0.00087309,-0.
 00537210,0.01266594,-0.03907427,0.00003335,-0.00000886,-0.00001066,0.0
 0000392,0.00000478,-0.00000373,-0.00002299,0.00003190,-0.00000519,0.00
 000096,0.00001172,-0.00000382,0.00000247,0.00000062,-0.00000321,-0.000
 01103,-0.00003272,0.00003693,-0.00004184,-0.00000639,0.00003128,0.0000
 0022,-0.00000446,-0.00000309,0.00004478,-0.00002349,-0.00015557,0.0000
 2522,0.00000899,0.00001217,0.00000046,-0.00000174,-0.00000361,0.000128
 32,0.00011829,0.00007774,-0.00004227,0.00001668,0.00002012,-0.00000805
 ,-0.00000714,-0.00000778,0.00005556,-0.00001441,0.00000476,0.00000626,
 -0.00000016,-0.00000511,-0.00073642,-0.00017334,0.00309913,-0.00002225
 ,0.00002211,-0.00005040,0.00000172,0.00001127,-0.00000564,-0.00079364,
 0.00021542,0.00472161,0.00010533,0.00000059,-0.00049113,0.00001144,-0.
 00001704,0.00002932,0.00005663,0.00001561,-0.00039123,-0.00000024,0.00
 000245,0.00003282,0.00000090,0.00000262,0.00000660,-0.00000149,0.00000
 305,0.00000052,-0.00000111,0.00000280,0.00000526,-0.00000056,0.0000030
 1,0.00000275,-0.00000273,-0.00000017,0.00000306,-0.00000051,-0.0000033
 8,0.00000291,-0.00000148,-0.00000234,0.00000615,-0.00000191,-0.0000042
 4,0.00000758,0.00000608,-0.00000518,0.00003281,-0.00003921,-0.00003637
 ,0.00030945,0.01208456,-0.01467564,0.02194045,-0.00005997,0.00004386,-
 0.00000652,0.00009213,0.00006214,0.00000299,-0.00008947,-0.00008175,0.
 00004021,-0.00034671,-0.00111028,-0.00058812,-0.21671179,-0.00048967,-
 0.01991112,-0.00016028,-0.00002450,0.00000811,-0.02638124,-0.01518427,
 -0.00347656,-0.00007323,0.00003574,-0.00000260,0.00000800,0.00000963,-
 0.00000073,0.00013124,-0.00003984,0.00003351,0.00002202,-0.00001336,0.
 00000035,0.00001866,-0.00000082,-0.00000659,-0.00014993,0.00026078,-0.
 00018675,0.00013764,0.00000439,-0.00011617,0.00000626,-0.00000456,-0.0
 0000189,-0.00011110,0.00001821,0.00002530,-0.00006296,-0.00031049,-0.0
 0018345,0.00005580,-0.00004861,-0.00000360,-0.00027947,0.00114253,-0.0
 0053348,0.00003727,0.00003332,0.00004231,0.00001814,-0.00001770,-0.000
 00494,0.00003444,-0.00005183,0.00001876,0.00001151,-0.00000587,-0.0000
 0858,0.00035253,-0.00002338,0.00004055,-0.00003928,0.00002583,0.000009
 30,-0.00002873,0.00005618,0.00002644,-0.02616217,0.01489618,-0.0036053
 4,-0.00024509,0.00003709,-0.00000157,-0.00000850,0.00000082,0.00000183
 ,0.00045056,0.00047735,0.00015490,0.00004151,0.00006915,-0.00000365,0.
 00001494,0.00003443,0.00000378,-0.00000942,0.00003617,0.00000245,-0.00
 001635,0.00002709,0.00000486,-0.00001474,0.00001771,0.00000662,-0.0000
 2137,-0.00000011,0.00000768,-0.00001472,-0.00001836,0.00000428,-0.0000
 1208,-0.00001816,-0.00000402,-0.00001049,-0.00003821,0.00000651,0.0000
 1452,-0.00004086,0.00000324,0.00004416,-0.00008509,-0.00000438,0.00046
 090,-0.00050714,0.00017856,0.26901967,-0.00000388,-0.00000678,0.000000
 02,-0.00003179,-0.00000406,-0.00000401,-0.00001587,-0.00008664,0.00001
 302,-0.00096150,-0.00235041,-0.00001957,-0.00056310,-0.03356192,-0.000
 10032,-0.00050892,-0.00001954,-0.00006932,-0.02911481,-0.00757396,-0.0
 0322895,0.00000558,-0.00000120,-0.00000054,0.00000188,-0.00000115,-0.0
 0000178,-0.00001240,-0.00000184,-0.00000354,-0.00000298,-0.00000065,0.
 00000110,-0.00000023,0.00000473,0.00000031,0.00002474,-0.00001220,0.00
 001313,0.00000034,0.00000717,0.00000068,-0.00000536,-0.00000049,0.0000
 0206,0.00000285,0.00000635,-0.00000176,-0.00000939,-0.00000983,-0.0000
 0626,0.00000033,-0.00000273,0.00000133,0.00090525,-0.00235903,0.000080
 30,0.00001267,-0.00010189,-0.00001292,0.00000614,-0.00000883,-0.000000
 31,-0.00001187,0.00000077,-0.00000318,0.00000349,-0.00000264,-0.000002
 01,0.00000068,-0.00007518,-0.00000008,0.00000375,0.00000050,0.00000105
 ,0.00000358,0.00000049,0.00000110,0.02890976,-0.00745131,0.00333313,0.
 00052700,-0.00002743,0.00006981,0.00002741,0.00000462,0.00000404,0.000
 88633,-0.00033339,0.00009734,0.00002536,0.00005602,0.00000769,0.000003
 94,0.00000924,0.00000109,0.00000087,0.00000510,0.00000041,-0.00000141,
 0.00000221,0.00000012,-0.00000024,-0.00000011,0.00000011,0.00000017,0.
 00000019,-0.00000005,0.00000036,0.00000027,-0.00000019,0.00000071,0.00
 000129,0.00000043,-0.00000119,0.00000430,-0.00000050,-0.00000424,0.000
 00995,-0.00000135,-0.00002591,0.00005837,-0.00000843,-0.00087436,-0.00
 033585,-0.00010340,0.00080209,0.05415027,-0.00000982,0.00000882,0.0000
 1354,0.00001512,0.00001008,-0.00000758,0.00002618,-0.00005333,-0.00025
 875,-0.00069400,0.00004823,0.00505137,-0.01979172,-0.00012634,-0.04241
 939,-0.00003561,-0.00002339,-0.00020730,-0.00336849,-0.00160574,0.0052
 7948,-0.00001617,0.00000280,-0.00000843,-0.00000106,0.00000450,-0.0000
 0158,0.00001979,0.00000006,0.00000044,0.00001000,-0.00000389,-0.000002
 20,0.00000250,-0.00000203,-0.00000277,-0.00000500,0.00000763,0.0000423
 5,-0.00001900,-0.00000083,0.00001567,0.00000119,-0.00000233,-0.0000027
 4,0.00002888,0.00000303,-0.00044348,0.00000231,-0.00001515,0.00002468,
 0.00000935,-0.00000259,-0.00000631,-0.00061880,0.00003138,0.00456459,0
 .00003583,0.00003347,-0.00019481,0.00000391,-0.00000271,0.00000487,0.0
 0000349,0.00001382,-0.00000537,0.00000563,-0.00000147,-0.00000410,0.00
 008538,-0.00000779,0.00004580,0.00000202,-0.00001960,0.00000663,-0.000
 01069,0.00000591,0.00000342,-0.00366452,0.00173710,0.00530676,-0.00004
 075,0.00002543,-0.00023283,-0.00000230,-0.00000179,-0.00000092,0.00017
 700,0.00005262,-0.00095611,-0.00000052,0.00000128,0.00008425,0.0000021
 4,0.00000433,0.00000820,-0.00000180,0.00000409,0.00000305,-0.00000193,
 0.00000384,0.00000354,-0.00000140,0.00000353,0.00000266,-0.00000335,-0
 .00000006,0.00000277,-0.00000137,-0.00000336,0.00000220,-0.00000188,-0
 .00000280,0.00000209,-0.00000223,-0.00000494,0.00000382,0.00000284,-0.
 00000609,0.00000750,-0.00000093,-0.00000112,0.00010171,0.00020268,-0.0
 0006373,-0.00112044,0.02765997,-0.00005650,0.02531156,-0.00162755,-0.0
 0007520,-0.00004778,0.00201647,0.00139497,-0.00009697,-0.00147411,-0.0
 0137011,-0.00019633,0.00078440,0.00046338,-0.00001816,-0.00002948,0.00
 027809,-0.00001484,-0.00097333,-0.00000354,-0.00001361,-0.00061415,-0.
 00023172,-0.00006981,-0.00489653,-0.00034716,0.00036446,-0.00002623,-0
 .00154278,0.00034681,0.00994523,0.00374392,-0.00092063,-0.01681193,-0.
 01523077,0.01027158,-0.00065578,0.00040631,0.00040484,-0.02645751,0.02
 496124,-0.02628448,-0.06466497,-0.00023262,0.05489534,0.00022177,0.001
 03044,0.00074115,-0.00153787,0.00063994,-0.00114262,-0.02898675,-0.026
 07481,-0.02862724,-0.00285679,-0.00168387,0.00063126,-0.00010554,-0.00
 007447,-0.00007204,-0.00164484,0.00051402,-0.00053595,0.00003118,-0.00
 011652,0.00019502,-0.01899595,0.01375503,-0.00783364,-0.01738411,0.015
 92333,0.01117743,-0.00079820,0.00011800,-0.00032871,-0.01661459,-0.014
 19396,-0.00755113,0.00718436,-0.00212300,-0.00155937,-0.00003419,-0.00
 017897,-0.00001144,-0.00068308,-0.00061968,-0.00008972,0.00036244,-0.0
 0053716,-0.00010896,0.00002464,0.00005047,-0.00000361,-0.00007240,0.00
 005663,-0.00001067,0.00004871,0.00005692,-0.00002972,-0.00000628,0.000
 06860,-0.00006581,-0.00013555,0.00003780,0.00025029,-0.00028308,-0.000
 07443,-0.00007860,0.00026146,-0.00002693,-0.00009423,-0.00027595,0.000
 04496,0.00004385,-0.00017081,0.00004850,-0.00012161,-0.00003975,-0.000
 18262,0.00001200,0.00015198,-0.00032923,0.00001353,0.00000507,-0.00009
 437,-0.00002788,0.00002806,-0.00001915,-0.00000177,0.00004897,-0.00000
 138,0.00000072,0.18773513,-0.00008681,-0.00167621,0.00067591,-0.000347
 84,-0.00118108,0.00024030,-0.00021241,0.00122884,-0.00024775,-0.000500
 42,-0.00023802,-0.00001506,-0.00001338,-0.00018088,-0.00000254,0.00078
 932,0.00047242,-0.00003988,0.00030774,0.00023562,0.00003356,0.00317286
 ,-0.00254082,0.00050330,-0.00026097,-0.00114327,0.00021196,-0.00359145
 ,-0.02961354,0.01043687,-0.01313566,0.00024528,0.00568134,0.00030608,0
 .00119227,-0.00005299,0.02816034,-0.05385049,0.04392777,-0.00087658,-0
 .01062653,0.00103967,0.00032637,-0.00135576,-0.00061380,0.00010405,-0.
 00101020,0.00012247,-0.03088658,-0.05524481,-0.04534330,-0.00004163,-0
 .00228676,-0.00069271,0.00004137,-0.00000039,-0.00002898,-0.00040999,0
 .00118178,-0.00031261,0.00040097,-0.00254998,-0.00059900,0.01566314,-0
 .00256982,0.00528379,0.01258022,-0.00136304,-0.00608703,0.00002902,0.0
 0004609,0.00000878,-0.01351592,-0.00224416,-0.00463967,0.00048003,-0.0
 2353284,-0.00961135,-0.00012809,0.00016792,-0.00002223,-0.00022422,-0.
 00012821,-0.00004785,0.00001387,-0.00053750,-0.00021793,0.00001673,0.0
 0000365,0.00000432,-0.00002154,0.00003579,0.00001084,0.00005765,0.0000
 6990,-0.00001202,-0.00025958,-0.00027671,0.00001398,-0.00004543,-0.000
 00416,0.00001930,0.00031608,-0.00005175,-0.00003659,0.00003468,0.00000
 991,0.00001766,-0.00024174,0.00007116,-0.00000186,0.00013950,0.0000215
 2,0.00032426,0.00027750,-0.00023251,-0.00003571,-0.00017380,0.00036620
 ,-0.00003065,-0.00001057,-0.00003548,0.00006959,0.00000632,-0.00004889
 ,0.00000631,0.00002236,0.00000664,0.00000496,0.00174873,0.18919287,0.0
 0037417,0.00240164,0.00391175,0.00087402,0.00170895,0.00028781,-0.0017
 9845,-0.00165862,0.00220337,0.00101104,0.00036437,-0.00002574,-0.00022
 821,0.00035684,0.00000627,-0.00073596,0.00031416,0.00009586,-0.0007670
 1,-0.00018481,0.00005631,-0.00590277,0.00144316,-0.00009777,-0.0007413
 3,0.00337305,0.00363313,0.00173515,0.01925915,-0.00330374,0.01930871,0
 .00396240,-0.00657586,0.00042886,-0.00218937,0.00010504,-0.00574492,0.
 00728058,-0.04902187,0.01465567,0.00194482,-0.05759414,0.00266395,-0.0
 0169782,0.00293906,0.00035826,0.00147735,-0.00115508,-0.01201835,-0.01
 368234,-0.04751375,0.00486734,0.00333201,-0.00067269,-0.00029414,-0.00
 008499,-0.00005439,-0.00117115,0.00084666,0.00229528,0.00272016,-0.001
 50444,0.00198894,-0.01309269,0.01031508,-0.00306273,0.01667734,-0.0102
 8630,-0.00693681,-0.00027827,0.00030212,0.00001534,-0.00646057,-0.0120
 0202,-0.00277585,-0.00924755,-0.01307263,-0.00270583,0.00003720,-0.000
 39813,0.00012445,-0.00092821,-0.00115568,0.00009963,-0.00111777,-0.000
 18852,0.00018757,0.00022738,0.00033287,-0.00004938,0.00010813,0.000456
 39,-0.00015194,0.00031195,0.00059699,-0.00033757,-0.00068341,0.0000900
 8,-0.00031506,-0.00048615,0.00078920,-0.00071513,-0.00001162,0.0009957
 5,-0.00009928,-0.00122206,0.00006487,-0.00025359,-0.00007089,-0.000878
 01,-0.00041847,-0.00058916,-0.00089500,-0.00101264,-0.00073335,-0.0002
 9049,-0.00036366,0.00047262,-0.00107759,-0.00049437,0.00021727,-0.0004
 8766,-0.00001598,0.00022473,-0.00027487,-0.00004197,0.00036537,-0.0000
 0268,-0.00001398,-0.00338693,0.00003839,0.16779031||0.00000876,-0.0000
 1340,0.00000390,-0.00001422,0.00000088,-0.00000348,0.00001287,0.000002
 28,0.00000233,-0.00000237,0.00000335,-0.00000069,0.00000381,0.00000097
 ,0.00000043,-0.00001147,-0.00000789,-0.00000261,0.00000232,-0.00000677
 ,-0.00000019,0.00002692,-0.00001123,-0.00000393,0.00003321,-0.00002656
 ,-0.00000939,-0.00000856,0.00000392,-0.00000098,-0.00002717,-0.0000062
 0,0.00000506,-0.00000212,0.00003338,0.00000170,0.00001355,-0.00004818,
 0.00003780,-0.00002189,0.00002498,0.00000059,-0.00001384,-0.00001454,0
 .00000898,-0.00000697,-0.00001464,-0.00000131,-0.00003206,-0.00006910,
 -0.00001844,0.00000465,0.00001772,-0.00000267,-0.00000138,-0.00000530,
 -0.00000053,0.00001570,-0.00001601,-0.00000019,0.00001604,-0.00000033,
 0.00000092,0.00002122,-0.00000191,-0.00000370,0.00000484,-0.00000234,-
 0.00000406,0.00000880,-0.00000143,0.00000157,0.00000321,0.00003853,-0.
 00001143,-0.00000816,0.00000272,-0.00000115,0.00000618,0.00000360,0.00
 000085,-0.00000822,0.00001463,0.00000006,-0.00002081,0.00001268,-0.000
 00110,0.00000115,-0.00000012,0.00000019,0.00000208,-0.00000081,0.00000
 023,0.00000218,-0.00000237,-0.00000107,-0.00000400,0.00000048,0.000002
 18,-0.00000407,-0.00000669,-0.00000172,0.00000366,-0.00000095,-0.00000
 179,0.00000072,-0.00000510,-0.00000152,-0.00000543,0.00000814,0.000003
 44,-0.00001217,0.00000273,-0.00000636,0.00000079,0.00000455,0.00000201
 ,0.00000027,0.00000061,-0.00000024,0.00000180,0.00000118,0.00000209,0.
 00000039,0.00000157,0.00000050,-0.00000010,-0.00000041,-0.00000036,0.0
 0000988,0.00008338,0.00000405|||@


 STEINBACH'S GUIDELINES FOR SYSTEMS PROGRAMMING:
 NEVER TEST FOR AN ERROR CONDITION YOU DON'T KNOW HOW
 TO HANDLE.
 Job cpu time:       0 days  0 hours  0 minutes 12.0 seconds.
 File lengths (MBytes):  RWF=    755 Int=      0 D2E=      0 Chk=      5 Scr=      1
 Normal termination of Gaussian 09 at Wed Mar 11 11:22:13 2026.
