 Entering Link 1 = C:\G09W\l1.exe PID=     22764.
  
 Copyright (c) 1988,1990,1992,1993,1995,1998,2003,2009,2013,
            Gaussian, Inc.  All Rights Reserved.
  
 This is part of the Gaussian(R) 09 program.  It is based on
 the Gaussian(R) 03 system (copyright 2003, Gaussian, Inc.),
 the Gaussian(R) 98 system (copyright 1998, Gaussian, Inc.),
 the Gaussian(R) 94 system (copyright 1995, Gaussian, Inc.),
 the Gaussian 92(TM) system (copyright 1992, Gaussian, Inc.),
 the Gaussian 90(TM) system (copyright 1990, Gaussian, Inc.),
 the Gaussian 88(TM) system (copyright 1988, Gaussian, Inc.),
 the Gaussian 86(TM) system (copyright 1986, Carnegie Mellon
 University), and the Gaussian 82(TM) system (copyright 1983,
 Carnegie Mellon University). Gaussian is a federally registered
 trademark of Gaussian, Inc.
  
 This software contains proprietary and confidential information,
 including trade secrets, belonging to Gaussian, Inc.
  
 This software is provided under written license and may be
 used, copied, transmitted, or stored only in accord with that
 written license.
  
 The following legend is applicable only to US Government
 contracts under FAR:
  
                    RESTRICTED RIGHTS LEGEND
  
 Use, reproduction and disclosure by the US Government is
 subject to restrictions as set forth in subparagraphs (a)
 and (c) of the Commercial Computer Software - Restricted
 Rights clause in FAR 52.227-19.
  
 Gaussian, Inc.
 340 Quinnipiac St., Bldg. 40, Wallingford CT 06492
  
  
 ---------------------------------------------------------------
 Warning -- This program may not be used in any manner that
 competes with the business of Gaussian, Inc. or will provide
 assistance to any competitor of Gaussian, Inc.  The licensee
 of this program is prohibited from giving any competitor of
 Gaussian, Inc. access to this program.  By using this program,
 the user acknowledges that Gaussian, Inc. is engaged in the
 business of creating and licensing software in the field of
 computational chemistry and represents and warrants to the
 licensee that it is not a competitor of Gaussian, Inc. and that
 it will not use this program in any manner prohibited above.
 ---------------------------------------------------------------
  

 Cite this work as:
 Gaussian 09, Revision D.01,
 M. J. Frisch, G. W. Trucks, H. B. Schlegel, G. E. Scuseria, 
 M. A. Robb, J. R. Cheeseman, G. Scalmani, V. Barone, B. Mennucci, 
 G. A. Petersson, H. Nakatsuji, M. Caricato, X. Li, H. P. Hratchian, 
 A. F. Izmaylov, J. Bloino, G. Zheng, J. L. Sonnenberg, M. Hada, 
 M. Ehara, K. Toyota, R. Fukuda, J. Hasegawa, M. Ishida, T. Nakajima, 
 Y. Honda, O. Kitao, H. Nakai, T. Vreven, J. A. Montgomery, Jr., 
 J. E. Peralta, F. Ogliaro, M. Bearpark, J. J. Heyd, E. Brothers, 
 K. N. Kudin, V. N. Staroverov, T. Keith, R. Kobayashi, J. Normand, 
 K. Raghavachari, A. Rendell, J. C. Burant, S. S. Iyengar, J. Tomasi, 
 M. Cossi, N. Rega, J. M. Millam, M. Klene, J. E. Knox, J. B. Cross, 
 V. Bakken, C. Adamo, J. Jaramillo, R. Gomperts, R. E. Stratmann, 
 O. Yazyev, A. J. Austin, R. Cammi, C. Pomelli, J. W. Ochterski, 
 R. L. Martin, K. Morokuma, V. G. Zakrzewski, G. A. Voth, 
 P. Salvador, J. J. Dannenberg, S. Dapprich, A. D. Daniels, 
 O. Farkas, J. B. Foresman, J. V. Ortiz, J. Cioslowski, 
 and D. J. Fox, Gaussian, Inc., Wallingford CT, 2013.
 
 ******************************************
 Gaussian 09:  IA32W-G09RevD.01 24-Apr-2013
                26-Dec-2024 
 ******************************************
 %nprocshared=2
 Will use up to    2 processors via shared memory.
 %mem=1GB
 %chk=C:\Users\Yash Shaw\Desktop\GaussView Work\CTMSE\Rh doped MoS2+SO2\Ad Energy
 \Rh doped MoS2.chk
 ----------------------------------
 # opt pm6 scf=qc geom=connectivity
 ----------------------------------
 1/14=-1,18=20,19=15,26=1,38=1,57=2/1,3;
 2/9=110,12=2,17=6,18=5,40=1/2;
 3/5=2,16=1,25=1,41=3900000,71=1/1,2,3;
 4/35=1/1;
 5/5=2,8=3,35=1,38=5/8;
 6/7=2,8=2,9=2,10=2,28=1/1;
 7//1,2,3,16;
 1/14=-1,18=20,19=15,26=1/3(2);
 2/9=110/2;
 99//99;
 2/9=110/2;
 3/5=2,16=1,25=1,41=3900000,71=1,135=20/1,2,3;
 4/5=5,16=3,35=1/1;
 5/5=2,8=3,35=1,38=5/8;
 7//1,2,3,16;
 1/14=-1,18=20,19=15,26=1/3(-5);
 2/9=110/2;
 6/7=2,8=2,9=2,10=2,19=2,28=1/1;
 99/9=1/99;
 -------------
 Rh doped MoS2
 -------------
 Symbolic Z-matrix:
 Charge =  0 Multiplicity = 2
 Mo                   -1   -0.72762  -5.04954   0.55675 
 S                    -1   -2.05816  -3.99999   2.28002 
 S                    -1   -2.71335  -4.55566  -0.72953 
 Mo                   -1    2.36865  -4.78668  -0.16585 
 Mo                   -1    5.46492  -4.52382  -0.88844 
 Mo                   -1    8.56118  -4.26096  -1.61104 
 S                    -1    1.03811  -3.73713   1.55742 
 S                    -1    4.13437  -3.47427   0.83483 
 S                    -1    7.23064  -3.2114    0.11223 
 S                    -1    0.38292  -4.2928   -1.45213 
 S                    -1    3.47919  -4.02994  -2.17473 
 S                    -1    6.57545  -3.76708  -2.89733 
 Mo                   -1   -2.60576  -2.47152   0.48963 
 Mo                   -1   -4.4839    0.1065    0.42251 
 Mo                   -1   -6.36204   2.68452   0.35539 
 S                    -1   -3.9363   -1.42197   2.2129 
 S                    -1   -5.81444   1.15606   2.14578 
 S                    0    -7.69258   3.73408   2.07866 
 S                    -1   -4.59149  -1.97764  -0.79665 
 S                    -1   -6.46963   0.60038  -0.86377 
 S                    -1   -8.34777   3.17841  -0.93089 
 Mo                   -1    0.49051  -2.20866  -0.23297 
 Mo                   -1   -1.38763   0.36936  -0.30009 
 Mo                   -1   -3.26577   2.94738  -0.36721 
 Mo                   -1    3.58678  -1.9458   -0.95556 
 Mo                   -1   -0.1695    3.21025  -1.08981 
 Mo                   -1    6.68304  -1.68294  -1.67816 
 Mo                   -1    4.8049    0.89509  -1.74528 
 Mo                   -1    2.92676   3.47311  -1.8124 
 S                    -1   -0.84003  -1.1591    1.4903 
 S                    -1   -2.71817   1.41892   1.42318 
 S                    -1   -4.59631   3.99694   1.35606 
 S                    -1    2.25623  -0.89624   0.7677 
 S                    -1    0.37809   1.68178   0.70058 
 S                    -1   -1.50004   4.2598    0.63346 
 S                    -1    5.3525   -0.63338   0.04511 
 S                    -1    3.47436   1.94464  -0.02201 
 S                    -1    1.59622   4.52266  -0.08913 
 S                    -1   -1.49522  -1.71478  -1.51925 
 S                    -1   -3.37336   0.86325  -1.58637 
 S                    -1   -5.2515    3.44127  -1.65349 
 S                    -1    1.60105  -1.45191  -2.24185 
 S                    -1   -0.27709   1.12611  -2.30897 
 S                    -1   -2.15523   3.70413  -2.37609 
 S                    -1    4.69732  -1.18905  -2.96445 
 S                    -1    2.81918   1.38897  -3.03157 
 S                    -1    0.94104   3.96699  -3.09869 
 Rh                   -1    1.70864   0.63222  -1.02269 
 

 GradGradGradGradGradGradGradGradGradGradGradGradGradGradGradGradGradGrad
 Berny optimization.
 Initialization pass.
                           ----------------------------
                           !    Initial Parameters    !
                           ! (Angstroms and Degrees)  !
 --------------------------                            --------------------------
 ! Name  Definition              Value          Derivative Info.                !
 --------------------------------------------------------------------------------
 ! X1    R(1,-1)                -0.7276         Frozen                          !
 ! Y1    R(1,-2)                -5.0495         Frozen                          !
 ! Z1    R(1,-3)                 0.5568         Frozen                          !
 ! X2    R(2,-1)                -2.0582         Frozen                          !
 ! Y2    R(2,-2)                -4.0            Frozen                          !
 ! Z2    R(2,-3)                 2.28           Frozen                          !
 ! X3    R(3,-1)                -2.7133         Frozen                          !
 ! Y3    R(3,-2)                -4.5557         Frozen                          !
 ! Z3    R(3,-3)                -0.7295         Frozen                          !
 ! X4    R(4,-1)                 2.3686         Frozen                          !
 ! Y4    R(4,-2)                -4.7867         Frozen                          !
 ! Z4    R(4,-3)                -0.1658         Frozen                          !
 ! X5    R(5,-1)                 5.4649         Frozen                          !
 ! Y5    R(5,-2)                -4.5238         Frozen                          !
 ! Z5    R(5,-3)                -0.8884         Frozen                          !
 ! X6    R(6,-1)                 8.5612         Frozen                          !
 ! Y6    R(6,-2)                -4.261          Frozen                          !
 ! Z6    R(6,-3)                -1.611          Frozen                          !
 ! X7    R(7,-1)                 1.0381         Frozen                          !
 ! Y7    R(7,-2)                -3.7371         Frozen                          !
 ! Z7    R(7,-3)                 1.5574         Frozen                          !
 ! X8    R(8,-1)                 4.1344         Frozen                          !
 ! Y8    R(8,-2)                -3.4743         Frozen                          !
 ! Z8    R(8,-3)                 0.8348         Frozen                          !
 ! X9    R(9,-1)                 7.2306         Frozen                          !
 ! Y9    R(9,-2)                -3.2114         Frozen                          !
 ! Z9    R(9,-3)                 0.1122         Frozen                          !
 ! X10   R(10,-1)                0.3829         Frozen                          !
 ! Y10   R(10,-2)               -4.2928         Frozen                          !
 ! Z10   R(10,-3)               -1.4521         Frozen                          !
 ! X11   R(11,-1)                3.4792         Frozen                          !
 ! Y11   R(11,-2)               -4.0299         Frozen                          !
 ! Z11   R(11,-3)               -2.1747         Frozen                          !
 ! X12   R(12,-1)                6.5755         Frozen                          !
 ! Y12   R(12,-2)               -3.7671         Frozen                          !
 ! Z12   R(12,-3)               -2.8973         Frozen                          !
 ! X13   R(13,-1)               -2.6058         Frozen                          !
 ! Y13   R(13,-2)               -2.4715         Frozen                          !
 ! Z13   R(13,-3)                0.4896         Frozen                          !
 ! X14   R(14,-1)               -4.4839         Frozen                          !
 ! Y14   R(14,-2)                0.1065         Frozen                          !
 ! Z14   R(14,-3)                0.4225         Frozen                          !
 ! X15   R(15,-1)               -6.362          Frozen                          !
 ! Y15   R(15,-2)                2.6845         Frozen                          !
 ! Z15   R(15,-3)                0.3554         Frozen                          !
 ! X16   R(16,-1)               -3.9363         Frozen                          !
 ! Y16   R(16,-2)               -1.422          Frozen                          !
 ! Z16   R(16,-3)                2.2129         Frozen                          !
 ! X17   R(17,-1)               -5.8144         Frozen                          !
 ! Y17   R(17,-2)                1.1561         Frozen                          !
 ! Z17   R(17,-3)                2.1458         Frozen                          !
 ! X19   R(19,-1)               -4.5915         Frozen                          !
 ! Y19   R(19,-2)               -1.9776         Frozen                          !
 ! Z19   R(19,-3)               -0.7967         Frozen                          !
 ! X20   R(20,-1)               -6.4696         Frozen                          !
 ! Y20   R(20,-2)                0.6004         Frozen                          !
 ! Z20   R(20,-3)               -0.8638         Frozen                          !
 ! X21   R(21,-1)               -8.3478         Frozen                          !
 ! Y21   R(21,-2)                3.1784         Frozen                          !
 ! Z21   R(21,-3)               -0.9309         Frozen                          !
 ! X22   R(22,-1)                0.4905         Frozen                          !
 ! Y22   R(22,-2)               -2.2087         Frozen                          !
 ! Z22   R(22,-3)               -0.233          Frozen                          !
 ! X23   R(23,-1)               -1.3876         Frozen                          !
 ! Y23   R(23,-2)                0.3694         Frozen                          !
 ! Z23   R(23,-3)               -0.3001         Frozen                          !
 ! X24   R(24,-1)               -3.2658         Frozen                          !
 ! Y24   R(24,-2)                2.9474         Frozen                          !
 ! Z24   R(24,-3)               -0.3672         Frozen                          !
 ! X25   R(25,-1)                3.5868         Frozen                          !
 ! Y25   R(25,-2)               -1.9458         Frozen                          !
 ! Z25   R(25,-3)               -0.9556         Frozen                          !
 ! X26   R(26,-1)               -0.1695         Frozen                          !
 ! Y26   R(26,-2)                3.2102         Frozen                          !
 ! Z26   R(26,-3)               -1.0898         Frozen                          !
 ! X27   R(27,-1)                6.683          Frozen                          !
 ! Y27   R(27,-2)               -1.6829         Frozen                          !
 ! Z27   R(27,-3)               -1.6782         Frozen                          !
 ! X28   R(28,-1)                4.8049         Frozen                          !
 ! Y28   R(28,-2)                0.8951         Frozen                          !
 ! Z28   R(28,-3)               -1.7453         Frozen                          !
 ! X29   R(29,-1)                2.9268         Frozen                          !
 ! Y29   R(29,-2)                3.4731         Frozen                          !
 ! Z29   R(29,-3)               -1.8124         Frozen                          !
 ! X30   R(30,-1)               -0.84           Frozen                          !
 ! Y30   R(30,-2)               -1.1591         Frozen                          !
 ! Z30   R(30,-3)                1.4903         Frozen                          !
 ! X31   R(31,-1)               -2.7182         Frozen                          !
 ! Y31   R(31,-2)                1.4189         Frozen                          !
 ! Z31   R(31,-3)                1.4232         Frozen                          !
 ! X32   R(32,-1)               -4.5963         Frozen                          !
 ! Y32   R(32,-2)                3.9969         Frozen                          !
 ! Z32   R(32,-3)                1.3561         Frozen                          !
 ! X33   R(33,-1)                2.2562         Frozen                          !
 ! Y33   R(33,-2)               -0.8962         Frozen                          !
 ! Z33   R(33,-3)                0.7677         Frozen                          !
 ! X34   R(34,-1)                0.3781         Frozen                          !
 ! Y34   R(34,-2)                1.6818         Frozen                          !
 ! Z34   R(34,-3)                0.7006         Frozen                          !
 ! X35   R(35,-1)               -1.5            Frozen                          !
 ! Y35   R(35,-2)                4.2598         Frozen                          !
 ! Z35   R(35,-3)                0.6335         Frozen                          !
 ! X36   R(36,-1)                5.3525         Frozen                          !
 ! Y36   R(36,-2)               -0.6334         Frozen                          !
 ! Z36   R(36,-3)                0.0451         Frozen                          !
 ! X37   R(37,-1)                3.4744         Frozen                          !
 ! Y37   R(37,-2)                1.9446         Frozen                          !
 ! Z37   R(37,-3)               -0.022          Frozen                          !
 ! X38   R(38,-1)                1.5962         Frozen                          !
 ! Y38   R(38,-2)                4.5227         Frozen                          !
 ! Z38   R(38,-3)               -0.0891         Frozen                          !
 ! X39   R(39,-1)               -1.4952         Frozen                          !
 ! Y39   R(39,-2)               -1.7148         Frozen                          !
 ! Z39   R(39,-3)               -1.5193         Frozen                          !
 ! X40   R(40,-1)               -3.3734         Frozen                          !
 ! Y40   R(40,-2)                0.8632         Frozen                          !
 ! Z40   R(40,-3)               -1.5864         Frozen                          !
 ! X41   R(41,-1)               -5.2515         Frozen                          !
 ! Y41   R(41,-2)                3.4413         Frozen                          !
 ! Z41   R(41,-3)               -1.6535         Frozen                          !
 ! X42   R(42,-1)                1.601          Frozen                          !
 ! Y42   R(42,-2)               -1.4519         Frozen                          !
 ! Z42   R(42,-3)               -2.2418         Frozen                          !
 ! X43   R(43,-1)               -0.2771         Frozen                          !
 ! Y43   R(43,-2)                1.1261         Frozen                          !
 ! Z43   R(43,-3)               -2.309          Frozen                          !
 ! X44   R(44,-1)               -2.1552         Frozen                          !
 ! Y44   R(44,-2)                3.7041         Frozen                          !
 ! Z44   R(44,-3)               -2.3761         Frozen                          !
 ! X45   R(45,-1)                4.6973         Frozen                          !
 ! Y45   R(45,-2)               -1.1891         Frozen                          !
 ! Z45   R(45,-3)               -2.9644         Frozen                          !
 ! X46   R(46,-1)                2.8192         Frozen                          !
 ! Y46   R(46,-2)                1.389          Frozen                          !
 ! Z46   R(46,-3)               -3.0316         Frozen                          !
 ! X47   R(47,-1)                0.941          Frozen                          !
 ! Y47   R(47,-2)                3.967          Frozen                          !
 ! Z47   R(47,-3)               -3.0987         Frozen                          !
 ! X48   R(48,-1)                1.7086         Frozen                          !
 ! Y48   R(48,-2)                0.6322         Frozen                          !
 ! Z48   R(48,-3)               -1.0227         Frozen                          !
 ! R1    R(15,18)                2.4169         estimate D2E/DX2                !
 ! A1    A(17,15,18)            82.5986         estimate D2E/DX2                !
 ! A2    A(18,15,20)           135.2029         estimate D2E/DX2                !
 ! A3    A(18,15,21)            80.7018         estimate D2E/DX2                !
 ! A4    A(18,15,32)            82.5986         estimate D2E/DX2                !
 ! A5    A(18,15,41)           135.2029         estimate D2E/DX2                !
 ! D1    D(18,15,17,14)        180.0            estimate D2E/DX2                !
 ! D2    D(18,15,20,14)       -111.2271         estimate D2E/DX2                !
 ! D3    D(18,15,32,24)       -180.0            estimate D2E/DX2                !
 ! D4    D(18,15,41,24)        111.2271         estimate D2E/DX2                !
 --------------------------------------------------------------------------------
 Trust Radius=3.00D-01 FncErr=1.00D-07 GrdErr=1.00D-07
 Number of steps in this run=    161 maximum allowed number of steps=    288.
 GradGradGradGradGradGradGradGradGradGradGradGradGradGradGradGradGradGrad

                          Input orientation:                          
 ---------------------------------------------------------------------
 Center     Atomic      Atomic             Coordinates (Angstroms)
 Number     Number       Type             X           Y           Z
 ---------------------------------------------------------------------
      1         42           0       -0.727618   -5.049545    0.556752
      2         16           0       -2.058160   -3.999989    2.280021
      3         16           0       -2.713347   -4.555661   -0.729532
      4         42           0        2.368649   -4.786683   -0.165846
      5         42           0        5.464917   -4.523821   -0.888444
      6         42           0        8.561184   -4.260959   -1.611042
      7         16           0        1.038107   -3.737127    1.557423
      8         16           0        4.134374   -3.474265    0.834825
      9         16           0        7.230641   -3.211403    0.112227
     10         16           0        0.382921   -4.292799   -1.452130
     11         16           0        3.479188   -4.029937   -2.174728
     12         16           0        6.575455   -3.767075   -2.897326
     13         42           0       -2.605757   -2.471522    0.489632
     14         42           0       -4.483897    0.106500    0.422511
     15         42           0       -6.362037    2.684523    0.355391
     16         16           0       -3.936300   -1.421966    2.212901
     17         16           0       -5.814439    1.156056    2.145780
     18         16           0       -7.692579    3.734079    2.078660
     19         16           0       -4.591486   -1.977638   -0.796652
     20         16           0       -6.469626    0.600384   -0.863773
     21         16           0       -8.347766    3.178407   -0.930893
     22         42           0        0.490510   -2.208661   -0.232966
     23         42           0       -1.387630    0.369362   -0.300087
     24         42           0       -3.265770    2.947385   -0.367207
     25         42           0        3.586777   -1.945799   -0.955565
     26         42           0       -0.169503    3.210247   -1.089805
     27         42           0        6.683044   -1.682937   -1.678163
     28         42           0        4.804904    0.895086   -1.745283
     29         42           0        2.926765    3.473108   -1.812404
     30         16           0       -0.840033   -1.159104    1.490303
     31         16           0       -2.718172    1.418918    1.423182
     32         16           0       -4.596312    3.996941    1.356062
     33         16           0        2.256235   -0.896242    0.767705
     34         16           0        0.378095    1.681780    0.700584
     35         16           0       -1.500045    4.259803    0.633464
     36         16           0        5.352502   -0.633381    0.045107
     37         16           0        3.474362    1.944642   -0.022014
     38         16           0        1.596222    4.522665   -0.089134
     39         16           0       -1.495219   -1.714776   -1.519251
     40         16           0       -3.373359    0.863246   -1.586371
     41         16           0       -5.251499    3.441269   -1.653492
     42         16           0        1.601048   -1.451914   -2.241849
     43         16           0       -0.277092    1.126108   -2.308969
     44         16           0       -2.155231    3.704131   -2.376090
     45         16           0        4.697315   -1.189052   -2.964447
     46         16           0        2.819175    1.388970   -3.031567
     47         16           0        0.941036    3.966993   -3.098688
     48         45           0        1.708637    0.632224   -1.022685
 ---------------------------------------------------------------------
                    Distance matrix (angstroms):
                    1          2          3          4          5
     1  Mo   0.000000
     2  S    2.416934   0.000000
     3  S    2.416934   3.129769   0.000000
     4  Mo   3.190316   5.118378   5.118378   0.000000
     5  Mo   6.380631   8.179869   8.179869   3.190316   0.000000
     6  Mo   9.570947  11.312778  11.312778   6.380631   3.190316
     7  S    2.416934   3.190316   4.469180   2.416934   5.118378
     8  S    5.118378   6.380631   7.106892   2.416934   2.416934
     9  S    8.179869   9.570947  10.069681   5.118378   2.416934
    10  S    2.416934   4.469180   3.190316   2.416934   5.118378
    11  S    5.118378   7.106892   6.380631   2.416934   2.416934
    12  S    8.179869  10.069681   9.570947   5.118378   2.416934
    13  Mo   3.190316   2.416934   2.416934   5.525789   8.440782
    14  Mo   6.380631   5.118378   5.118378   8.440782  11.051578
    15  Mo   9.570947   8.179869   8.179869  11.502847  13.906264
    16  S    5.118378   3.190316   4.469180   7.532074  10.374137
    17  S    8.179869   6.380631   7.106892  10.374137  12.988125
    18  S   11.312778   9.570947  10.069681  13.374211  15.815066
    19  S    5.118378   4.469180   3.190316   7.532074  10.374137
    20  S    8.179869   7.106892   6.380631  10.374137  12.988125
    21  S   11.312778  10.069681   9.570947  13.374211  15.815066
    22  Mo   3.190316   4.002460   4.002460   3.190316   5.525789
    23  Mo   5.525789   5.118378   5.118378   6.380631   8.440782
    24  Mo   8.440782   7.532074   7.532074   9.570947  11.502847
    25  Mo   5.525789   6.823051   6.823051   3.190316   3.190316
    26  Mo   8.440782   8.179869   8.179869   8.440782   9.570947
    27  Mo   8.440782   9.871403   9.871403   5.525789   3.190316
    28  Mo   8.440782   9.341653   9.341653   6.380631   5.525789
    29  Mo   9.570947   9.871403   9.871403   8.440782   8.440782
    30  S    4.002460   3.190316   4.469180   5.118378   7.532074
    31  S    6.823051   5.525789   6.350574   8.179869  10.374137
    32  S    9.871403   8.440782   9.002347  11.312778  13.374211
    33  S    5.118378   5.525789   6.350574   4.002460   5.118378
    34  S    6.823051   6.380631   7.106892   6.823051   8.179869
    35  S    9.341653   8.440782   9.002347   9.871403  11.312778
    36  S    7.532074   8.440782   9.002347   5.118378   4.002460
    37  S    8.179869   8.440782   9.002347   6.823051   6.823051
    38  S    9.871403   9.570947  10.069681   9.341653   9.871403
    39  S    4.002460   4.469180   3.190316   5.118378   7.532074
    40  S    6.823051   6.350574   5.525789   8.179869  10.374137
    41  S    9.871403   9.002347   8.440782  11.312778  13.374211
    42  S    5.118378   6.350574   5.525789   4.002460   5.118378
    43  S    6.823051   7.106892   6.380631   6.823051   8.179869
    44  S    9.341653   9.002347   8.440782   9.871403  11.312778
    45  S    7.532074   9.002347   8.440782   5.118378   4.002460
    46  S    8.179869   9.002347   8.440782   6.823051   6.823051
    47  S    9.871403  10.069681   9.570947   9.341653   9.871403
    48  Rh   6.380631   6.823051   6.823051   5.525789   6.380631
                    6          7          8          9         10
     6  Mo   0.000000
     7  S    8.179869   0.000000
     8  S    5.118378   3.190316   0.000000
     9  S    2.416934   6.380631   3.190316   0.000000
    10  S    8.179869   3.129769   4.469180   7.106892   0.000000
    11  S    5.118378   4.469180   3.129769   4.469180   3.190316
    12  S    2.416934   7.106892   4.469180   3.129769   6.380631
    13  Mo  11.502847   4.002460   6.823051   9.871403   4.002459
    14  Mo  13.906264   6.823051   9.341653  12.179293   6.823051
    15  Mo  16.577367   9.871403  12.179293  14.818298   9.871403
    16  S   13.374211   5.525789   8.440782  11.502847   6.350574
    17  S   15.815066   8.440782  11.051578  13.906264   9.002347
    18  S   18.485652  11.502847  13.906264  16.577367  11.921029
    19  S   13.374211   6.350574   9.002347  11.921029   5.525789
    20  S   15.815066   9.002347  11.486201  14.254109   8.440782
    21  S   18.485652  11.921029  14.254109  16.870226  11.502847
    22  Mo   8.440782   2.416934   4.002460   6.823051   2.416934
    23  Mo  11.051578   5.118378   6.823051   9.341653   5.118378
    24  Mo  13.906264   8.179869   9.871403  12.179293   8.179869
    25  Mo   5.525789   4.002460   2.416934   4.002460   4.002460
    26  Mo  11.502847   7.532074   8.179869   9.871403   7.532074
    27  Mo   3.190316   6.823051   4.002460   2.416934   6.823051
    28  Mo   6.380631   6.823051   5.118378   5.118378   6.823051
    29  Mo   9.570947   8.179869   7.532074   8.179869   8.179869
    30  S   10.374137   3.190316   5.525789   8.440782   4.469180
    31  S   12.988125   6.380631   8.440782  11.051578   7.106892
    32  S   15.815066   9.570947  11.502847  13.906264  10.069681
    33  S    7.532074   3.190316   3.190316   5.525789   4.469180
    34  S   10.374137   5.525789   6.380631   8.440782   6.350574
    35  S   13.374211   8.440782   9.570947  11.502847   9.002347
    36  S    5.118378   5.525789   3.190316   3.190316   6.350574
    37  S    8.179869   6.380631   5.525789   6.380631   7.106892
    38  S   11.312778   8.440782   8.440782   9.570947   9.002347
    39  S   10.374137   4.469180   6.350574   9.002347   3.190316
    40  S   12.988125   7.106892   9.002347  11.486201   6.380631
    41  S   15.815066  10.069681  11.921029  14.254109   9.570947
    42  S    7.532074   4.469180   4.469180   6.350574   3.190316
    43  S   10.374137   6.350574   7.106892   9.002347   5.525789
    44  S   13.374211   9.002347  10.069681  11.921029   8.440782
    45  S    5.118378   6.350574   4.469180   4.469180   5.525789
    46  S    8.179869   7.106892   6.350574   7.106892   6.380631
    47  S   11.312778   9.002347   9.002347  10.069681   8.440782
    48  Rh   8.440782   5.118378   5.118378   6.823051   5.118378
                   11         12         13         14         15
    11  S    0.000000
    12  S    3.190316   0.000000
    13  Mo   6.823051   9.871403   0.000000
    14  Mo   9.341653  12.179293   3.190316   0.000000
    15  Mo  12.179293  14.818298   6.380631   3.190316   0.000000
    16  S    9.002347  11.921029   2.416934   2.416934   5.118378
    17  S   11.486201  14.254109   5.118378   2.416934   2.416934
    18  S   14.254109  16.870226   8.179869   5.118378   2.416934
    19  S    8.440782  11.502847   2.416934   2.416934   5.118378
    20  S   11.051578  13.906264   5.118378   2.416934   2.416934
    21  S   13.906264  16.577367   8.179869   5.118378   2.416934
    22  Mo   4.002460   6.823051   3.190316   5.525789   8.440782
    23  Mo   6.823051   9.341653   3.190316   3.190316   5.525789
    24  Mo   9.871403  12.179293   5.525789   3.190316   3.190316
    25  Mo   2.416934   4.002460   6.380631   8.440782  11.051578
    26  Mo   8.179869   9.871403   6.380631   5.525789   6.380631
    27  Mo   4.002459   2.416934   9.570947  11.502847  13.906264
    28  Mo   5.118378   5.118378   8.440782   9.570947  11.502847
    29  Mo   7.532074   8.179869   8.440782   8.440782   9.570947
    30  S    6.350574   9.002347   2.416934   4.002460   6.823051
    31  S    9.002347  11.486201   4.002460   2.416934   4.002460
    32  S   11.921029  14.254109   6.823051   4.002460   2.416934
    33  S    4.469180   6.350574   5.118378   6.823051   9.341653
    34  S    7.106892   9.002347   5.118378   5.118378   6.823051
    35  S   10.069681  11.921029   6.823051   5.118378   5.118378
    36  S    4.469180   4.469180   8.179869   9.871403  12.179293
    37  S    6.350574   7.106892   7.532074   8.179869   9.871403
    38  S    9.002347  10.069681   8.179869   7.532074   8.179869
    39  S    5.525789   8.440782   2.416934   4.002460   6.823051
    40  S    8.440782  11.051578   4.002460   2.416934   4.002459
    41  S   11.502847  13.906264   6.823051   4.002460   2.416934
    42  S    3.190316   5.525789   5.118378   6.823051   9.341653
    43  S    6.380631   8.440782   5.118378   5.118378   6.823051
    44  S    9.570947  11.502847   6.823051   5.118378   5.118378
    45  S    3.190316   3.190316   8.179869   9.871403  12.179293
    46  S    5.525789   6.380631   7.532074   8.179869   9.871403
    47  S    8.440782   9.570947   8.179869   7.532074   8.179869
    48  Rh   5.118378   6.823051   5.525789   6.380631   8.440782
                   16         17         18         19         20
    16  S    0.000000
    17  S    3.190316   0.000000
    18  S    6.380631   3.190316   0.000000
    19  S    3.129769   4.469180   7.106892   0.000000
    20  S    4.469180   3.129769   4.469180   3.190316   0.000000
    21  S    7.106892   4.469180   3.129769   6.380631   3.190316
    22  Mo   5.118378   7.532074  10.374137   5.118378   7.532074
    23  Mo   4.002460   5.118378   7.532074   4.002459   5.118378
    24  Mo   5.118378   4.002460   5.118378   5.118378   4.002460
    25  Mo   8.179869  10.374137  12.988125   8.179869  10.374137
    26  Mo   6.823051   6.823051   8.179869   6.823051   6.823051
    27  Mo  11.312778  13.374211  15.815066  11.312778  13.374211
    28  Mo   9.871403  11.312778  13.374211   9.871403  11.312778
    29  Mo   9.341653   9.871403  11.312778   9.341653   9.871403
    30  S    3.190316   5.525789   8.440782   4.469180   6.350574
    31  S    3.190316   3.190316   5.525789   4.469180   4.469180
    32  S    5.525789   3.190316   3.190316   6.350574   4.469180
    33  S    6.380631   8.440782  11.051578   7.106892   9.002347
    34  S    5.525789   6.380631   8.440782   6.350574   7.106892
    35  S    6.380631   5.525789   6.380631   7.106892   6.350574
    36  S    9.570947  11.502847  13.906264  10.069681  11.921029
    37  S    8.440782   9.570947  11.502847   9.002347  10.069681
    38  S    8.440782   8.440782   9.570947   9.002347   9.002347
    39  S    4.469180   6.350574   9.002347   3.190316   5.525789
    40  S    4.469180   4.469180   6.350574   3.190316   3.190316
    41  S    6.350574   4.469180   4.469180   5.525789   3.190316
    42  S    7.106892   9.002347  11.486201   6.380631   8.440782
    43  S    6.350574   7.106892   9.002347   5.525789   6.380631
    44  S    7.106892   6.350574   7.106892   6.380631   5.525789
    45  S   10.069681  11.921029  14.254109   9.570947  11.502847
    46  S    9.002347  10.069681  11.921029   8.440782   9.570947
    47  S    9.002347   9.002347  10.069681   8.440782   8.440782
    48  Rh   6.823051   8.179869  10.374137   6.823051   8.179869
                   21         22         23         24         25
    21  S    0.000000
    22  Mo  10.374137   0.000000
    23  Mo   7.532074   3.190316   0.000000
    24  Mo   5.118378   6.380631   3.190316   0.000000
    25  Mo  12.988125   3.190316   5.525789   8.440782   0.000000
    26  Mo   8.179869   5.525789   3.190316   3.190316   6.380631
    27  Mo  15.815066   6.380631   8.440782  11.051578   3.190316
    28  Mo  13.374211   5.525789   6.380631   8.440782   3.190316
    29  Mo  11.312778   6.380631   5.525789   6.380631   5.525789
    30  S    9.002347   2.416934   2.416934   5.118378   5.118378
    31  S    6.350574   5.118378   2.416934   2.416934   7.532074
    32  S    4.469180   8.179869   5.118378   2.416934  10.374137
    33  S   11.486201   2.416934   4.002460   6.823051   2.416934
    34  S    9.002347   4.002460   2.416934   4.002460   5.118378
    35  S    7.106892   6.823051   4.002460   2.416934   8.179869
    36  S   14.254109   5.118378   6.823051   9.341653   2.416934
    37  S   11.921029   5.118378   5.118378   6.823051   4.002460
    38  S   10.069681   6.823051   5.118378   5.118378   6.823051
    39  S    8.440782   2.416934   2.416934   5.118378   5.118378
    40  S    5.525789   5.118378   2.416934   2.416934   7.532074
    41  S    3.190316   8.179869   5.118378   2.416934  10.374137
    42  S   11.051578   2.416934   4.002460   6.823051   2.416934
    43  S    8.440782   4.002460   2.416934   4.002460   5.118378
    44  S    6.380631   6.823051   4.002460   2.416934   8.179869
    45  S   13.906264   5.118378   6.823051   9.341653   2.416934
    46  S   11.502847   5.118378   5.118378   6.823051   4.002460
    47  S    9.570947   6.823051   5.118378   5.118378   6.823051
    48  Rh  10.374137   3.190316   3.190316   5.525789   3.190316
                   26         27         28         29         30
    26  Mo   0.000000
    27  Mo   8.440782   0.000000
    28  Mo   5.525789   3.190316   0.000000
    29  Mo   3.190316   6.380631   3.190316   0.000000
    30  S    5.118378   8.179869   6.823051   6.823051   0.000000
    31  S    4.002460  10.374137   8.179869   6.823051   3.190316
    32  S    5.118378  12.988125  10.374137   8.179869   6.380631
    33  S    5.118378   5.118378   4.002460   5.118378   3.190316
    34  S    2.416934   7.532074   5.118378   4.002460   3.190316
    35  S    2.416934  10.374137   7.532074   5.118378   5.525789
    36  S    6.823051   2.416934   2.416934   5.118378   6.380631
    37  S    4.002460   5.118378   2.416934   2.416934   5.525789
    38  S    2.416934   8.179869   5.118378   2.416934   6.380631
    39  S    5.118378   8.179869   6.823051   6.823051   3.129769
    40  S    4.002460  10.374137   8.179869   6.823051   4.469180
    41  S    5.118378  12.988125  10.374137   8.179869   7.106892
    42  S    5.118378   5.118378   4.002459   5.118378   4.469180
    43  S    2.416934   7.532074   5.118378   4.002460   4.469180
    44  S    2.416934  10.374137   7.532074   5.118378   6.350574
    45  S    6.823051   2.416934   2.416934   5.118378   7.106892
    46  S    4.002460   5.118378   2.416934   2.416934   6.350574
    47  S    2.416934   8.179869   5.118378   2.416934   7.106892
    48  Rh   3.190316   5.525789   3.190316   3.190316   4.002459
                   31         32         33         34         35
    31  S    0.000000
    32  S    3.190316   0.000000
    33  S    5.525789   8.440782   0.000000
    34  S    3.190316   5.525789   3.190316   0.000000
    35  S    3.190316   3.190316   6.380631   3.190316   0.000000
    36  S    8.440782  11.051578   3.190316   5.525789   8.440782
    37  S    6.380631   8.440782   3.190316   3.190316   5.525789
    38  S    5.525789   6.380631   5.525789   3.190316   3.190316
    39  S    4.469180   7.106892   4.469180   4.469180   6.350574
    40  S    3.129769   4.469180   6.350574   4.469180   4.469180
    41  S    4.469180   3.129769   9.002347   6.350574   4.469180
    42  S    6.350574   9.002347   3.129769   4.469180   7.106892
    43  S    4.469180   6.350574   4.469180   3.129769   4.469180
    44  S    4.469180   4.469180   7.106892   4.469180   3.129769
    45  S    9.002347  11.486201   4.469180   6.350574   9.002347
    46  S    7.106892   9.002347   4.469180   4.469180   6.350574
    47  S    6.350574   7.106892   6.350574   4.469180   4.469180
    48  Rh   5.118378   7.532074   2.416934   2.416934   5.118378
                   36         37         38         39         40
    36  S    0.000000
    37  S    3.190316   0.000000
    38  S    6.380631   3.190316   0.000000
    39  S    7.106892   6.350574   7.106892   0.000000
    40  S    9.002347   7.106892   6.350574   3.190316   0.000000
    41  S   11.486201   9.002347   7.106892   6.380631   3.190316
    42  S    4.469180   4.469180   6.350574   3.190316   5.525789
    43  S    6.350574   4.469180   4.469180   3.190316   3.190316
    44  S    9.002347   6.350574   4.469180   5.525789   3.190316
    45  S    3.129769   4.469180   7.106892   6.380631   8.440782
    46  S    4.469180   3.129769   4.469180   5.525789   6.380631
    47  S    7.106892   4.469180   3.129769   6.380631   5.525789
    48  Rh   4.002459   2.416934   4.002460   4.002460   5.118378
                   41         42         43         44         45
    41  S    0.000000
    42  S    8.440782   0.000000
    43  S    5.525789   3.190316   0.000000
    44  S    3.190316   6.380631   3.190316   0.000000
    45  S   11.051578   3.190316   5.525789   8.440782   0.000000
    46  S    8.440782   3.190316   3.190316   5.525789   3.190316
    47  S    6.380631   5.525789   3.190316   3.190316   6.380631
    48  Rh   7.532074   2.416934   2.416934   5.118378   4.002459
                   46         47         48
    46  S    0.000000
    47  S    3.190316   0.000000
    48  Rh   2.416934   4.002460   0.000000
 Stoichiometry    Mo15RhS32(2)
 Framework group  CS[SG(Mo15Rh),X(S32)]
 Deg. of freedom    77
 Full point group                 CS      NOp   2
 Largest Abelian subgroup         CS      NOp   2
 Largest concise Abelian subgroup CS      NOp   2
                         Standard orientation:                         
 ---------------------------------------------------------------------
 Center     Atomic      Atomic             Coordinates (Angstroms)
 Number     Number       Type             X           Y           Z
 ---------------------------------------------------------------------
      1         42           0       -4.789505   -0.794497    0.000000
      2         16           0       -4.789505    1.047433    1.564884
      3         16           0       -4.789505    1.047433   -1.564884
      4         42           0       -3.194347   -3.557391    0.000000
      5         42           0       -1.599189   -6.320286    0.000000
      6         42           0       -0.004032   -9.083180    0.000000
      7         16           0       -3.194347   -1.715462    1.564884
      8         16           0       -1.599189   -4.478356    1.564884
      9         16           0       -0.004032   -7.241251    1.564884
     10         16           0       -3.194347   -1.715462   -1.564884
     11         16           0       -1.599189   -4.478356   -1.564884
     12         16           0       -0.004032   -7.241251   -1.564884
     13         42           0       -3.194347    1.968397    0.000000
     14         42           0       -1.599189    4.731292    0.000000
     15         42           0       -0.004032    7.494186    0.000000
     16         16           0       -3.194347    3.810327    1.564884
     17         16           0       -1.599189    6.573221    1.564884
     18         16           0       -0.004032    9.336116    1.564884
     19         16           0       -3.194347    3.810327   -1.564884
     20         16           0       -1.599189    6.573221   -1.564884
     21         16           0       -0.004032    9.336116   -1.564884
     22         42           0       -1.599189   -0.794497    0.000000
     23         42           0       -0.004032    1.968397    0.000000
     24         42           0        1.591126    4.731292    0.000000
     25         42           0       -0.004032   -3.557391    0.000000
     26         42           0        3.186284    1.968397    0.000000
     27         42           0        1.591126   -6.320286    0.000000
     28         42           0        3.186284   -3.557391    0.000000
     29         42           0        4.781442   -0.794497    0.000000
     30         16           0       -1.599189    1.047433    1.564884
     31         16           0       -0.004032    3.810327    1.564884
     32         16           0        1.591126    6.573221    1.564884
     33         16           0       -0.004032   -1.715462    1.564884
     34         16           0        1.591126    1.047433    1.564884
     35         16           0        3.186284    3.810327    1.564884
     36         16           0        1.591126   -4.478356    1.564884
     37         16           0        3.186284   -1.715462    1.564884
     38         16           0        4.781442    1.047433    1.564884
     39         16           0       -1.599189    1.047433   -1.564884
     40         16           0       -0.004032    3.810327   -1.564884
     41         16           0        1.591126    6.573221   -1.564884
     42         16           0       -0.004032   -1.715462   -1.564884
     43         16           0        1.591126    1.047433   -1.564884
     44         16           0        3.186284    3.810327   -1.564884
     45         16           0        1.591126   -4.478356   -1.564884
     46         16           0        3.186284   -1.715462   -1.564884
     47         16           0        4.781442    1.047433   -1.564884
     48         45           0        1.591126   -0.794497    0.000000
 ---------------------------------------------------------------------
 Rotational constants (GHZ):      0.0266110      0.0093541      0.0074312
 Standard basis: VSTO-6G (5D, 7F)
 There are   272 symmetry adapted cartesian basis functions of A'  symmetry.
 There are   208 symmetry adapted cartesian basis functions of A"  symmetry.
 There are   240 symmetry adapted basis functions of A'  symmetry.
 There are   192 symmetry adapted basis functions of A"  symmetry.
   432 basis functions,  2880 primitive gaussians,   480 cartesian basis functions
   146 alpha electrons      145 beta electrons
       nuclear repulsion energy      4032.3002069124 Hartrees.
 Integral buffers will be    262144 words long.
 Regular integral format.
 Two-electron integral symmetry is turned off.
 Do NDO integrals.
 One-electron integrals computed using PRISM.
 NBasis=   432 RedAO= T EigKep=  7.07D-01  NBF=   240   192
 NBsUse=   432 1.00D-06 EigRej= -1.00D+00 NBFU=   240   192
 Nonelectrostatic core Hamiltonian diagonalized for initial guess.
 Initial guess orbital symmetries:
 Alpha Orbitals:
       Occupied  (A') (A') (A') (A") (A") (A') (A") (A") (A") (A')
                 (A") (A") (A') (A") (A') (A") (A') (A') (A") (A')
                 (A") (A') (A') (A") (A") (A') (A') (A") (A') (A")
                 (A') (A") (A') (A') (A') (A') (A") (A') (A") (A')
                 (A') (A') (A') (A") (A") (A') (A") (A') (A') (A")
                 (A') (A') (A') (A') (A") (A") (A') (A') (A') (A")
                 (A') (A") (A') (A') (A") (A') (A") (A") (A') (A')
                 (A') (A") (A') (A") (A') (A") (A") (A') (A') (A")
                 (A") (A") (A') (A') (A") (A") (A') (A") (A') (A")
                 (A") (A') (A') (A') (A") (A") (A') (A') (A") (A')
                 (A") (A") (A") (A') (A') (A') (A") (A') (A") (A')
                 (A") (A') (A") (A") (A') (A') (A") (A') (A') (A')
                 (A") (A') (A") (A') (A') (A") (A') (A') (A') (A')
                 (A") (A') (A") (A') (A') (A') (A") (A") (A') (A")
                 (A") (A') (A') (A') (A') (A")
       Virtual   (A') (A') (A') (A") (A') (A') (A") (A') (A') (A')
                 (A') (A') (A") (A') (A") (A') (A") (A') (A') (A")
                 (A') (A") (A") (A') (A") (A') (A") (A') (A") (A')
                 (A') (A") (A") (A') (A') (A") (A") (A') (A") (A')
                 (A") (A') (A") (A") (A") (A') (A') (A') (A") (A")
                 (A') (A") (A") (A") (A') (A') (A") (A") (A') (A')
                 (A") (A') (A") (A') (A") (A') (A') (A') (A') (A")
                 (A') (A") (A') (A") (A') (A') (A") (A') (A') (A')
                 (A') (A") (A') (A') (A") (A") (A') (A") (A") (A")
                 (A') (A") (A') (A') (A") (A') (A') (A") (A') (A")
                 (A') (A") (A") (A') (A") (A') (A") (A') (A') (A')
                 (A") (A") (A") (A') (A") (A') (A") (A') (A') (A")
                 (A') (A") (A") (A') (A') (A") (A') (A') (A') (A")
                 (A") (A") (A") (A') (A') (A') (A") (A') (A") (A')
                 (A') (A") (A') (A") (A') (A") (A') (A") (A") (A')
                 (A") (A") (A") (A") (A') (A") (A') (A") (A') (A')
                 (A') (A") (A') (A") (A") (A') (A') (A") (A') (A')
                 (A") (A') (A") (A") (A") (A") (A') (A") (A') (A')
                 (A') (A') (A") (A') (A') (A") (A') (A') (A') (A")
                 (A') (A') (A') (A') (A') (A') (A") (A') (A') (A')
                 (A') (A') (A") (A') (A") (A") (A') (A") (A') (A")
                 (A") (A') (A") (A") (A') (A') (A') (A") (A') (A")
                 (A') (A") (A") (A') (A") (A") (A') (A") (A") (A")
                 (A") (A') (A') (A") (A") (A") (A") (A') (A') (A')
                 (A') (A") (A") (A") (A') (A") (A') (A") (A') (A")
                 (A') (A') (A') (A") (A") (A") (A') (A") (A') (A")
                 (A') (A") (A') (A') (A") (A') (A") (A") (A') (A')
                 (A') (A') (A") (A') (A") (A') (A') (A') (A') (A")
                 (A') (A') (A') (A') (A') (A")
 Beta  Orbitals:
       Occupied  (A') (A') (A') (A") (A") (A') (A") (A") (A") (A')
                 (A") (A") (A') (A") (A') (A") (A') (A') (A") (A')
                 (A") (A') (A') (A") (A") (A') (A') (A") (A') (A")
                 (A') (A") (A') (A') (A') (A') (A") (A') (A") (A')
                 (A') (A') (A') (A") (A") (A') (A") (A') (A') (A")
                 (A') (A') (A') (A') (A") (A") (A') (A') (A') (A")
                 (A') (A") (A') (A') (A") (A') (A") (A") (A') (A')
                 (A') (A") (A') (A") (A') (A") (A") (A') (A') (A")
                 (A") (A") (A') (A') (A") (A") (A') (A") (A') (A")
                 (A") (A') (A') (A') (A") (A") (A') (A') (A") (A')
                 (A") (A") (A") (A') (A') (A') (A") (A') (A") (A')
                 (A") (A') (A") (A") (A') (A') (A") (A') (A') (A')
                 (A") (A') (A") (A') (A') (A") (A') (A') (A') (A')
                 (A") (A') (A") (A') (A') (A') (A") (A") (A') (A")
                 (A") (A') (A') (A') (A')
       Virtual   (A") (A') (A') (A') (A") (A') (A') (A") (A') (A')
                 (A') (A') (A') (A") (A') (A") (A') (A") (A') (A')
                 (A") (A') (A") (A") (A') (A") (A') (A") (A') (A")
                 (A') (A') (A") (A") (A') (A') (A") (A") (A') (A")
                 (A') (A") (A') (A") (A") (A") (A') (A') (A') (A")
                 (A") (A') (A") (A") (A") (A') (A') (A") (A") (A')
                 (A') (A") (A') (A") (A') (A") (A') (A') (A') (A')
                 (A") (A') (A") (A') (A") (A') (A') (A") (A') (A')
                 (A') (A') (A") (A') (A') (A") (A") (A') (A") (A")
                 (A") (A') (A") (A') (A') (A") (A') (A') (A") (A')
                 (A") (A') (A") (A") (A') (A") (A') (A") (A') (A')
                 (A') (A") (A") (A") (A') (A") (A') (A") (A') (A')
                 (A") (A') (A") (A") (A') (A') (A") (A') (A') (A')
                 (A") (A") (A") (A") (A') (A') (A') (A") (A') (A")
                 (A') (A') (A") (A') (A") (A') (A") (A') (A") (A")
                 (A') (A") (A") (A") (A") (A') (A") (A') (A") (A')
                 (A') (A') (A") (A') (A") (A") (A') (A') (A") (A')
                 (A') (A") (A') (A") (A") (A") (A") (A') (A") (A')
                 (A') (A') (A') (A") (A') (A') (A") (A') (A') (A')
                 (A") (A') (A') (A') (A') (A') (A') (A") (A') (A')
                 (A') (A') (A') (A") (A') (A") (A") (A') (A") (A')
                 (A") (A") (A') (A") (A") (A') (A') (A') (A") (A')
                 (A") (A') (A") (A") (A') (A") (A") (A') (A") (A")
                 (A") (A") (A') (A') (A") (A") (A") (A") (A') (A')
                 (A') (A') (A") (A") (A") (A') (A") (A') (A") (A')
                 (A") (A') (A') (A') (A") (A") (A") (A') (A") (A')
                 (A") (A') (A") (A') (A') (A") (A') (A") (A") (A')
                 (A') (A') (A') (A") (A') (A") (A') (A') (A') (A')
                 (A") (A') (A') (A') (A') (A') (A")
 The electronic state of the initial guess is 2-A".
 Initial guess <Sx>= 0.0000 <Sy>= 0.0000 <Sz>= 0.5000 <S**2>= 0.7500 S= 0.5000
 Keep J ints in memory in canonical form, NReq=6296663.
 Gradient too large for Newton-Raphson -- use scaled steepest descent instead.
  Beta Gap=    -0.301 HL deriv= 1.56D-16 Rot set to   4.35D+00
 Gradient too large for Newton-Raphson -- use scaled steepest descent instead.
     Minimum is close to point  3 DX= -1.17D-02 DF= -1.81D-03 DXR=  3.01D-02 DFR=  6.87D-04 which will be used.
 Gradient too large for Newton-Raphson -- use scaled steepest descent instead.
     Accept linear search using points  3 and  4.
 Gradient too large for Newton-Raphson -- use scaled steepest descent instead.
     Accept linear search using points  1 and  2.
 Gradient too large for Newton-Raphson -- use scaled steepest descent instead.
 Gradient too large for Newton-Raphson -- use scaled steepest descent instead.
     Minimum is close to point  2 DX=  2.16D-02 DF= -2.32D-04 DXR=  3.48D-02 DFR=  1.21D-03 which will be used.
 Gradient too large for Newton-Raphson -- use scaled steepest descent instead.
     Accept linear search using points  1 and  2.
 Gradient too large for Newton-Raphson -- use scaled steepest descent instead.
     Minimum is close to point  2 DX=  1.18D-02 DF= -2.88D-05 DXR=  1.93D-02 DFR=  3.71D-04 which will be used.
 Gradient too large for Newton-Raphson -- use scaled steepest descent instead.
     Minimum is close to point  2 DX=  1.82D-02 DF= -5.17D-05 DXR=  2.94D-02 DFR=  8.66D-04 which will be used.
 Gradient too large for Newton-Raphson -- use scaled steepest descent instead.
     Minimum is close to point  2 DX=  3.51D-02 DF= -1.53D-04 DXR=  5.53D-02 DFR=  3.07D-03 which will be used.
 Gradient too large for Newton-Raphson -- use scaled steepest descent instead.
     Minimum is close to point  2 DX=  1.87D-02 DF= -3.78D-05 DXR=  3.01D-02 DFR=  9.10D-04 which will be used.
 Gradient too large for Newton-Raphson -- use scaled steepest descent instead.
     Accept linear search using points  1 and  2.
     Minimum is close to point  2 DX= -1.48D-02 DF= -3.54D-06 DXR=  2.53D-02 DFR=  9.37D-05 which will be used.
 Gradient too large for Newton-Raphson -- use scaled steepest descent instead.
     Accept linear search using points  1 and  2.
 Gradient too large for Newton-Raphson -- use scaled steepest descent instead.
 Gradient too large for Newton-Raphson -- use scaled steepest descent instead.
     Accept linear search using points  1 and  2.
 Gradient too large for Newton-Raphson -- use scaled steepest descent instead.
 Gradient too large for Newton-Raphson -- use scaled steepest descent instead.
     Accept linear search using points  1 and  2.
 Gradient too large for Newton-Raphson -- use scaled steepest descent instead.
 Gradient too large for Newton-Raphson -- use scaled steepest descent instead.
     Minimum is close to point  3 DX= -2.81D-02 DF= -1.56D-04 DXR=  7.56D-02 DFR=  5.75D-03 which will be used.
 Gradient too large for Newton-Raphson -- use scaled steepest descent instead.
 Gradient too large for Newton-Raphson -- use scaled steepest descent instead.
     Accept linear search using points  1 and  2.
 Gradient too large for Newton-Raphson -- use scaled steepest descent instead.
     Accept linear search using points  4 and  5.
     Minimum is close to point  5 DX= -3.43D-01 DF= -3.92D-04 DXR=  9.39D-02 DFR=  1.07D-02 which will be used.
 Gradient too large for Newton-Raphson -- use scaled steepest descent instead.
 Gradient too large for Newton-Raphson -- use scaled steepest descent instead.
 Gradient too large for Newton-Raphson -- use scaled steepest descent instead.
     Minimum is close to point  3 DX= -3.02D-02 DF= -1.48D-04 DXR=  8.15D-02 DFR=  6.69D-03 which will be used.
 Gradient too large for Newton-Raphson -- use scaled steepest descent instead.
     Minimum is close to point  2 DX=  8.42D-02 DF= -6.98D-05 DXR=  7.77D-02 DFR=  6.07D-03 which will be used.
 Gradient too large for Newton-Raphson -- use scaled steepest descent instead.
     Accept linear search using points  1 and  2.
 Gradient too large for Newton-Raphson -- use scaled steepest descent instead.
 Gradient too large for Newton-Raphson -- use scaled steepest descent instead.
 Gradient too large for Newton-Raphson -- use scaled steepest descent instead.
 Gradient too large for Newton-Raphson -- use scaled steepest descent instead.
     Minimum is close to point  3 DX= -2.80D-02 DF= -1.06D-04 DXR=  7.52D-02 DFR=  5.69D-03 which will be used.
 Gradient too large for Newton-Raphson -- use scaled steepest descent instead.
 Gradient too large for Newton-Raphson -- use scaled steepest descent instead.
     Accept linear search using points  1 and  2.
 Gradient too large for Newton-Raphson -- use scaled steepest descent instead.
     Accept linear search using points  3 and  4.
 Gradient too large for Newton-Raphson -- use scaled steepest descent instead.
     Minimum is close to point  3 DX= -2.40D-02 DF= -5.96D-05 DXR=  6.39D-02 DFR=  4.11D-03 which will be used.
 Gradient too large for Newton-Raphson -- use scaled steepest descent instead.
 Gradient too large for Newton-Raphson -- use scaled steepest descent instead.
     Accept linear search using points  1 and  2.
 Gradient too large for Newton-Raphson -- use scaled steepest descent instead.
     Accept linear search using points  3 and  4.
     Minimum is close to point  4 DX= -1.00D-01 DF= -2.73D-05 DXR=  3.58D-02 DFR=  2.02D-03 which will be used.
 Gradient too large for Newton-Raphson -- use scaled steepest descent instead.
 Gradient too large for Newton-Raphson -- use scaled steepest descent instead.
 Gradient too large for Newton-Raphson -- use scaled steepest descent instead.
     Minimum is close to point  3 DX= -2.82D-02 DF= -7.41D-05 DXR=  7.57D-02 DFR=  5.76D-03 which will be used.
 Gradient too large for Newton-Raphson -- use scaled steepest descent instead.
 Gradient too large for Newton-Raphson -- use scaled steepest descent instead.
     Accept linear search using points  1 and  2.
 Gradient too large for Newton-Raphson -- use scaled steepest descent instead.
     Accept linear search using points  3 and  4.
     Minimum is close to point  4 DX= -1.81D-01 DF= -6.27D-05 DXR=  6.92D-02 DFR=  6.23D-03 which will be used.
 Gradient too large for Newton-Raphson -- use scaled steepest descent instead.
     Minimum is close to point  3 DX= -3.23D-02 DF= -8.69D-05 DXR=  8.80D-02 DFR=  7.80D-03 which will be used.
 Gradient too large for Newton-Raphson -- use scaled steepest descent instead.
 Gradient too large for Newton-Raphson -- use scaled steepest descent instead.
     Accept linear search using points  1 and  2.
 Gradient too large for Newton-Raphson -- use scaled steepest descent instead.
 Gradient too large for Newton-Raphson -- use scaled steepest descent instead.
 Gradient too large for Newton-Raphson -- use scaled steepest descent instead.
 Gradient too large for Newton-Raphson -- use scaled steepest descent instead.
 Gradient too large for Newton-Raphson -- use scaled steepest descent instead.
 Gradient too large for Newton-Raphson -- use scaled steepest descent instead.
     Minimum is close to point  3 DX= -1.48D-02 DF= -6.95D-06 DXR=  3.85D-02 DFR=  1.49D-03 which will be used.
 Gradient too large for Newton-Raphson -- use scaled steepest descent instead.
 Gradient too large for Newton-Raphson -- use scaled steepest descent instead.
     Accept linear search using points  1 and  2.
 Gradient too large for Newton-Raphson -- use scaled steepest descent instead.
     Accept linear search using points  3 and  4.
     Minimum is close to point  4 DX= -8.17D-02 DF= -5.65D-06 DXR=  2.80D-02 DFR=  1.28D-03 which will be used.
 Gradient too large for Newton-Raphson -- use scaled steepest descent instead.
 Gradient too large for Newton-Raphson -- use scaled steepest descent instead.
 Gradient too large for Newton-Raphson -- use scaled steepest descent instead.
     Minimum is close to point  3 DX= -2.07D-02 DF= -1.30D-05 DXR=  5.45D-02 DFR=  2.98D-03 which will be used.
 Gradient too large for Newton-Raphson -- use scaled steepest descent instead.
 Gradient too large for Newton-Raphson -- use scaled steepest descent instead.
     Accept linear search using points  1 and  2.
 Gradient too large for Newton-Raphson -- use scaled steepest descent instead.
     Accept linear search using points  3 and  4.
     Minimum is close to point  4 DX= -9.54D-03 DF= -9.92D-08 DXR=  3.19D-03 DFR=  2.00D-05 which will be used.
 Gradient too large for Newton-Raphson -- use scaled steepest descent instead.
     Minimum is close to point  3 DX= -2.37D-02 DF= -2.08D-05 DXR=  6.29D-02 DFR=  3.97D-03 which will be used.
 Gradient too large for Newton-Raphson -- use scaled steepest descent instead.
 Gradient too large for Newton-Raphson -- use scaled steepest descent instead.
     Accept linear search using points  1 and  2.
 Gradient too large for Newton-Raphson -- use scaled steepest descent instead.
     Accept linear search using points  3 and  4.
     Minimum is close to point  4 DX= -2.98D-02 DF= -1.12D-06 DXR=  1.00D-02 DFR=  1.87D-04 which will be used.
 Gradient too large for Newton-Raphson -- use scaled steepest descent instead.
 Gradient too large for Newton-Raphson -- use scaled steepest descent instead.
 Gradient too large for Newton-Raphson -- use scaled steepest descent instead.
     Minimum is close to point  3 DX= -2.54D-02 DF= -2.88D-05 DXR=  6.77D-02 DFR=  4.61D-03 which will be used.
 Gradient too large for Newton-Raphson -- use scaled steepest descent instead.
 Gradient too large for Newton-Raphson -- use scaled steepest descent instead.
     Accept linear search using points  1 and  2.
 Gradient too large for Newton-Raphson -- use scaled steepest descent instead.
     Accept linear search using points  3 and  4.
     Minimum is close to point  4 DX= -1.81D-01 DF= -3.31D-05 DXR=  6.67D-02 DFR=  6.10D-03 which will be used.
 Gradient too large for Newton-Raphson -- use scaled steepest descent instead.
     Minimum is close to point  3 DX= -3.52D-02 DF= -5.82D-05 DXR=  9.65D-02 DFR=  9.41D-03 which will be used.
 Gradient too large for Newton-Raphson -- use scaled steepest descent instead.
     Minimum is close to point  2 DX=  6.78D-02 DF= -9.82D-06 DXR=  6.35D-02 DFR=  4.04D-03 which will be used.
 Gradient too large for Newton-Raphson -- use scaled steepest descent instead.
     Accept linear search using points  1 and  2.
 Gradient too large for Newton-Raphson -- use scaled steepest descent instead.
 Gradient too large for Newton-Raphson -- use scaled steepest descent instead.
 Gradient too large for Newton-Raphson -- use scaled steepest descent instead.
     Accept linear search using points  3 and  4.
 Gradient too large for Newton-Raphson -- use scaled steepest descent instead.
 Gradient too large for Newton-Raphson -- use scaled steepest descent instead.
     Accept linear search using points  3 and  4.
 Gradient too large for Newton-Raphson -- use scaled steepest descent instead.
 Gradient too large for Newton-Raphson -- use scaled steepest descent instead.
     Accept linear search using points  3 and  4.
     Minimum is close to point  4 DX= -3.87D-01 DF= -2.74D-05 DXR=  8.96D-02 DFR=  9.10D-03 which will be used.
 Gradient too large for Newton-Raphson -- use scaled steepest descent instead.
 Gradient too large for Newton-Raphson -- use scaled steepest descent instead.
 Gradient too large for Newton-Raphson -- use scaled steepest descent instead.
     Minimum is close to point  3 DX= -7.18D-03 DF= -5.82D-07 DXR=  1.83D-02 DFR=  3.34D-04 which will be used.
 Gradient too large for Newton-Raphson -- use scaled steepest descent instead.
     Accept linear search using points  1 and  2.
     Minimum is close to point  2 DX= -2.91D-02 DF= -6.39D-07 DXR=  2.49D-02 DFR=  8.42D-04 which will be used.
 Gradient too large for Newton-Raphson -- use scaled steepest descent instead.
     Accept linear search using points  1 and  2.
 Gradient too large for Newton-Raphson -- use scaled steepest descent instead.
     Accept linear search using points  3 and  4.
 Gradient too large for Newton-Raphson -- use scaled steepest descent instead.
     Minimum is close to point  3 DX= -7.10D-03 DF= -3.03D-07 DXR=  1.81D-02 DFR=  3.26D-04 which will be used.
 Gradient too large for Newton-Raphson -- use scaled steepest descent instead.
     Accept linear search using points  2 and  3.
 Gradient too large for Newton-Raphson -- use scaled steepest descent instead.
     Accept linear search using points  1 and  2.
 Gradient too large for Newton-Raphson -- use scaled steepest descent instead.
     Minimum is close to point  3 DX=  9.35D-02 DF= -2.02D-06 DXR=  5.52D-02 DFR=  3.06D-03 which will be used.
 Gradient too large for Newton-Raphson -- use scaled steepest descent instead.
     Accept linear search using points  1 and  2.
 Gradient too large for Newton-Raphson -- use scaled steepest descent instead.
     Accept linear search using points  2 and  3.
     Minimum is close to point  3 DX= -1.68D-02 DF= -4.84D-08 DXR=  9.96D-03 DFR=  8.00D-05 which will be used.
 Gradient too large for Newton-Raphson -- use scaled steepest descent instead.
     Accept linear search using points  1 and  2.
 Gradient too large for Newton-Raphson -- use scaled steepest descent instead.
     Minimum is close to point  3 DX=  1.06D-01 DF= -2.02D-06 DXR=  5.88D-02 DFR=  3.47D-03 which will be used.
 Gradient too large for Newton-Raphson -- use scaled steepest descent instead.
     Minimum is close to point  3 DX=  1.58D-02 DF= -7.35D-07 DXR=  3.79D-02 DFR=  1.44D-03 which will be used.
 Gradient too large for Newton-Raphson -- use scaled steepest descent instead.
 Gradient too large for Newton-Raphson -- use scaled steepest descent instead.
     Minimum is close to point  3 DX= -1.23D-02 DF= -6.18D-07 DXR=  3.18D-02 DFR=  1.01D-03 which will be used.
 Gradient too large for Newton-Raphson -- use scaled steepest descent instead.
     Accept linear search using points  2 and  3.
 Gradient too large for Newton-Raphson -- use scaled steepest descent instead.
     Accept linear search using points  1 and  2.
 LinEq1:  Iter=  0 NonCon=     1 RMS=1.63D-04 Max=1.62D-02 NDo=     1
 AX will form     1 AO Fock derivatives at one time.
 LinEq1:  Iter=  1 NonCon=     1 RMS=1.36D-04 Max=3.85D-03 NDo=     1
 LinEq1:  Iter=  2 NonCon=     1 RMS=4.91D-05 Max=2.64D-03 NDo=     1
 LinEq1:  Iter=  3 NonCon=     1 RMS=2.53D-05 Max=1.17D-03 NDo=     1
 LinEq1:  Iter=  4 NonCon=     1 RMS=2.57D-05 Max=1.36D-03 NDo=     1
 LinEq1:  Iter=  5 NonCon=     1 RMS=2.46D-05 Max=1.27D-03 NDo=     1
 LinEq1:  Iter=  6 NonCon=     1 RMS=1.82D-05 Max=1.23D-03 NDo=     1
 LinEq1:  Iter=  7 NonCon=     1 RMS=1.49D-05 Max=7.16D-04 NDo=     1
 LinEq1:  Iter=  8 NonCon=     1 RMS=1.03D-05 Max=6.44D-04 NDo=     1
 LinEq1:  Iter=  9 NonCon=     1 RMS=9.78D-06 Max=4.55D-04 NDo=     1
 LinEq1:  Iter= 10 NonCon=     1 RMS=6.37D-06 Max=1.73D-04 NDo=     1
 LinEq1:  Iter= 11 NonCon=     1 RMS=3.96D-06 Max=1.25D-04 NDo=     1
 LinEq1:  Iter= 12 NonCon=     1 RMS=4.34D-06 Max=1.76D-04 NDo=     1
 LinEq1:  Iter= 13 NonCon=     1 RMS=2.99D-06 Max=7.71D-05 NDo=     1
 LinEq1:  Iter= 14 NonCon=     1 RMS=2.81D-06 Max=8.10D-05 NDo=     1
 LinEq1:  Iter= 15 NonCon=     1 RMS=1.82D-06 Max=3.63D-05 NDo=     1
 LinEq1:  Iter= 16 NonCon=     1 RMS=1.42D-06 Max=3.39D-05 NDo=     1
 LinEq1:  Iter= 17 NonCon=     1 RMS=9.60D-07 Max=3.96D-05 NDo=     1
 LinEq1:  Iter= 18 NonCon=     1 RMS=8.16D-07 Max=1.87D-05 NDo=     1
 LinEq1:  Iter= 19 NonCon=     1 RMS=7.17D-07 Max=3.05D-05 NDo=     1
 LinEq1:  Iter= 20 NonCon=     1 RMS=6.18D-07 Max=1.99D-05 NDo=     1
 LinEq1:  Iter= 21 NonCon=     1 RMS=4.68D-07 Max=1.55D-05 NDo=     1
 LinEq1:  Iter= 22 NonCon=     1 RMS=3.00D-07 Max=7.85D-06 NDo=     1
 LinEq1:  Iter= 23 NonCon=     1 RMS=2.46D-07 Max=7.35D-06 NDo=     1
 LinEq1:  Iter= 24 NonCon=     1 RMS=1.80D-07 Max=5.58D-06 NDo=     1
 LinEq1:  Iter= 25 NonCon=     1 RMS=1.32D-07 Max=3.21D-06 NDo=     1
 LinEq1:  Iter= 26 NonCon=     1 RMS=9.56D-08 Max=3.19D-06 NDo=     1
 LinEq1:  Iter= 27 NonCon=     1 RMS=5.43D-08 Max=1.94D-06 NDo=     1
 LinEq1:  Iter= 28 NonCon=     1 RMS=3.47D-08 Max=1.08D-06 NDo=     1
 LinEq1:  Iter= 29 NonCon=     1 RMS=2.32D-08 Max=8.19D-07 NDo=     1
 LinEq1:  Iter= 30 NonCon=     1 RMS=1.17D-08 Max=4.08D-07 NDo=     1
 LinEq1:  Iter= 31 NonCon=     0 RMS=8.09D-09 Max=2.31D-07 NDo=     1
 Linear equations converged to 2.887D-08 2.887D-07 after    31 iterations.
     Minimum is close to point  3 DX=  8.10D-04 DF= -2.57D-07 DXR=  1.93D-02 DFR=  3.71D-04 which will be used.
 LinEq1:  Iter=  0 NonCon=     1 RMS=1.57D-04 Max=1.37D-02 NDo=     1
 LinEq1:  Iter=  1 NonCon=     1 RMS=1.27D-04 Max=3.79D-03 NDo=     1
 LinEq1:  Iter=  2 NonCon=     1 RMS=7.22D-05 Max=2.52D-03 NDo=     1
 LinEq1:  Iter=  3 NonCon=     1 RMS=6.42D-05 Max=2.25D-03 NDo=     1
 LinEq1:  Iter=  4 NonCon=     1 RMS=3.14D-05 Max=1.51D-03 NDo=     1
 LinEq1:  Iter=  5 NonCon=     1 RMS=3.20D-05 Max=1.76D-03 NDo=     1
 LinEq1:  Iter=  6 NonCon=     1 RMS=2.89D-05 Max=1.36D-03 NDo=     1
 LinEq1:  Iter=  7 NonCon=     1 RMS=2.41D-05 Max=1.37D-03 NDo=     1
 LinEq1:  Iter=  8 NonCon=     1 RMS=1.56D-05 Max=9.42D-04 NDo=     1
 LinEq1:  Iter=  9 NonCon=     1 RMS=1.28D-05 Max=4.11D-04 NDo=     1
 LinEq1:  Iter= 10 NonCon=     1 RMS=1.06D-05 Max=5.48D-04 NDo=     1
 LinEq1:  Iter= 11 NonCon=     1 RMS=8.23D-06 Max=2.28D-04 NDo=     1
 LinEq1:  Iter= 12 NonCon=     1 RMS=6.56D-06 Max=2.07D-04 NDo=     1
 LinEq1:  Iter= 13 NonCon=     1 RMS=5.93D-06 Max=2.29D-04 NDo=     1
 LinEq1:  Iter= 14 NonCon=     1 RMS=5.15D-06 Max=1.49D-04 NDo=     1
 LinEq1:  Iter= 15 NonCon=     1 RMS=3.73D-06 Max=1.06D-04 NDo=     1
 LinEq1:  Iter= 16 NonCon=     1 RMS=2.91D-06 Max=7.23D-05 NDo=     1
 LinEq1:  Iter= 17 NonCon=     1 RMS=2.04D-06 Max=3.92D-05 NDo=     1
 LinEq1:  Iter= 18 NonCon=     1 RMS=1.47D-06 Max=4.58D-05 NDo=     1
 LinEq1:  Iter= 19 NonCon=     1 RMS=1.23D-06 Max=2.34D-05 NDo=     1
 LinEq1:  Iter= 20 NonCon=     1 RMS=1.11D-06 Max=3.07D-05 NDo=     1
 LinEq1:  Iter= 21 NonCon=     1 RMS=9.04D-07 Max=2.67D-05 NDo=     1
 LinEq1:  Iter= 22 NonCon=     1 RMS=6.56D-07 Max=2.27D-05 NDo=     1
 LinEq1:  Iter= 23 NonCon=     1 RMS=4.85D-07 Max=2.10D-05 NDo=     1
 LinEq1:  Iter= 24 NonCon=     1 RMS=3.43D-07 Max=1.46D-05 NDo=     1
 LinEq1:  Iter= 25 NonCon=     1 RMS=2.54D-07 Max=1.37D-05 NDo=     1
 LinEq1:  Iter= 26 NonCon=     1 RMS=2.00D-07 Max=7.63D-06 NDo=     1
 LinEq1:  Iter= 27 NonCon=     1 RMS=1.47D-07 Max=5.59D-06 NDo=     1
 LinEq1:  Iter= 28 NonCon=     1 RMS=9.55D-08 Max=2.99D-06 NDo=     1
 LinEq1:  Iter= 29 NonCon=     1 RMS=5.43D-08 Max=1.75D-06 NDo=     1
 LinEq1:  Iter= 30 NonCon=     1 RMS=4.19D-08 Max=1.89D-06 NDo=     1
 LinEq1:  Iter= 31 NonCon=     1 RMS=2.29D-08 Max=7.22D-07 NDo=     1
 LinEq1:  Iter= 32 NonCon=     1 RMS=1.21D-08 Max=3.18D-07 NDo=     1
 LinEq1:  Iter= 33 NonCon=     0 RMS=7.16D-09 Max=2.03D-07 NDo=     1
 Linear equations converged to 2.887D-08 2.887D-07 after    33 iterations.
 Gradient too large for Newton-Raphson -- use scaled steepest descent instead.
 Gradient too large for Newton-Raphson -- use scaled steepest descent instead.
     Accept linear search using points  1 and  2.
 Gradient too large for Newton-Raphson -- use scaled steepest descent instead.
     Accept linear search using points  3 and  4.
 Gradient too large for Newton-Raphson -- use scaled steepest descent instead.
 LinEq1:  Iter=  0 NonCon=     1 RMS=1.25D-04 Max=9.71D-03 NDo=     1
 LinEq1:  Iter=  1 NonCon=     1 RMS=1.19D-04 Max=4.47D-03 NDo=     1
 LinEq1:  Iter=  2 NonCon=     1 RMS=3.02D-05 Max=1.41D-03 NDo=     1
 LinEq1:  Iter=  3 NonCon=     1 RMS=2.66D-05 Max=1.41D-03 NDo=     1
 LinEq1:  Iter=  4 NonCon=     1 RMS=2.31D-05 Max=7.37D-04 NDo=     1
 LinEq1:  Iter=  5 NonCon=     1 RMS=1.99D-05 Max=6.13D-04 NDo=     1
 LinEq1:  Iter=  6 NonCon=     1 RMS=1.72D-05 Max=8.08D-04 NDo=     1
 LinEq1:  Iter=  7 NonCon=     1 RMS=1.60D-05 Max=4.57D-04 NDo=     1
 LinEq1:  Iter=  8 NonCon=     1 RMS=1.38D-05 Max=5.59D-04 NDo=     1
 LinEq1:  Iter=  9 NonCon=     1 RMS=9.48D-06 Max=2.85D-04 NDo=     1
 LinEq1:  Iter= 10 NonCon=     1 RMS=6.01D-06 Max=2.09D-04 NDo=     1
 LinEq1:  Iter= 11 NonCon=     1 RMS=7.44D-06 Max=2.80D-04 NDo=     1
 LinEq1:  Iter= 12 NonCon=     1 RMS=4.59D-06 Max=1.34D-04 NDo=     1
 LinEq1:  Iter= 13 NonCon=     1 RMS=3.90D-06 Max=1.02D-04 NDo=     1
 LinEq1:  Iter= 14 NonCon=     1 RMS=2.57D-06 Max=5.77D-05 NDo=     1
 LinEq1:  Iter= 15 NonCon=     1 RMS=1.77D-06 Max=4.35D-05 NDo=     1
 LinEq1:  Iter= 16 NonCon=     1 RMS=1.44D-06 Max=3.75D-05 NDo=     1
 LinEq1:  Iter= 17 NonCon=     1 RMS=9.85D-07 Max=2.74D-05 NDo=     1
 LinEq1:  Iter= 18 NonCon=     1 RMS=9.19D-07 Max=2.98D-05 NDo=     1
 LinEq1:  Iter= 19 NonCon=     1 RMS=7.95D-07 Max=2.51D-05 NDo=     1
 LinEq1:  Iter= 20 NonCon=     1 RMS=6.69D-07 Max=2.50D-05 NDo=     1
 LinEq1:  Iter= 21 NonCon=     1 RMS=4.33D-07 Max=1.47D-05 NDo=     1
 LinEq1:  Iter= 22 NonCon=     1 RMS=2.99D-07 Max=9.87D-06 NDo=     1
 LinEq1:  Iter= 23 NonCon=     1 RMS=2.42D-07 Max=6.95D-06 NDo=     1
 LinEq1:  Iter= 24 NonCon=     1 RMS=1.89D-07 Max=6.65D-06 NDo=     1
 LinEq1:  Iter= 25 NonCon=     1 RMS=1.24D-07 Max=4.85D-06 NDo=     1
 LinEq1:  Iter= 26 NonCon=     1 RMS=9.70D-08 Max=3.20D-06 NDo=     1
 LinEq1:  Iter= 27 NonCon=     1 RMS=6.19D-08 Max=2.47D-06 NDo=     1
 LinEq1:  Iter= 28 NonCon=     1 RMS=3.53D-08 Max=1.45D-06 NDo=     1
 LinEq1:  Iter= 29 NonCon=     1 RMS=2.32D-08 Max=8.37D-07 NDo=     1
 LinEq1:  Iter= 30 NonCon=     1 RMS=1.31D-08 Max=4.99D-07 NDo=     1
 LinEq1:  Iter= 31 NonCon=     1 RMS=8.18D-09 Max=3.22D-07 NDo=     1
 LinEq1:  Iter= 32 NonCon=     0 RMS=5.45D-09 Max=2.35D-07 NDo=     1
 Linear equations converged to 2.887D-08 2.887D-07 after    32 iterations.
 LinEq1:  Iter=  0 NonCon=     1 RMS=1.20D-04 Max=9.14D-03 NDo=     1
 LinEq1:  Iter=  1 NonCon=     1 RMS=1.21D-04 Max=4.86D-03 NDo=     1
 LinEq1:  Iter=  2 NonCon=     1 RMS=3.59D-05 Max=1.50D-03 NDo=     1
 LinEq1:  Iter=  3 NonCon=     1 RMS=3.18D-05 Max=1.60D-03 NDo=     1
 LinEq1:  Iter=  4 NonCon=     1 RMS=2.42D-05 Max=8.06D-04 NDo=     1
 LinEq1:  Iter=  5 NonCon=     1 RMS=2.14D-05 Max=7.53D-04 NDo=     1
 LinEq1:  Iter=  6 NonCon=     1 RMS=1.77D-05 Max=5.42D-04 NDo=     1
 LinEq1:  Iter=  7 NonCon=     1 RMS=1.51D-05 Max=3.65D-04 NDo=     1
 LinEq1:  Iter=  8 NonCon=     1 RMS=1.52D-05 Max=6.27D-04 NDo=     1
 LinEq1:  Iter=  9 NonCon=     1 RMS=1.23D-05 Max=2.90D-04 NDo=     1
 LinEq1:  Iter= 10 NonCon=     1 RMS=7.72D-06 Max=1.82D-04 NDo=     1
 LinEq1:  Iter= 11 NonCon=     1 RMS=7.74D-06 Max=2.65D-04 NDo=     1
 LinEq1:  Iter= 12 NonCon=     1 RMS=7.09D-06 Max=2.20D-04 NDo=     1
 LinEq1:  Iter= 13 NonCon=     1 RMS=5.63D-06 Max=1.92D-04 NDo=     1
 LinEq1:  Iter= 14 NonCon=     1 RMS=3.45D-06 Max=9.36D-05 NDo=     1
 LinEq1:  Iter= 15 NonCon=     1 RMS=2.58D-06 Max=7.30D-05 NDo=     1
 LinEq1:  Iter= 16 NonCon=     1 RMS=2.03D-06 Max=6.01D-05 NDo=     1
 LinEq1:  Iter= 17 NonCon=     1 RMS=1.57D-06 Max=4.01D-05 NDo=     1
 LinEq1:  Iter= 18 NonCon=     1 RMS=1.24D-06 Max=3.31D-05 NDo=     1
 LinEq1:  Iter= 19 NonCon=     1 RMS=1.14D-06 Max=3.02D-05 NDo=     1
 LinEq1:  Iter= 20 NonCon=     1 RMS=9.96D-07 Max=3.21D-05 NDo=     1
 LinEq1:  Iter= 21 NonCon=     1 RMS=6.88D-07 Max=1.79D-05 NDo=     1
 LinEq1:  Iter= 22 NonCon=     1 RMS=5.41D-07 Max=1.46D-05 NDo=     1
 LinEq1:  Iter= 23 NonCon=     1 RMS=3.89D-07 Max=1.49D-05 NDo=     1
 LinEq1:  Iter= 24 NonCon=     1 RMS=2.51D-07 Max=7.59D-06 NDo=     1
 LinEq1:  Iter= 25 NonCon=     1 RMS=2.17D-07 Max=6.11D-06 NDo=     1
 LinEq1:  Iter= 26 NonCon=     1 RMS=1.35D-07 Max=4.28D-06 NDo=     1
 LinEq1:  Iter= 27 NonCon=     1 RMS=9.04D-08 Max=2.81D-06 NDo=     1
 LinEq1:  Iter= 28 NonCon=     1 RMS=5.97D-08 Max=1.51D-06 NDo=     1
 LinEq1:  Iter= 29 NonCon=     1 RMS=3.00D-08 Max=6.96D-07 NDo=     1
 LinEq1:  Iter= 30 NonCon=     1 RMS=2.13D-08 Max=5.38D-07 NDo=     1
 LinEq1:  Iter= 31 NonCon=     1 RMS=1.38D-08 Max=4.16D-07 NDo=     1
 LinEq1:  Iter= 32 NonCon=     0 RMS=6.49D-09 Max=1.54D-07 NDo=     1
 Linear equations converged to 2.887D-08 2.887D-07 after    32 iterations.
 LinEq1:  Iter=  0 NonCon=     1 RMS=1.17D-04 Max=8.89D-03 NDo=     1
 LinEq1:  Iter=  1 NonCon=     1 RMS=1.19D-04 Max=4.80D-03 NDo=     1
 LinEq1:  Iter=  2 NonCon=     1 RMS=3.57D-05 Max=1.33D-03 NDo=     1
 LinEq1:  Iter=  3 NonCon=     1 RMS=3.10D-05 Max=1.42D-03 NDo=     1
 LinEq1:  Iter=  4 NonCon=     1 RMS=2.37D-05 Max=7.61D-04 NDo=     1
 LinEq1:  Iter=  5 NonCon=     1 RMS=2.06D-05 Max=7.35D-04 NDo=     1
 LinEq1:  Iter=  6 NonCon=     1 RMS=1.67D-05 Max=5.07D-04 NDo=     1
 LinEq1:  Iter=  7 NonCon=     1 RMS=1.36D-05 Max=3.03D-04 NDo=     1
 LinEq1:  Iter=  8 NonCon=     1 RMS=1.38D-05 Max=4.97D-04 NDo=     1
 LinEq1:  Iter=  9 NonCon=     1 RMS=1.18D-05 Max=2.98D-04 NDo=     1
 LinEq1:  Iter= 10 NonCon=     1 RMS=7.49D-06 Max=1.83D-04 NDo=     1
 LinEq1:  Iter= 11 NonCon=     1 RMS=7.30D-06 Max=2.59D-04 NDo=     1
 LinEq1:  Iter= 12 NonCon=     1 RMS=6.90D-06 Max=2.27D-04 NDo=     1
 LinEq1:  Iter= 13 NonCon=     1 RMS=5.54D-06 Max=2.12D-04 NDo=     1
 LinEq1:  Iter= 14 NonCon=     1 RMS=3.51D-06 Max=9.79D-05 NDo=     1
 LinEq1:  Iter= 15 NonCon=     1 RMS=2.60D-06 Max=7.61D-05 NDo=     1
 LinEq1:  Iter= 16 NonCon=     1 RMS=2.05D-06 Max=6.20D-05 NDo=     1
 LinEq1:  Iter= 17 NonCon=     1 RMS=1.59D-06 Max=3.70D-05 NDo=     1
 LinEq1:  Iter= 18 NonCon=     1 RMS=1.17D-06 Max=3.07D-05 NDo=     1
 LinEq1:  Iter= 19 NonCon=     1 RMS=1.18D-06 Max=3.09D-05 NDo=     1
 LinEq1:  Iter= 20 NonCon=     1 RMS=9.50D-07 Max=2.69D-05 NDo=     1
 LinEq1:  Iter= 21 NonCon=     1 RMS=6.60D-07 Max=1.65D-05 NDo=     1
 LinEq1:  Iter= 22 NonCon=     1 RMS=4.84D-07 Max=1.21D-05 NDo=     1
 LinEq1:  Iter= 23 NonCon=     1 RMS=3.78D-07 Max=1.40D-05 NDo=     1
 LinEq1:  Iter= 24 NonCon=     1 RMS=2.52D-07 Max=8.03D-06 NDo=     1
 LinEq1:  Iter= 25 NonCon=     1 RMS=2.12D-07 Max=5.07D-06 NDo=     1
 LinEq1:  Iter= 26 NonCon=     1 RMS=1.27D-07 Max=3.68D-06 NDo=     1
 LinEq1:  Iter= 27 NonCon=     1 RMS=8.62D-08 Max=2.55D-06 NDo=     1
 LinEq1:  Iter= 28 NonCon=     1 RMS=5.83D-08 Max=1.52D-06 NDo=     1
 LinEq1:  Iter= 29 NonCon=     1 RMS=2.93D-08 Max=7.08D-07 NDo=     1
 LinEq1:  Iter= 30 NonCon=     1 RMS=2.23D-08 Max=8.67D-07 NDo=     1
 LinEq1:  Iter= 31 NonCon=     1 RMS=1.29D-08 Max=4.15D-07 NDo=     1
 LinEq1:  Iter= 32 NonCon=     0 RMS=6.67D-09 Max=2.56D-07 NDo=     1
 Linear equations converged to 2.887D-08 2.887D-07 after    32 iterations.
 LinEq1:  Iter=  0 NonCon=     1 RMS=1.15D-04 Max=8.71D-03 NDo=     1
 LinEq1:  Iter=  1 NonCon=     1 RMS=1.16D-04 Max=4.72D-03 NDo=     1
 LinEq1:  Iter=  2 NonCon=     1 RMS=3.57D-05 Max=1.25D-03 NDo=     1
 LinEq1:  Iter=  3 NonCon=     1 RMS=3.07D-05 Max=1.32D-03 NDo=     1
 LinEq1:  Iter=  4 NonCon=     1 RMS=2.30D-05 Max=6.97D-04 NDo=     1
 LinEq1:  Iter=  5 NonCon=     1 RMS=2.01D-05 Max=7.25D-04 NDo=     1
 LinEq1:  Iter=  6 NonCon=     1 RMS=1.60D-05 Max=4.70D-04 NDo=     1
 LinEq1:  Iter=  7 NonCon=     1 RMS=1.23D-05 Max=3.14D-04 NDo=     1
 LinEq1:  Iter=  8 NonCon=     1 RMS=1.22D-05 Max=3.93D-04 NDo=     1
 LinEq1:  Iter=  9 NonCon=     1 RMS=1.12D-05 Max=2.97D-04 NDo=     1
 LinEq1:  Iter= 10 NonCon=     1 RMS=7.04D-06 Max=1.84D-04 NDo=     1
 LinEq1:  Iter= 11 NonCon=     1 RMS=6.51D-06 Max=2.29D-04 NDo=     1
 LinEq1:  Iter= 12 NonCon=     1 RMS=6.40D-06 Max=2.25D-04 NDo=     1
 LinEq1:  Iter= 13 NonCon=     1 RMS=5.45D-06 Max=2.18D-04 NDo=     1
 LinEq1:  Iter= 14 NonCon=     1 RMS=3.55D-06 Max=1.04D-04 NDo=     1
 LinEq1:  Iter= 15 NonCon=     1 RMS=2.58D-06 Max=7.70D-05 NDo=     1
 LinEq1:  Iter= 16 NonCon=     1 RMS=2.00D-06 Max=5.90D-05 NDo=     1
 LinEq1:  Iter= 17 NonCon=     1 RMS=1.55D-06 Max=3.29D-05 NDo=     1
 LinEq1:  Iter= 18 NonCon=     1 RMS=1.10D-06 Max=2.90D-05 NDo=     1
 LinEq1:  Iter= 19 NonCon=     1 RMS=1.14D-06 Max=2.92D-05 NDo=     1
 LinEq1:  Iter= 20 NonCon=     1 RMS=8.82D-07 Max=2.16D-05 NDo=     1
 LinEq1:  Iter= 21 NonCon=     1 RMS=5.80D-07 Max=1.43D-05 NDo=     1
 LinEq1:  Iter= 22 NonCon=     1 RMS=3.54D-07 Max=9.19D-06 NDo=     1
 LinEq1:  Iter= 23 NonCon=     1 RMS=2.95D-07 Max=9.83D-06 NDo=     1
 LinEq1:  Iter= 24 NonCon=     1 RMS=2.08D-07 Max=6.52D-06 NDo=     1
 LinEq1:  Iter= 25 NonCon=     1 RMS=1.71D-07 Max=3.72D-06 NDo=     1
[...]
    16  S    0.000000   0.000000   0.000000   0.000000   0.000000   0.000000
    17  S    0.000000   0.000000   0.000000   0.000000   0.000000   0.000000
    18  S    0.000000   0.000000   0.000000   0.000000   0.000000   0.000000
    19  S    0.000000   0.000000   0.000000   0.000000   0.000000   0.000000
    20  S    0.000000   0.000000   0.000000   0.000000   0.000000   0.000000
    21  S    0.000000   0.000000   0.000000   0.000000   0.000000   0.000000
    22  Mo   0.000000   0.000000   0.000000   0.000000   0.000000   0.000000
    23  Mo   0.000000   0.000000   0.000000   0.000000   0.000000   0.000000
    24  Mo   0.000000   0.000000   0.000000   0.000000   0.000000   0.000000
    25  Mo  -1.696434   0.000000   0.000000   0.000000   0.000000   0.000000
    26  Mo   0.000000   1.070283   0.000000   0.000000   0.000000   0.000000
    27  Mo   0.000000   0.000000  -0.735914   0.000000   0.000000   0.000000
    28  Mo   0.000000   0.000000   0.000000  -0.221969   0.000000   0.000000
    29  Mo   0.000000   0.000000   0.000000   0.000000   1.069579   0.000000
    30  S    0.000000   0.000000   0.000000   0.000000   0.000000  -0.050244
    31  S    0.000000   0.000000   0.000000   0.000000   0.000000   0.000000
    32  S    0.000000   0.000000   0.000000   0.000000   0.000000   0.000000
    33  S    0.000000   0.000000   0.000000   0.000000   0.000000   0.000000
    34  S    0.000000   0.000000   0.000000   0.000000   0.000000   0.000000
    35  S    0.000000   0.000000   0.000000   0.000000   0.000000   0.000000
    36  S    0.000000   0.000000   0.000000   0.000000   0.000000   0.000000
    37  S    0.000000   0.000000   0.000000   0.000000   0.000000   0.000000
    38  S    0.000000   0.000000   0.000000   0.000000   0.000000   0.000000
    39  S    0.000000   0.000000   0.000000   0.000000   0.000000   0.000000
    40  S    0.000000   0.000000   0.000000   0.000000   0.000000   0.000000
    41  S    0.000000   0.000000   0.000000   0.000000   0.000000   0.000000
    42  S    0.000000   0.000000   0.000000   0.000000   0.000000   0.000000
    43  S    0.000000   0.000000   0.000000   0.000000   0.000000   0.000000
    44  S    0.000000   0.000000   0.000000   0.000000   0.000000   0.000000
    45  S    0.000000   0.000000   0.000000   0.000000   0.000000   0.000000
    46  S    0.000000   0.000000   0.000000   0.000000   0.000000   0.000000
    47  S    0.000000   0.000000   0.000000   0.000000   0.000000   0.000000
    48  Rh   0.000000   0.000000   0.000000   0.000000   0.000000   0.000000
              31         32         33         34         35         36
     1  Mo   0.000000   0.000000   0.000000   0.000000   0.000000   0.000000
     2  S    0.000000   0.000000   0.000000   0.000000   0.000000   0.000000
     3  S    0.000000   0.000000   0.000000   0.000000   0.000000   0.000000
     4  Mo   0.000000   0.000000   0.000000   0.000000   0.000000   0.000000
     5  Mo   0.000000   0.000000   0.000000   0.000000   0.000000   0.000000
     6  Mo   0.000000   0.000000   0.000000   0.000000   0.000000   0.000000
     7  S    0.000000   0.000000   0.000000   0.000000   0.000000   0.000000
     8  S    0.000000   0.000000   0.000000   0.000000   0.000000   0.000000
     9  S    0.000000   0.000000   0.000000   0.000000   0.000000   0.000000
    10  S    0.000000   0.000000   0.000000   0.000000   0.000000   0.000000
    11  S    0.000000   0.000000   0.000000   0.000000   0.000000   0.000000
    12  S    0.000000   0.000000   0.000000   0.000000   0.000000   0.000000
    13  Mo   0.000000   0.000000   0.000000   0.000000   0.000000   0.000000
    14  Mo   0.000000   0.000000   0.000000   0.000000   0.000000   0.000000
    15  Mo   0.000000   0.000000   0.000000   0.000000   0.000000   0.000000
    16  S    0.000000   0.000000   0.000000   0.000000   0.000000   0.000000
    17  S    0.000000   0.000000   0.000000   0.000000   0.000000   0.000000
    18  S    0.000000   0.000000   0.000000   0.000000   0.000000   0.000000
    19  S    0.000000   0.000000   0.000000   0.000000   0.000000   0.000000
    20  S    0.000000   0.000000   0.000000   0.000000   0.000000   0.000000
    21  S    0.000000   0.000000   0.000000   0.000000   0.000000   0.000000
    22  Mo   0.000000   0.000000   0.000000   0.000000   0.000000   0.000000
    23  Mo   0.000000   0.000000   0.000000   0.000000   0.000000   0.000000
    24  Mo   0.000000   0.000000   0.000000   0.000000   0.000000   0.000000
    25  Mo   0.000000   0.000000   0.000000   0.000000   0.000000   0.000000
    26  Mo   0.000000   0.000000   0.000000   0.000000   0.000000   0.000000
    27  Mo   0.000000   0.000000   0.000000   0.000000   0.000000   0.000000
    28  Mo   0.000000   0.000000   0.000000   0.000000   0.000000   0.000000
    29  Mo   0.000000   0.000000   0.000000   0.000000   0.000000   0.000000
    30  S    0.000000   0.000000   0.000000   0.000000   0.000000   0.000000
    31  S    0.311162   0.000000   0.000000   0.000000   0.000000   0.000000
    32  S    0.000000  -0.542456   0.000000   0.000000   0.000000   0.000000
    33  S    0.000000   0.000000  -0.093847   0.000000   0.000000   0.000000
    34  S    0.000000   0.000000   0.000000  -0.032271   0.000000   0.000000
    35  S    0.000000   0.000000   0.000000   0.000000   0.017405   0.000000
    36  S    0.000000   0.000000   0.000000   0.000000   0.000000   0.004116
    37  S    0.000000   0.000000   0.000000   0.000000   0.000000   0.000000
    38  S    0.000000   0.000000   0.000000   0.000000   0.000000   0.000000
    39  S    0.000000   0.000000   0.000000   0.000000   0.000000   0.000000
    40  S    0.000000   0.000000   0.000000   0.000000   0.000000   0.000000
    41  S    0.000000   0.000000   0.000000   0.000000   0.000000   0.000000
    42  S    0.000000   0.000000   0.000000   0.000000   0.000000   0.000000
    43  S    0.000000   0.000000   0.000000   0.000000   0.000000   0.000000
    44  S    0.000000   0.000000   0.000000   0.000000   0.000000   0.000000
    45  S    0.000000   0.000000   0.000000   0.000000   0.000000   0.000000
    46  S    0.000000   0.000000   0.000000   0.000000   0.000000   0.000000
    47  S    0.000000   0.000000   0.000000   0.000000   0.000000   0.000000
    48  Rh   0.000000   0.000000   0.000000   0.000000   0.000000   0.000000
              37         38         39         40         41         42
     1  Mo   0.000000   0.000000   0.000000   0.000000   0.000000   0.000000
     2  S    0.000000   0.000000   0.000000   0.000000   0.000000   0.000000
     3  S    0.000000   0.000000   0.000000   0.000000   0.000000   0.000000
     4  Mo   0.000000   0.000000   0.000000   0.000000   0.000000   0.000000
     5  Mo   0.000000   0.000000   0.000000   0.000000   0.000000   0.000000
     6  Mo   0.000000   0.000000   0.000000   0.000000   0.000000   0.000000
     7  S    0.000000   0.000000   0.000000   0.000000   0.000000   0.000000
     8  S    0.000000   0.000000   0.000000   0.000000   0.000000   0.000000
     9  S    0.000000   0.000000   0.000000   0.000000   0.000000   0.000000
    10  S    0.000000   0.000000   0.000000   0.000000   0.000000   0.000000
    11  S    0.000000   0.000000   0.000000   0.000000   0.000000   0.000000
    12  S    0.000000   0.000000   0.000000   0.000000   0.000000   0.000000
    13  Mo   0.000000   0.000000   0.000000   0.000000   0.000000   0.000000
    14  Mo   0.000000   0.000000   0.000000   0.000000   0.000000   0.000000
    15  Mo   0.000000   0.000000   0.000000   0.000000   0.000000   0.000000
    16  S    0.000000   0.000000   0.000000   0.000000   0.000000   0.000000
    17  S    0.000000   0.000000   0.000000   0.000000   0.000000   0.000000
    18  S    0.000000   0.000000   0.000000   0.000000   0.000000   0.000000
    19  S    0.000000   0.000000   0.000000   0.000000   0.000000   0.000000
    20  S    0.000000   0.000000   0.000000   0.000000   0.000000   0.000000
    21  S    0.000000   0.000000   0.000000   0.000000   0.000000   0.000000
    22  Mo   0.000000   0.000000   0.000000   0.000000   0.000000   0.000000
    23  Mo   0.000000   0.000000   0.000000   0.000000   0.000000   0.000000
    24  Mo   0.000000   0.000000   0.000000   0.000000   0.000000   0.000000
    25  Mo   0.000000   0.000000   0.000000   0.000000   0.000000   0.000000
    26  Mo   0.000000   0.000000   0.000000   0.000000   0.000000   0.000000
    27  Mo   0.000000   0.000000   0.000000   0.000000   0.000000   0.000000
    28  Mo   0.000000   0.000000   0.000000   0.000000   0.000000   0.000000
    29  Mo   0.000000   0.000000   0.000000   0.000000   0.000000   0.000000
    30  S    0.000000   0.000000   0.000000   0.000000   0.000000   0.000000
    31  S    0.000000   0.000000   0.000000   0.000000   0.000000   0.000000
    32  S    0.000000   0.000000   0.000000   0.000000   0.000000   0.000000
    33  S    0.000000   0.000000   0.000000   0.000000   0.000000   0.000000
    34  S    0.000000   0.000000   0.000000   0.000000   0.000000   0.000000
    35  S    0.000000   0.000000   0.000000   0.000000   0.000000   0.000000
    36  S    0.000000   0.000000   0.000000   0.000000   0.000000   0.000000
    37  S   -0.023255   0.000000   0.000000   0.000000   0.000000   0.000000
    38  S    0.000000  -0.080131   0.000000   0.000000   0.000000   0.000000
    39  S    0.000000   0.000000  -0.052493   0.000000   0.000000   0.000000
    40  S    0.000000   0.000000   0.000000   0.290320   0.000000   0.000000
    41  S    0.000000   0.000000   0.000000   0.000000  -0.682836   0.000000
    42  S    0.000000   0.000000   0.000000   0.000000   0.000000  -0.090234
    43  S    0.000000   0.000000   0.000000   0.000000   0.000000   0.000000
    44  S    0.000000   0.000000   0.000000   0.000000   0.000000   0.000000
    45  S    0.000000   0.000000   0.000000   0.000000   0.000000   0.000000
    46  S    0.000000   0.000000   0.000000   0.000000   0.000000   0.000000
    47  S    0.000000   0.000000   0.000000   0.000000   0.000000   0.000000
    48  Rh   0.000000   0.000000   0.000000   0.000000   0.000000   0.000000
              43         44         45         46         47         48
     1  Mo   0.000000   0.000000   0.000000   0.000000   0.000000   0.000000
     2  S    0.000000   0.000000   0.000000   0.000000   0.000000   0.000000
     3  S    0.000000   0.000000   0.000000   0.000000   0.000000   0.000000
     4  Mo   0.000000   0.000000   0.000000   0.000000   0.000000   0.000000
     5  Mo   0.000000   0.000000   0.000000   0.000000   0.000000   0.000000
     6  Mo   0.000000   0.000000   0.000000   0.000000   0.000000   0.000000
     7  S    0.000000   0.000000   0.000000   0.000000   0.000000   0.000000
     8  S    0.000000   0.000000   0.000000   0.000000   0.000000   0.000000
     9  S    0.000000   0.000000   0.000000   0.000000   0.000000   0.000000
    10  S    0.000000   0.000000   0.000000   0.000000   0.000000   0.000000
    11  S    0.000000   0.000000   0.000000   0.000000   0.000000   0.000000
    12  S    0.000000   0.000000   0.000000   0.000000   0.000000   0.000000
    13  Mo   0.000000   0.000000   0.000000   0.000000   0.000000   0.000000
    14  Mo   0.000000   0.000000   0.000000   0.000000   0.000000   0.000000
    15  Mo   0.000000   0.000000   0.000000   0.000000   0.000000   0.000000
    16  S    0.000000   0.000000   0.000000   0.000000   0.000000   0.000000
    17  S    0.000000   0.000000   0.000000   0.000000   0.000000   0.000000
    18  S    0.000000   0.000000   0.000000   0.000000   0.000000   0.000000
    19  S    0.000000   0.000000   0.000000   0.000000   0.000000   0.000000
    20  S    0.000000   0.000000   0.000000   0.000000   0.000000   0.000000
    21  S    0.000000   0.000000   0.000000   0.000000   0.000000   0.000000
    22  Mo   0.000000   0.000000   0.000000   0.000000   0.000000   0.000000
    23  Mo   0.000000   0.000000   0.000000   0.000000   0.000000   0.000000
    24  Mo   0.000000   0.000000   0.000000   0.000000   0.000000   0.000000
    25  Mo   0.000000   0.000000   0.000000   0.000000   0.000000   0.000000
    26  Mo   0.000000   0.000000   0.000000   0.000000   0.000000   0.000000
    27  Mo   0.000000   0.000000   0.000000   0.000000   0.000000   0.000000
    28  Mo   0.000000   0.000000   0.000000   0.000000   0.000000   0.000000
    29  Mo   0.000000   0.000000   0.000000   0.000000   0.000000   0.000000
    30  S    0.000000   0.000000   0.000000   0.000000   0.000000   0.000000
    31  S    0.000000   0.000000   0.000000   0.000000   0.000000   0.000000
    32  S    0.000000   0.000000   0.000000   0.000000   0.000000   0.000000
    33  S    0.000000   0.000000   0.000000   0.000000   0.000000   0.000000
    34  S    0.000000   0.000000   0.000000   0.000000   0.000000   0.000000
    35  S    0.000000   0.000000   0.000000   0.000000   0.000000   0.000000
    36  S    0.000000   0.000000   0.000000   0.000000   0.000000   0.000000
    37  S    0.000000   0.000000   0.000000   0.000000   0.000000   0.000000
    38  S    0.000000   0.000000   0.000000   0.000000   0.000000   0.000000
    39  S    0.000000   0.000000   0.000000   0.000000   0.000000   0.000000
    40  S    0.000000   0.000000   0.000000   0.000000   0.000000   0.000000
    41  S    0.000000   0.000000   0.000000   0.000000   0.000000   0.000000
    42  S    0.000000   0.000000   0.000000   0.000000   0.000000   0.000000
    43  S   -0.034503   0.000000   0.000000   0.000000   0.000000   0.000000
    44  S    0.000000   0.000658   0.000000   0.000000   0.000000   0.000000
    45  S    0.000000   0.000000   0.031475   0.000000   0.000000   0.000000
    46  S    0.000000   0.000000   0.000000  -0.023553   0.000000   0.000000
    47  S    0.000000   0.000000   0.000000   0.000000  -0.083066   0.000000
    48  Rh   0.000000   0.000000   0.000000   0.000000   0.000000  -0.179847
 Mulliken charges and spin densities:
               1          2
     1  Mo   0.339194   1.703420
     2  S   -0.389697  -0.145099
     3  S   -0.385263  -0.148772
     4  Mo   0.015713  -0.125844
     5  Mo   0.017374   0.543360
     6  Mo   0.259565   0.736702
     7  S    0.084344  -0.217299
     8  S   -0.099319  -0.034849
     9  S   -0.048349  -0.115160
    10  S    0.085491  -0.218220
    11  S   -0.098103  -0.033498
    12  S    0.006549  -0.121792
    13  Mo   0.384199   1.229894
    14  Mo   0.276480  -1.898204
    15  Mo   0.618108  -1.181389
    16  S   -0.531739   0.064202
    17  S   -0.152203   0.692131
    18  S   -0.186858   1.321715
    19  S   -0.537734   0.034095
    20  S   -0.086352   0.715265
    21  S   -0.115507   1.065140
    22  Mo   0.119032   0.712343
    23  Mo   0.111721  -0.036043
    24  Mo   0.312542  -1.714040
    25  Mo  -0.139155  -1.696434
    26  Mo   0.489219   1.070283
    27  Mo   0.168522  -0.735914
    28  Mo   0.091581  -0.221969
    29  Mo   0.378547   1.069579
    30  S    0.000354  -0.050244
    31  S    0.154960   0.311162
    32  S   -0.204594  -0.542456
    33  S   -0.110761  -0.093847
    34  S   -0.023499  -0.032271
    35  S   -0.570820   0.017405
    36  S   -0.077689   0.004116
    37  S   -0.090043  -0.023255
    38  S   -0.444961  -0.080131
    39  S    0.001848  -0.052493
    40  S    0.137230   0.290320
    41  S   -0.130887  -0.682836
    42  S   -0.112138  -0.090234
    43  S   -0.021561  -0.034503
    44  S   -0.578700   0.000658
    45  S   -0.072738   0.031475
    46  S   -0.090043  -0.023553
    47  S   -0.442010  -0.083066
    48  Rh   1.688147  -0.179847
 Sum of Mulliken charges =   0.00000   1.00000
 Mulliken charges and spin densities with hydrogens summed into heavy atoms:
               1          2
     1  Mo   0.339194   1.703420
     2  S   -0.389697  -0.145099
     3  S   -0.385263  -0.148772
     4  Mo   0.015713  -0.125844
     5  Mo   0.017374   0.543360
     6  Mo   0.259565   0.736702
     7  S    0.084344  -0.217299
     8  S   -0.099319  -0.034849
     9  S   -0.048349  -0.115160
    10  S    0.085491  -0.218220
    11  S   -0.098103  -0.033498
    12  S    0.006549  -0.121792
    13  Mo   0.384199   1.229894
    14  Mo   0.276480  -1.898204
    15  Mo   0.618108  -1.181389
    16  S   -0.531739   0.064202
    17  S   -0.152203   0.692131
    18  S   -0.186858   1.321715
    19  S   -0.537734   0.034095
    20  S   -0.086352   0.715265
    21  S   -0.115507   1.065140
    22  Mo   0.119032   0.712343
    23  Mo   0.111721  -0.036043
    24  Mo   0.312542  -1.714040
    25  Mo  -0.139155  -1.696434
    26  Mo   0.489219   1.070283
    27  Mo   0.168522  -0.735914
    28  Mo   0.091581  -0.221969
    29  Mo   0.378547   1.069579
    30  S    0.000354  -0.050244
    31  S    0.154960   0.311162
    32  S   -0.204594  -0.542456
    33  S   -0.110761  -0.093847
    34  S   -0.023499  -0.032271
    35  S   -0.570820   0.017405
    36  S   -0.077689   0.004116
    37  S   -0.090043  -0.023255
    38  S   -0.444961  -0.080131
    39  S    0.001848  -0.052493
    40  S    0.137230   0.290320
    41  S   -0.130887  -0.682836
    42  S   -0.112138  -0.090234
    43  S   -0.021561  -0.034503
    44  S   -0.578700   0.000658
    45  S   -0.072738   0.031475
    46  S   -0.090043  -0.023553
    47  S   -0.442010  -0.083066
    48  Rh   1.688147  -0.179847
 Charge=              0.0000 electrons
 Dipole moment (field-independent basis, Debye):
    X=             39.7300    Y=              4.7976    Z=              0.2287  Tot=             40.0193
 N-N= 4.031242939312D+03 E-N=-7.763094867236D+03  KE=-1.659432961529D+02
 1|1|UNPC-YASH|FOpt|UPM6|ZDO|Mo15Rh1S32(2)|YASH SHAW|26-Dec-2024|0||# o
 pt pm6 scf=qc geom=connectivity||Rh doped MoS2||0,2|Mo,-0.72761767,-5.
 04954497,0.55675216|S,-2.05815997,-3.99998881,2.2800214|S,-2.71334655,
 -4.55566066,-0.729532|Mo,2.36864942,-4.78668309,-0.16584595|Mo,5.46491
 651,-4.52382122,-0.88844405|Mo,8.5611836,-4.26095934,-1.61104215|S,1.0
 3810712,-3.73712693,1.5574233|S,4.1343742,-3.47426506,0.8348252|S,7.23
 064129,-3.21140318,0.11222709|S,0.38292054,-4.29279879,-1.4521301|S,3.
 47918763,-4.02993691,-2.1747282|S,6.57545472,-3.76707504,-2.8973263|Mo
 ,-2.60575735,-2.47152239,0.48963167|Mo,-4.4836666511,0.1066648766,0.42
 23896943|Mo,-6.36240117,2.6848490426,0.3560037479|S,-3.93629967,-1.421
 96623,2.21290091|S,-5.814452526,1.155945836,2.1456901104|S,-8.38768115
 89,3.7480684507,0.9020374904|S,-4.59148624,-1.97763808,-0.79665248|S,-
 6.4696572757,0.6004095209,-0.8638130107|S,-8.3476496305,3.1783017866,-
 0.9311129322|Mo,0.49050973,-2.20866052,-0.23296643|Mo,-1.38762997,0.36
 936206,-0.30008691|Mo,-3.2657453748,2.9471211919,-0.3671991654|Mo,3.58
 677682,-1.94579864,-0.95556453|Mo,-0.16950257,3.21024651,-1.08980549|M
 o,6.6830439,-1.68293677,-1.67816263|Mo,4.80490421,0.89508581,-1.745283
 11|Mo,2.92676452,3.47310839,-1.81240359|S,-0.84003257,-1.15910435,1.49
 030281|S,-2.71817227,1.41891822,1.42318233|S,-4.5962600712,3.996962699
 6,1.355941558|S,2.25623451,-0.89624248,0.76770471|S,0.37809481,1.68178
 01,0.70058423|S,-1.50004487,4.25980268,0.63346374|S,5.3525016,-0.63338
 06,0.04510661|S,3.47436191,1.94464197,-0.02201388|S,1.59622221,4.52266
 455,-0.08913436|S,-1.49521915,-1.71477621,-1.51925058|S,-3.37335885,0.
 86324637,-1.58637107|S,-5.2515121606,3.4412102659,-1.6535211822|S,1.60
 104794,-1.45191433,-2.24184868|S,-0.27709175,1.12610824,-2.30896917|S,
 -2.15523145,3.70413082,-2.37608965|S,4.69731502,-1.18905246,-2.9644467
 9|S,2.81917533,1.38897012,-3.03156727|S,0.94103564,3.9669927,-3.098687
 76|Rh,1.70863713,0.63222393,-1.02268501||Version=IA32W-G09RevD.01|Stat
 e=2-A|HF=-1.2678066|S2=13.084689|S2-1=0.|S2A=42.014828|RMSD=0.000e+000
 |RMSF=3.925e-006|Dipole=14.8363658,-4.8305074,-2.1087925|PG=C01 [X(Mo1
 5Rh1S32)]||@


 THE PROMISED LAND ALWAYS LIES ON THE OTHER SIDE OF A WILDERNESS.

                         -- HAVELOCK ELLIS
 Job cpu time:       0 days  0 hours 55 minutes 22.0 seconds.
 File lengths (MBytes):  RWF=    167 Int=      0 D2E=      0 Chk=     19 Scr=      1
 Normal termination of Gaussian 09 at Thu Dec 26 22:40:49 2024.
