 Entering Link 1 = C:\G09W\l1.exe PID=      2088.
  
 Copyright (c) 1988,1990,1992,1993,1995,1998,2003,2009,2013,
            Gaussian, Inc.  All Rights Reserved.
  
 This is part of the Gaussian(R) 09 program.  It is based on
 the Gaussian(R) 03 system (copyright 2003, Gaussian, Inc.),
 the Gaussian(R) 98 system (copyright 1998, Gaussian, Inc.),
 the Gaussian(R) 94 system (copyright 1995, Gaussian, Inc.),
 the Gaussian 92(TM) system (copyright 1992, Gaussian, Inc.),
 the Gaussian 90(TM) system (copyright 1990, Gaussian, Inc.),
 the Gaussian 88(TM) system (copyright 1988, Gaussian, Inc.),
 the Gaussian 86(TM) system (copyright 1986, Carnegie Mellon
 University), and the Gaussian 82(TM) system (copyright 1983,
 Carnegie Mellon University). Gaussian is a federally registered
 trademark of Gaussian, Inc.
  
 This software contains proprietary and confidential information,
 including trade secrets, belonging to Gaussian, Inc.
  
 This software is provided under written license and may be
 used, copied, transmitted, or stored only in accord with that
 written license.
  
 The following legend is applicable only to US Government
 contracts under FAR:
  
                    RESTRICTED RIGHTS LEGEND
  
 Use, reproduction and disclosure by the US Government is
 subject to restrictions as set forth in subparagraphs (a)
 and (c) of the Commercial Computer Software - Restricted
 Rights clause in FAR 52.227-19.
  
 Gaussian, Inc.
 340 Quinnipiac St., Bldg. 40, Wallingford CT 06492
  
  
 ---------------------------------------------------------------
 Warning -- This program may not be used in any manner that
 competes with the business of Gaussian, Inc. or will provide
 assistance to any competitor of Gaussian, Inc.  The licensee
 of this program is prohibited from giving any competitor of
 Gaussian, Inc. access to this program.  By using this program,
 the user acknowledges that Gaussian, Inc. is engaged in the
 business of creating and licensing software in the field of
 computational chemistry and represents and warrants to the
 licensee that it is not a competitor of Gaussian, Inc. and that
 it will not use this program in any manner prohibited above.
 ---------------------------------------------------------------
  

 Cite this work as:
 Gaussian 09, Revision D.01,
 M. J. Frisch, G. W. Trucks, H. B. Schlegel, G. E. Scuseria, 
 M. A. Robb, J. R. Cheeseman, G. Scalmani, V. Barone, B. Mennucci, 
 G. A. Petersson, H. Nakatsuji, M. Caricato, X. Li, H. P. Hratchian, 
 A. F. Izmaylov, J. Bloino, G. Zheng, J. L. Sonnenberg, M. Hada, 
 M. Ehara, K. Toyota, R. Fukuda, J. Hasegawa, M. Ishida, T. Nakajima, 
 Y. Honda, O. Kitao, H. Nakai, T. Vreven, J. A. Montgomery, Jr., 
 J. E. Peralta, F. Ogliaro, M. Bearpark, J. J. Heyd, E. Brothers, 
 K. N. Kudin, V. N. Staroverov, T. Keith, R. Kobayashi, J. Normand, 
 K. Raghavachari, A. Rendell, J. C. Burant, S. S. Iyengar, J. Tomasi, 
 M. Cossi, N. Rega, J. M. Millam, M. Klene, J. E. Knox, J. B. Cross, 
 V. Bakken, C. Adamo, J. Jaramillo, R. Gomperts, R. E. Stratmann, 
 O. Yazyev, A. J. Austin, R. Cammi, C. Pomelli, J. W. Ochterski, 
 R. L. Martin, K. Morokuma, V. G. Zakrzewski, G. A. Voth, 
 P. Salvador, J. J. Dannenberg, S. Dapprich, A. D. Daniels, 
 O. Farkas, J. B. Foresman, J. V. Ortiz, J. Cioslowski, 
 and D. J. Fox, Gaussian, Inc., Wallingford CT, 2013.
 
 ******************************************
 Gaussian 09:  IA32W-G09RevD.01 24-Apr-2013
                23-Dec-2024 
 ******************************************
 %nprocshared=2
 Will use up to    2 processors via shared memory.
 %mem=1GB
 %chk=C:\Users\Yash Shaw\Desktop\GaussView Work\New work\Rh doped MoS2+NO\Rh dope
 d MoS2+NO gas_Freq opt.chk
 ------------------------------------------------
 # freq pm6 guess=huckel scf=qc geom=connectivity
 ------------------------------------------------
 1/10=4,30=1,38=1,57=2/1,3;
 2/12=2,17=6,18=5,40=1/2;
 3/5=2,16=1,25=1,41=3900000,71=2,140=1/1,2,3;
 4/11=4,35=1/1;
 5/5=2,8=3,35=1,38=5,98=1/8;
 8/6=4,10=90,11=11/1;
 11/6=1,8=1,9=11,15=111,16=1/1,2,10;
 10/6=1/2;
 6/7=2,8=2,9=2,10=2,18=1,28=1/1;
 7/8=1,10=1,25=1/1,2,3,16;
 1/10=4,30=1/3;
 99//99;
 --------------------
 Rh-doped MOS2+NO gas
 --------------------
 Symbolic Z-matrix:
 Charge =  0 Multiplicity = 1
 Mo                   -1   -0.76385  -4.57347  -0.3224 
 S                    -1   -2.03698  -3.49148   1.42403 
 S                    -1   -2.77019  -4.05447  -1.5661 
 Mo                   -1    2.31892  -4.3665   -1.11728 
 Mo                   -1    5.40168  -4.15954  -1.91217 
 Mo                   -1    8.48444  -3.95257  -2.70706 
 S                    -1    1.04578  -3.28452   0.62915 
 S                    -1    4.12854  -3.07756  -0.16574 
 S                    -1    7.21131  -2.87059  -0.96063 
 S                    -1    0.31257  -3.84751  -2.36099 
 S                    -1    3.39534  -3.64054  -3.15588 
 S                    -1    6.4781   -3.43358  -3.95076 
 Mo                   -1   -2.6003   -1.96504  -0.3632 
 Mo                   -1   -4.43675   0.64339  -0.404 
 Mo                   -1   -6.2732    3.25182  -0.44481 
 S                    -1   -3.87344  -0.88306   1.38323 
 S                    -1   -5.70989   1.72537   1.34242 
 S                    -1   -7.54634   4.3338    1.30162 
 S                    -1   -4.60664  -1.44604  -1.60691 
 S                    -1   -6.44309   1.16239  -1.64771 
 S                    -1   -8.27954   3.77081  -1.68852 
 Mo                   -1    0.48246  -1.75807  -1.15809 
 Mo                   -1   -1.35399   0.85036  -1.19889 
 Mo                   -1   -3.19044   3.45878  -1.2397 
 Mo                   -1    3.56523  -1.55111  -1.95297 
 Mo                   -1   -0.10767   3.66575  -2.03458 
 Mo                   -1    6.64799  -1.34414  -2.74786 
 Mo                   -1    4.81154   1.26429  -2.78867 
 Mo                   -1    2.97509   3.87271  -2.82947 
 S                    -1   -0.79067  -0.67609   0.58834 
 S                    -1   -2.62712   1.93234   0.54754 
 S                    -1   -4.46357   4.54076   0.50673 
 S                    -1    2.29209  -0.46913  -0.20655 
 S                    -1    0.45564   2.1393   -0.24735 
 S                    -1   -1.38081   4.74773  -0.28815 
 S                    -1    5.37486  -0.26216  -1.00143 
 S                    -1    3.53841   2.34627  -1.04224 
 S                    -1    1.70196   4.95469  -1.08304 
 S                    -1   -1.52388  -1.23908  -2.40179 
 S                    -1   -3.36033   1.36935  -2.4426 
 S                    -1   -5.19678   3.97778  -2.4834 
 S                    -1    1.55889  -1.03211  -3.19668 
 S                    -1   -0.27756   1.57632  -3.23749 
 S                    -1   -2.11401   4.18474  -3.27829 
 S                    -1    4.64165  -0.82515  -3.99157 
 S                    -1    2.8052    1.78328  -4.03237 
 S                    -1    0.96875   4.39171  -4.07318 
 O                    0     0.49961   0.39836   1.23699 
 N                    0     1.55585   0.86853   0.92777 
 Rh                   -1    1.72878   1.05732  -1.99378 
 

 GradGradGradGradGradGradGradGradGradGradGradGradGradGradGradGradGradGrad
 Berny optimization.
 Initialization pass.
 Trust Radius=3.00D-01 FncErr=1.00D-07 GrdErr=1.00D-07
 Number of steps in this run=      2 maximum allowed number of steps=      2.
 GradGradGradGradGradGradGradGradGradGradGradGradGradGradGradGradGradGrad

                          Input orientation:                          
 ---------------------------------------------------------------------
 Center     Atomic      Atomic             Coordinates (Angstroms)
 Number     Number       Type             X           Y           Z
 ---------------------------------------------------------------------
      1         42           0       -0.763849   -4.573466   -0.322396
      2         16           0       -2.036984   -3.491485    1.424033
      3         16           0       -2.770190   -4.054471   -1.566102
      4         42           0        2.318915   -4.366501   -1.117283
      5         42           0        5.401679   -4.159536   -1.912170
      6         42           0        8.484443   -3.952571   -2.707057
      7         16           0        1.045780   -3.284520    0.629146
      8         16           0        4.128544   -3.077555   -0.165741
      9         16           0        7.211308   -2.870591   -0.960629
     10         16           0        0.312574   -3.847506   -2.360989
     11         16           0        3.395338   -3.640541   -3.155877
     12         16           0        6.478102   -3.433576   -3.950764
     13         42           0       -2.600300   -1.965037   -0.363200
     14         42           0       -4.436751    0.643391   -0.404004
     15         42           0       -6.273202    3.251819   -0.444809
     16         16           0       -3.873435   -0.883057    1.383228
     17         16           0       -5.709886    1.725371    1.342424
     18         16           0       -7.546337    4.333799    1.301620
     19         16           0       -4.606641   -1.446043   -1.606907
     20         16           0       -6.443092    1.162386   -1.647711
     21         16           0       -8.279543    3.770814   -1.688516
     22         42           0        0.482464   -1.758073   -1.158087
     23         42           0       -1.353987    0.850356   -1.198892
     24         42           0       -3.190438    3.458784   -1.239696
     25         42           0        3.565228   -1.551108   -1.952974
     26         42           0       -0.107673    3.665748   -2.034583
     27         42           0        6.647992   -1.344143   -2.747861
     28         42           0        4.811541    1.264285   -2.788666
     29         42           0        2.975091    3.872713   -2.829470
     30         16           0       -0.790671   -0.676092    0.588341
     31         16           0       -2.627122    1.932336    0.547537
     32         16           0       -4.463573    4.540764    0.506733
     33         16           0        2.292093   -0.469127   -0.206546
     34         16           0        0.455642    2.139301   -0.247350
     35         16           0       -1.380809    4.747729   -0.288155
     36         16           0        5.374857   -0.262162   -1.001433
     37         16           0        3.538406    2.346266   -1.042237
     38         16           0        1.701955    4.954694   -1.083042
     39         16           0       -1.523877   -1.239078   -2.401794
     40         16           0       -3.360328    1.369350   -2.442598
     41         16           0       -5.196779    3.977779   -2.483403
     42         16           0        1.558887   -1.032113   -3.196681
     43         16           0       -0.277564    1.576315   -3.237485
     44         16           0       -2.114015    4.184743   -3.278290
     45         16           0        4.641651   -0.825148   -3.991568
     46         16           0        2.805200    1.783280   -4.032372
     47         16           0        0.968749    4.391708   -4.073177
     48          8           0        0.499606    0.398360    1.236985
     49          7           0        1.555850    0.868535    0.927769
     50         45           0        1.728777    1.057320   -1.993779
 ---------------------------------------------------------------------
                    Distance matrix (angstroms):
                    1          2          3          4          5
     1  Mo   0.000000
     2  S    2.416934   0.000000
     3  S    2.416934   3.129769   0.000000
     4  Mo   3.190316   5.118378   5.118378   0.000000
     5  Mo   6.380631   8.179869   8.179869   3.190316   0.000000
     6  Mo   9.570947  11.312778  11.312778   6.380631   3.190316
     7  S    2.416934   3.190316   4.469180   2.416934   5.118378
     8  S    5.118378   6.380631   7.106892   2.416934   2.416934
     9  S    8.179869   9.570947  10.069681   5.118378   2.416934
    10  S    2.416934   4.469180   3.190316   2.416934   5.118378
    11  S    5.118378   7.106892   6.380631   2.416934   2.416934
    12  S    8.179869  10.069681   9.570947   5.118378   2.416934
    13  Mo   3.190316   2.416934   2.416934   5.525789   8.440782
    14  Mo   6.380631   5.118378   5.118378   8.440782  11.051578
    15  Mo   9.570947   8.179869   8.179869  11.502847  13.906264
    16  S    5.118378   3.190316   4.469180   7.532074  10.374137
    17  S    8.179869   6.380631   7.106892  10.374137  12.988125
    18  S   11.312778   9.570947  10.069681  13.374211  15.815066
    19  S    5.118378   4.469180   3.190316   7.532074  10.374137
    20  S    8.179869   7.106892   6.380631  10.374137  12.988125
    21  S   11.312778  10.069681   9.570947  13.374211  15.815066
    22  Mo   3.190316   4.002460   4.002460   3.190316   5.525789
    23  Mo   5.525789   5.118378   5.118378   6.380631   8.440782
    24  Mo   8.440782   7.532074   7.532074   9.570947  11.502847
    25  Mo   5.525789   6.823051   6.823051   3.190316   3.190316
    26  Mo   8.440782   8.179869   8.179869   8.440782   9.570947
    27  Mo   8.440782   9.871403   9.871403   5.525789   3.190316
    28  Mo   8.440782   9.341653   9.341653   6.380631   5.525789
    29  Mo   9.570947   9.871403   9.871403   8.440782   8.440782
    30  S    4.002460   3.190316   4.469180   5.118378   7.532074
    31  S    6.823051   5.525789   6.350574   8.179869  10.374137
    32  S    9.871403   8.440782   9.002347  11.312778  13.374211
    33  S    5.118378   5.525789   6.350574   4.002460   5.118378
    34  S    6.823051   6.380631   7.106892   6.823051   8.179869
    35  S    9.341653   8.440782   9.002347   9.871403  11.312778
    36  S    7.532074   8.440782   9.002347   5.118378   4.002460
    37  S    8.179869   8.440782   9.002347   6.823051   6.823051
    38  S    9.871403   9.570947  10.069681   9.341653   9.871403
    39  S    4.002460   4.469180   3.190316   5.118378   7.532074
    40  S    6.823051   6.350574   5.525789   8.179869  10.374137
    41  S    9.871403   9.002347   8.440782  11.312778  13.374211
    42  S    5.118378   6.350574   5.525789   4.002460   5.118378
    43  S    6.823051   7.106892   6.380631   6.823051   8.179869
    44  S    9.341653   9.002347   8.440782   9.871403  11.312778
    45  S    7.532074   9.002347   8.440782   5.118378   4.002460
    46  S    8.179869   9.002347   8.440782   6.823051   6.823051
    47  S    9.871403  10.069681   9.570947   9.341653   9.871403
    48  O    5.361626   4.647598   6.194882   5.617505   7.397426
    49  N    6.046427   5.671376   7.012132   5.671869   6.938094
    50  Rh   6.380631   6.823051   6.823051   5.525789   6.380631
                    6          7          8          9         10
     6  Mo   0.000000
     7  S    8.179869   0.000000
     8  S    5.118378   3.190316   0.000000
     9  S    2.416934   6.380631   3.190316   0.000000
    10  S    8.179869   3.129769   4.469180   7.106892   0.000000
    11  S    5.118378   4.469180   3.129769   4.469180   3.190316
    12  S    2.416934   7.106892   4.469180   3.129769   6.380631
    13  Mo  11.502847   4.002460   6.823051   9.871403   4.002460
    14  Mo  13.906264   6.823051   9.341653  12.179293   6.823051
    15  Mo  16.577367   9.871403  12.179293  14.818298   9.871403
    16  S   13.374211   5.525789   8.440782  11.502847   6.350574
    17  S   15.815066   8.440782  11.051578  13.906264   9.002347
    18  S   18.485652  11.502847  13.906264  16.577367  11.921029
    19  S   13.374211   6.350574   9.002347  11.921029   5.525789
    20  S   15.815066   9.002347  11.486201  14.254109   8.440782
    21  S   18.485652  11.921029  14.254109  16.870226  11.502847
    22  Mo   8.440782   2.416934   4.002460   6.823051   2.416934
    23  Mo  11.051578   5.118378   6.823051   9.341653   5.118378
    24  Mo  13.906264   8.179869   9.871403  12.179293   8.179869
    25  Mo   5.525789   4.002460   2.416934   4.002460   4.002460
    26  Mo  11.502847   7.532074   8.179869   9.871403   7.532074
    27  Mo   3.190316   6.823051   4.002460   2.416934   6.823051
    28  Mo   6.380631   6.823051   5.118378   5.118378   6.823051
    29  Mo   9.570947   8.179869   7.532074   8.179869   8.179869
    30  S   10.374137   3.190316   5.525789   8.440782   4.469180
    31  S   12.988125   6.380631   8.440782  11.051578   7.106892
    32  S   15.815066   9.570947  11.502847  13.906264  10.069681
    33  S    7.532074   3.190316   3.190316   5.525789   4.469180
    34  S   10.374137   5.525789   6.380631   8.440782   6.350574
    35  S   13.374211   8.440782   9.570947  11.502847   9.002347
    36  S    5.118378   5.525789   3.190316   3.190316   6.350574
    37  S    8.179869   6.380631   5.525789   6.380631   7.106892
    38  S   11.312778   8.440782   8.440782   9.570947   9.002347
    39  S   10.374137   4.469180   6.350574   9.002347   3.190316
    40  S   12.988125   7.106892   9.002347  11.486201   6.380631
    41  S   15.815066  10.069681  11.921029  14.254109   9.570947
    42  S    7.532074   4.469180   4.469180   6.350574   3.190316
    43  S   10.374137   6.350574   7.106892   9.002347   5.525789
    44  S   13.374211   9.002347  10.069681  11.921029   8.440782
    45  S    5.118378   6.350574   4.469180   4.469180   5.525789
    46  S    8.179869   7.106892   6.350574   7.106892   6.380631
    47  S   11.312778   9.002347   9.002347  10.069681   8.440782
    48  O    9.911796   3.772450   5.217166   7.782191   5.568463
    49  N    9.190236   4.194903   4.835923   7.037849   5.882407
    50  Rh   8.440782   5.118378   5.118378   6.823051   5.118378
                   11         12         13         14         15
    11  S    0.000000
    12  S    3.190316   0.000000
    13  Mo   6.823051   9.871403   0.000000
    14  Mo   9.341653  12.179293   3.190316   0.000000
    15  Mo  12.179293  14.818298   6.380631   3.190316   0.000000
    16  S    9.002347  11.921029   2.416934   2.416934   5.118378
    17  S   11.486201  14.254109   5.118378   2.416934   2.416934
    18  S   14.254109  16.870226   8.179869   5.118378   2.416934
    19  S    8.440782  11.502847   2.416934   2.416934   5.118378
    20  S   11.051578  13.906264   5.118378   2.416934   2.416934
    21  S   13.906264  16.577367   8.179869   5.118378   2.416934
    22  Mo   4.002460   6.823051   3.190316   5.525789   8.440782
    23  Mo   6.823051   9.341653   3.190316   3.190316   5.525789
    24  Mo   9.871403  12.179293   5.525789   3.190316   3.190316
    25  Mo   2.416934   4.002460   6.380631   8.440782  11.051578
    26  Mo   8.179869   9.871403   6.380631   5.525789   6.380631
    27  Mo   4.002459   2.416934   9.570947  11.502847  13.906264
    28  Mo   5.118378   5.118378   8.440782   9.570947  11.502847
    29  Mo   7.532074   8.179869   8.440782   8.440782   9.570947
    30  S    6.350574   9.002347   2.416934   4.002460   6.823051
    31  S    9.002347  11.486201   4.002460   2.416934   4.002460
    32  S   11.921029  14.254109   6.823051   4.002460   2.416934
    33  S    4.469180   6.350574   5.118378   6.823051   9.341653
    34  S    7.106892   9.002347   5.118378   5.118378   6.823051
    35  S   10.069681  11.921029   6.823051   5.118378   5.118378
    36  S    4.469180   4.469180   8.179869   9.871403  12.179293
    37  S    6.350574   7.106892   7.532074   8.179869   9.871403
    38  S    9.002347  10.069681   8.179869   7.532074   8.179869
    39  S    5.525789   8.440782   2.416934   4.002460   6.823051
    40  S    8.440782  11.051578   4.002460   2.416934   4.002460
    41  S   11.502847  13.906264   6.823051   4.002460   2.416934
    42  S    3.190316   5.525789   5.118378   6.823051   9.341653
    43  S    6.380631   8.440782   5.118378   5.118378   6.823051
    44  S    9.570947  11.502847   6.823051   5.118378   5.118378
    45  S    3.190316   3.190316   8.179869   9.871403  12.179293
    46  S    5.525789   6.380631   7.532074   8.179869   9.871403
    47  S    8.440782   9.570947   8.179869   7.532074   8.179869
    48  O    6.632889   8.794253   4.213746   5.207735   7.539336
    49  N    6.355442   8.157010   5.193199   6.142929   8.298076
    50  Rh   5.118378   6.823051   5.525789   6.380631   8.440782
                   16         17         18         19         20
    16  S    0.000000
    17  S    3.190316   0.000000
    18  S    6.380631   3.190316   0.000000
    19  S    3.129769   4.469180   7.106892   0.000000
    20  S    4.469180   3.129769   4.469180   3.190316   0.000000
    21  S    7.106892   4.469180   3.129769   6.380631   3.190316
    22  Mo   5.118378   7.532074  10.374137   5.118378   7.532074
    23  Mo   4.002460   5.118378   7.532074   4.002460   5.118378
    24  Mo   5.118378   4.002460   5.118378   5.118378   4.002460
    25  Mo   8.179869  10.374137  12.988125   8.179869  10.374137
    26  Mo   6.823051   6.823051   8.179869   6.823051   6.823051
    27  Mo  11.312778  13.374211  15.815066  11.312778  13.374211
    28  Mo   9.871403  11.312778  13.374211   9.871403  11.312778
    29  Mo   9.341653   9.871403  11.312778   9.341653   9.871403
    30  S    3.190316   5.525789   8.440782   4.469180   6.350574
    31  S    3.190316   3.190316   5.525789   4.469180   4.469180
    32  S    5.525789   3.190316   3.190316   6.350574   4.469180
    33  S    6.380631   8.440782  11.051578   7.106892   9.002347
    34  S    5.525789   6.380631   8.440782   6.350574   7.106892
    35  S    6.380631   5.525789   6.380631   7.106892   6.350574
    36  S    9.570947  11.502847  13.906264  10.069681  11.921029
    37  S    8.440782   9.570947  11.502847   9.002347  10.069681
    38  S    8.440782   8.440782   9.570947   9.002347   9.002347
    39  S    4.469180   6.350574   9.002347   3.190316   5.525789
    40  S    4.469180   4.469180   6.350574   3.190316   3.190316
    41  S    6.350574   4.469180   4.469180   5.525789   3.190316
    42  S    7.106892   9.002347  11.486201   6.380631   8.440782
    43  S    6.350574   7.106892   9.002347   5.525789   6.380631
    44  S    7.106892   6.350574   7.106892   6.380631   5.525789
    45  S   10.069681  11.921029  14.254109   9.570947  11.502847
    46  S    9.002347  10.069681  11.921029   8.440782   9.570947
    47  S    9.002347   9.002347  10.069681   8.440782   8.440782
    48  O    4.559266   6.350580   8.957067   6.128891   7.556869
    49  N    5.722993   7.327825   9.746673   7.053945   8.408479
    50  Rh   6.823051   8.179869  10.374137   6.823051   8.179869
                   21         22         23         24         25
    21  S    0.000000
    22  Mo  10.374137   0.000000
    23  Mo   7.532074   3.190316   0.000000
    24  Mo   5.118378   6.380631   3.190316   0.000000
    25  Mo  12.988125   3.190316   5.525789   8.440782   0.000000
    26  Mo   8.179869   5.525789   3.190316   3.190316   6.380631
    27  Mo  15.815066   6.380631   8.440782  11.051578   3.190316
    28  Mo  13.374211   5.525789   6.380631   8.440782   3.190316
    29  Mo  11.312778   6.380631   5.525789   6.380631   5.525789
    30  S    9.002347   2.416934   2.416934   5.118378   5.118378
    31  S    6.350574   5.118378   2.416934   2.416934   7.532074
    32  S    4.469180   8.179869   5.118378   2.416934  10.374137
    33  S   11.486201   2.416934   4.002460   6.823051   2.416934
    34  S    9.002347   4.002460   2.416934   4.002460   5.118378
    35  S    7.106892   6.823051   4.002460   2.416934   8.179869
    36  S   14.254109   5.118378   6.823051   9.341653   2.416934
    37  S   11.921029   5.118378   5.118378   6.823051   4.002460
    38  S   10.069681   6.823051   5.118378   5.118378   6.823051
    39  S    8.440782   2.416934   2.416934   5.118378   5.118378
    40  S    5.525789   5.118378   2.416934   2.416934   7.532074
    41  S    3.190316   8.179869   5.118378   2.416934  10.374137
    42  S   11.051578   2.416934   4.002460   6.823051   2.416934
    43  S    8.440782   4.002460   2.416934   4.002460   5.118378
    44  S    6.380631   6.823051   4.002460   2.416934   8.179869
    45  S   13.906264   5.118378   6.823051   9.341653   2.416934
    46  S   11.502847   5.118378   5.118378   6.823051   4.002460
    47  S    9.570947   6.823051   5.118378   5.118378   6.823051
    48  O    9.849135   3.222866   3.094124   5.395977   4.834698
    49  N   10.583153   3.521650   3.604187   5.825336   4.265086
    50  Rh  10.374137   3.190316   3.190316   5.525789   3.190316
                   26         27         28         29         30
    26  Mo   0.000000
    27  Mo   8.440782   0.000000
    28  Mo   5.525789   3.190316   0.000000
    29  Mo   3.190316   6.380631   3.190316   0.000000
    30  S    5.118378   8.179869   6.823051   6.823051   0.000000
    31  S    4.002460  10.374137   8.179869   6.823051   3.190316
    32  S    5.118378  12.988125  10.374137   8.179869   6.380631
    33  S    5.118378   5.118378   4.002460   5.118378   3.190316
    34  S    2.416934   7.532074   5.118378   4.002460   3.190316
    35  S    2.416934  10.374137   7.532074   5.118378   5.525789
    36  S    6.823051   2.416934   2.416934   5.118378   6.380631
    37  S    4.002460   5.118378   2.416934   2.416934   5.525789
    38  S    2.416934   8.179869   5.118378   2.416934   6.380631
    39  S    5.118378   8.179869   6.823051   6.823051   3.129769
    40  S    4.002460  10.374137   8.179869   6.823051   4.469180
    41  S    5.118378  12.988125  10.374137   8.179869   7.106892
    42  S    5.118378   5.118378   4.002459   5.118378   4.469180
    43  S    2.416934   7.532074   5.118378   4.002460   4.469180
    44  S    2.416934  10.374137   7.532074   5.118378   6.350574
    45  S    6.823051   2.416934   2.416934   5.118378   7.106892
    46  S    4.002460   5.118378   2.416934   2.416934   6.350574
    47  S    2.416934   8.179869   5.118378   2.416934   7.106892
    48  O    4.663451   7.531134   5.962255   5.893659   1.800000
    49  N    4.400823   6.658537   4.956615   5.015594   2.829707
    50  Rh   3.190316   5.525789   3.190316   3.190316   4.002459
                   31         32         33         34         35
    31  S    0.000000
    32  S    3.190316   0.000000
    33  S    5.525789   8.440782   0.000000
    34  S    3.190316   5.525789   3.190316   0.000000
    35  S    3.190316   3.190316   6.380631   3.190316   0.000000
    36  S    8.440782  11.051578   3.190316   5.525789   8.440782
    37  S    6.380631   8.440782   3.190316   3.190316   5.525789
    38  S    5.525789   6.380631   5.525789   3.190316   3.190316
    39  S    4.469180   7.106892   4.469180   4.469180   6.350574
    40  S    3.129769   4.469180   6.350574   4.469180   4.469180
    41  S    4.469180   3.129769   9.002347   6.350574   4.469180
    42  S    6.350574   9.002347   3.129769   4.469180   7.106892
    43  S    4.469180   6.350574   4.469180   3.129769   4.469180
    44  S    4.469180   4.469180   7.106892   4.469180   3.129769
    45  S    9.002347  11.486201   4.469180   6.350574   9.002347
    46  S    7.106892   9.002347   4.469180   4.469180   6.350574
    47  S    6.350574   7.106892   6.350574   4.469180   4.469180
    48  O    3.550331   6.505838   2.459538   2.288244   4.977853
    49  N    4.332840   7.063709   1.902121   2.050904   5.015036
    50  Rh   5.118378   7.532074   2.416934   2.416934   5.118378
                   36         37         38         39         40
    36  S    0.000000
    37  S    3.190316   0.000000
    38  S    6.380631   3.190316   0.000000
    39  S    7.106892   6.350574   7.106892   0.000000
    40  S    9.002347   7.106892   6.350574   3.190316   0.000000
    41  S   11.486201   9.002347   7.106892   6.380631   3.190316
    42  S    4.469180   4.469180   6.350574   3.190316   5.525789
    43  S    6.350574   4.469180   4.469180   3.190316   3.190316
    44  S    9.002347   6.350574   4.469180   5.525789   3.190316
    45  S    3.129769   4.469180   7.106892   6.380631   8.440782
    46  S    4.469180   3.129769   4.469180   5.525789   6.380631
    47  S    7.106892   4.469180   3.129769   6.380631   5.525789
    48  O    5.405079   4.268899   5.252461   4.473969   5.420447
    49  N    4.425507   3.161510   4.556468   5.001274   5.981555
    50  Rh   4.002460   2.416934   4.002460   4.002460   5.118378
                   41         42         43         44         45
    41  S    0.000000
    42  S    8.440782   0.000000
    43  S    5.525789   3.190316   0.000000
    44  S    3.190316   6.380631   3.190316   0.000000
    45  S   11.051578   3.190316   5.525789   8.440782   0.000000
    46  S    8.440782   3.190316   3.190316   5.525789   3.190316
    47  S    6.380631   5.525789   3.190316   3.190316   6.380631
    48  O    7.687804   4.777627   4.691744   6.446349   6.781687
    49  N    8.179333   4.541317   4.605617   6.492771   6.049017
    50  Rh   7.532074   2.416934   2.416934   5.118378   4.002460
                   46         47         48         49         50
    46  S    0.000000
    47  S    3.190316   0.000000
    48  O    5.916071   6.660687   0.000000
    49  N    5.196214   6.145478   1.196800   0.000000
    50  Rh   2.416934   4.002460   3.518938   2.932744   0.000000
 Stoichiometry    Mo15NORhS32
 Framework group  C1[X(Mo15NORhS32)]
 Deg. of freedom   144
 Full point group                 C1      NOp   1
 Largest Abelian subgroup         C1      NOp   1
 Largest concise Abelian subgroup C1      NOp   1
                         Standard orientation:                         
 ---------------------------------------------------------------------
 Center     Atomic      Atomic             Coordinates (Angstroms)
 Number     Number       Type             X           Y           Z
 ---------------------------------------------------------------------
      1         42           0       -0.793759    4.791177   -0.030118
      2         16           0        1.048419    4.789338    1.534473
      3         16           0        1.047922    4.791569   -1.595295
      4         42           0       -3.557279    3.197103   -0.030815
      5         42           0       -6.320800    1.603030   -0.031512
      6         42           0       -9.084320    0.008957   -0.032209
      7         16           0       -1.715101    3.195265    1.533776
      8         16           0       -4.478621    1.601192    1.533079
      9         16           0       -7.242142    0.007119    1.532382
     10         16           0       -1.715599    3.197496   -1.595992
     11         16           0       -4.479119    1.603423   -1.596689
     12         16           0       -7.242639    0.009349   -1.597386
     13         42           0        1.968509    3.194935   -0.031695
     14         42           0        4.730777    1.598694   -0.033272
     15         42           0        7.493045    0.002453   -0.034848
     16         16           0        3.810687    3.193097    1.532896
     17         16           0        6.572955    1.596856    1.531319
     18         16           0        9.335224    0.000614    1.529742
     19         16           0        3.810190    3.195328   -1.596872
     20         16           0        6.572458    1.599087   -1.598449
     21         16           0        9.334726    0.002845   -1.600026
     22         42           0       -0.795011    1.600862   -0.032392
     23         42           0        1.967257    0.004621   -0.033968
     24         42           0        4.729525   -1.591621   -0.035545
     25         42           0       -3.558531    0.006789   -0.033089
     26         42           0        1.966005   -3.185694   -0.036242
     27         42           0       -6.322052   -1.587285   -0.033786
     28         42           0       -3.559784   -3.183526   -0.035362
     29         42           0       -0.797515   -4.779767   -0.036939
     30         16           0        1.047167    1.599024    1.532199
     31         16           0        3.809435    0.002783    1.530622
     32         16           0        6.571703   -1.593459    1.529045
     33         16           0       -1.716353    0.004951    1.531502
     34         16           0        1.045915   -1.591291    1.529925
     35         16           0        3.808183   -3.187532    1.528349
     36         16           0       -4.479873   -1.589123    1.530805
     37         16           0       -1.717605   -3.185364    1.529228
     38         16           0        1.044663   -4.781605    1.527652
     39         16           0        1.046670    1.601255   -1.597569
     40         16           0        3.808938    0.005013   -1.599146
     41         16           0        6.571206   -1.591228   -1.600722
     42         16           0       -1.716851    0.007181   -1.598266
     43         16           0        1.045417   -1.589060   -1.599843
     44         16           0        3.807686   -3.185301   -1.601419
     45         16           0       -4.480371   -1.586892   -1.598963
     46         16           0       -1.718103   -3.183133   -1.600540
     47         16           0        1.044165   -4.779375   -1.602116
     48          8           0        0.453666    0.316135    2.646629
     49          7           0       -0.324847   -0.592131    2.682705
     50         45           0       -0.796263   -1.589453   -0.034665
 ---------------------------------------------------------------------
 Rotational constants (GHZ):      0.0263031      0.0093160      0.0074299
 Standard basis: VSTO-6G (5D, 7F)
 There are   488 symmetry adapted cartesian basis functions of A   symmetry.
 There are   440 symmetry adapted basis functions of A   symmetry.
   440 basis functions,  2928 primitive gaussians,   488 cartesian basis functions
   151 alpha electrons      151 beta electrons
       nuclear repulsion energy      4379.4797034777 Hartrees.
 Integral buffers will be    262144 words long.
 Regular integral format.
 Two-electron integral symmetry is turned off.
 Do NDO integrals.
 One-electron integrals computed using PRISM.
 NBasis=   440 RedAO= F EigKep=  0.00D+00  NBF=   440
 NBsUse=   440 1.00D-04 EigRej=  0.00D+00 NBFU=   440
 Projected New-EHT guess.
 Enter ItEHT:  IZDO=4 IZDPar=0 Conv= 1.00D-06 N=  280
 It=   1                  EEH=  91.7923492892     EQH= 0.000000000000E+00 EH=  91.7923492892    
 Keep J ints in memory in canonical form, NReq=6172560.
 Gradient too large for Newton-Raphson or scaled steepest descent --
 use steepest descent instead.
     Note:  rotation exceeds Pi/2.
     Note:  rotation exceeds Pi/2.
     Note:  rotation exceeds Pi/2.
     Note:  rotation exceeds Pi/2.
     Note:  rotation exceeds Pi/2.
     Note:  rotation exceeds Pi/2.
     Note:  rotation exceeds Pi/2.
     Accept linear search using points  9 and 10.
 Gradient too large for Newton-Raphson or scaled steepest descent --
 use steepest descent instead.
     Accept linear search using points  1 and  2.
 Gradient too large for Newton-Raphson or scaled steepest descent --
 use steepest descent instead.
     Accept linear search using points  1 and  2.
 Gradient too large for Newton-Raphson or scaled steepest descent --
 use steepest descent instead.
 Gradient too large for Newton-Raphson or scaled steepest descent --
 use steepest descent instead.
     Accept linear search using points  3 and  4.
 Gradient too large for Newton-Raphson -- use scaled steepest descent instead.
 Gradient too large for Newton-Raphson -- use scaled steepest descent instead.
     Accept linear search using points  1 and  2.
 Gradient too large for Newton-Raphson -- use scaled steepest descent instead.
     Accept linear search using points  1 and  2.
 Gradient too large for Newton-Raphson -- use scaled steepest descent instead.
 Gradient too large for Newton-Raphson -- use scaled steepest descent instead.
     Accept linear search using points  1 and  2.
 Gradient too large for Newton-Raphson -- use scaled steepest descent instead.
     Minimum is close to point  7 DX= -5.56D-03 DF= -3.85D-04 DXR=  8.01D-03 DFR=  5.64D-05 which will be used.
 Gradient too large for Newton-Raphson -- use scaled steepest descent instead.
     Minimum is close to point  3 DX= -1.07D-03 DF= -5.79D-05 DXR=  5.37D-03 DFR=  2.89D-05 which will be used.
 Gradient too large for Newton-Raphson -- use scaled steepest descent instead.
 Gradient too large for Newton-Raphson -- use scaled steepest descent instead.
 Gradient too large for Newton-Raphson -- use scaled steepest descent instead.
     Accept linear search using points  2 and  3.
 Gradient too large for Newton-Raphson -- use scaled steepest descent instead.
 Gradient too large for Newton-Raphson -- use scaled steepest descent instead.
     Minimum is close to point  2 DX= -3.50D-03 DF= -1.12D-04 DXR=  1.18D-02 DFR=  1.39D-04 which will be used.
 Gradient too large for Newton-Raphson -- use scaled steepest descent instead.
     Minimum is close to point  2 DX=  1.59D-02 DF= -9.98D-04 DXR=  3.81D-02 DFR=  1.46D-03 which will be used.
 Gradient too large for Newton-Raphson -- use scaled steepest descent instead.
     Accept linear search using points  1 and  2.
 Gradient too large for Newton-Raphson -- use scaled steepest descent instead.
     Accept linear search using points  4 and  5.
     Minimum is close to point  5 DX= -4.34D-02 DF= -7.86D-04 DXR=  1.52D-02 DFR=  3.90D-04 which will be used.
 Gradient too large for Newton-Raphson -- use scaled steepest descent instead.
 Gradient too large for Newton-Raphson -- use scaled steepest descent instead.
     Accept linear search using points  1 and  2.
 Gradient too large for Newton-Raphson -- use scaled steepest descent instead.
     Accept linear search using points  1 and  2.
 Gradient too large for Newton-Raphson -- use scaled steepest descent instead.
 Gradient too large for Newton-Raphson -- use scaled steepest descent instead.
     Minimum is close to point  3 DX= -4.27D-03 DF= -1.06D-05 DXR=  8.61D-03 DFR=  7.41D-05 which will be used.
 Gradient too large for Newton-Raphson -- use scaled steepest descent instead.
     Accept linear search using points  1 and  2.
 Gradient too large for Newton-Raphson -- use scaled steepest descent instead.
     Accept linear search using points  1 and  2.
 Gradient too large for Newton-Raphson -- use scaled steepest descent instead.
     Accept linear search using points  3 and  4.
     Minimum is close to point  4 DX= -9.48D-02 DF= -2.24D-04 DXR=  4.30D-02 DFR=  2.08D-03 which will be used.
 Gradient too large for Newton-Raphson -- use scaled steepest descent instead.
     Minimum is close to point  3 DX=  4.77D-03 DF= -1.28D-05 DXR=  1.18D-02 DFR=  1.39D-04 which will be used.
 Gradient too large for Newton-Raphson -- use scaled steepest descent instead.
 Gradient too large for Newton-Raphson -- use scaled steepest descent instead.
     Minimum is close to point  3 DX=  1.58D-02 DF= -9.70D-05 DXR=  3.79D-02 DFR=  1.44D-03 which will be used.
 Gradient too large for Newton-Raphson -- use scaled steepest descent instead.
     Accept linear search using points  3 and  4.
 Gradient too large for Newton-Raphson -- use scaled steepest descent instead.
 Gradient too large for Newton-Raphson -- use scaled steepest descent instead.
 Gradient too large for Newton-Raphson -- use scaled steepest descent instead.
     Minimum is close to point  3 DX=  1.85D-02 DF= -7.97D-05 DXR=  4.41D-02 DFR=  1.95D-03 which will be used.
 Gradient too large for Newton-Raphson -- use scaled steepest descent instead.
     Minimum is close to point  4 DX= -1.64D-01 DF= -8.66D-05 DXR=  3.97D-02 DFR=  1.65D-03 which will be used.
 Gradient too large for Newton-Raphson -- use scaled steepest descent instead.
 Gradient too large for Newton-Raphson -- use scaled steepest descent instead.
     Accept linear search using points  2 and  3.
     Minimum is close to point  3 DX= -7.83D-02 DF= -2.80D-05 DXR=  3.10D-02 DFR=  1.36D-03 which will be used.
 Gradient too large for Newton-Raphson -- use scaled steepest descent instead.
     Minimum is close to point  3 DX=  4.23D-02 DF= -1.71D-04 DXR=  9.57D-02 DFR=  9.25D-03 which will be used.
 Gradient too large for Newton-Raphson -- use scaled steepest descent instead.
     Minimum is close to point  4 DX=  3.43D-01 DF= -1.64D-04 DXR=  7.56D-02 DFR=  5.91D-03 which will be used.
 Gradient too large for Newton-Raphson -- use scaled steepest descent instead.
 Gradient too large for Newton-Raphson -- use scaled steepest descent instead.
     Accept linear search using points  1 and  2.
 Gradient too large for Newton-Raphson -- use scaled steepest descent instead.
     Accept linear search using points  1 and  2.
 Gradient too large for Newton-Raphson -- use scaled steepest descent instead.
 Gradient too large for Newton-Raphson -- use scaled steepest descent instead.
     Accept linear search using points  1 and  2.
 Gradient too large for Newton-Raphson -- use scaled steepest descent instead.
     Minimum is close to point  3 DX=  4.66D-02 DF= -3.52D-06 DXR=  2.52D-02 DFR=  6.39D-04 which will be used.
 Gradient too large for Newton-Raphson -- use scaled steepest descent instead.
     Accept linear search using points  1 and  2.
 Gradient too large for Newton-Raphson -- use scaled steepest descent instead.
     Accept linear search using points  2 and  3.
     Minimum is close to point  3 DX= -6.07D-02 DF= -4.87D-06 DXR=  3.30D-02 DFR=  1.09D-03 which will be used.
 Gradient too large for Newton-Raphson -- use scaled steepest descent instead.
     Accept linear search using points  1 and  2.
 Gradient too large for Newton-Raphson -- use scaled steepest descent instead.
 Gradient too large for Newton-Raphson -- use scaled steepest descent instead.
     Minimum is close to point  3 DX= -4.15D-02 DF= -2.89D-05 DXR=  9.05D-02 DFR=  8.27D-03 which will be used.
 Gradient too large for Newton-Raphson -- use scaled steepest descent instead.
     Minimum is close to point  2 DX=  1.04D-01 DF= -1.93D-05 DXR=  9.42D-02 DFR=  8.94D-03 which will be used.
 Gradient too large for Newton-Raphson -- use scaled steepest descent instead.
     Accept linear search using points  1 and  2.
 Gradient too large for Newton-Raphson -- use scaled steepest descent instead.
     Accept linear search using points  2 and  3.
 Gradient too large for Newton-Raphson -- use scaled steepest descent instead.
     Accept linear search using points  1 and  2.
 Gradient too large for Newton-Raphson -- use scaled steepest descent instead.
     Accept linear search using points  2 and  3.
 Gradient too large for Newton-Raphson -- use scaled steepest descent instead.
     Accept linear search using points  1 and  2.
 Gradient too large for Newton-Raphson -- use scaled steepest descent instead.
     Accept linear search using points  2 and  3.
 Gradient too large for Newton-Raphson -- use scaled steepest descent instead.
     Accept linear search using points  1 and  2.
 Gradient too large for Newton-Raphson -- use scaled steepest descent instead.
     Accept linear search using points  2 and  3.
     Minimum is close to point  3 DX= -1.08D-01 DF= -6.18D-06 DXR=  6.78D-02 DFR=  3.32D-03 which will be used.
 Gradient too large for Newton-Raphson -- use scaled steepest descent instead.
     Accept linear search using points  1 and  2.
 Gradient too large for Newton-Raphson -- use scaled steepest descent instead.
 Gradient too large for Newton-Raphson -- use scaled steepest descent instead.
     Accept linear search using points  1 and  2.
 Gradient too large for Newton-Raphson -- use scaled steepest descent instead.
     Minimum is close to point  3 DX=  1.11D-01 DF= -5.81D-06 DXR=  5.50D-02 DFR=  3.04D-03 which will be used.
 Gradient too large for Newton-Raphson -- use scaled steepest descent instead.
     Minimum is close to point  3 DX= -2.16D-02 DF= -3.51D-06 DXR=  4.52D-02 DFR=  2.04D-03 which will be used.
 Gradient too large for Newton-Raphson -- use scaled steepest descent instead.
 Gradient too large for Newton-Raphson -- use scaled steepest descent instead.
     Accept linear search using points  1 and  2.
 Gradient too large for Newton-Raphson -- use scaled steepest descent instead.
 Gradient too large for Newton-Raphson -- use scaled steepest descent instead.
     Minimum is close to point  3 DX= -3.52D-02 DF= -1.06D-05 DXR=  7.58D-02 DFR=  5.78D-03 which will be used.
 Gradient too large for Newton-Raphson -- use scaled steepest descent instead.
 Gradient too large for Newton-Raphson -- use scaled steepest descent instead.
     Accept linear search using points  1 and  2.
 Gradient too large for Newton-Raphson -- use scaled steepest descent instead.
 Gradient too large for Newton-Raphson -- use scaled steepest descent instead.
     Minimum is close to point  3 DX= -2.17D-02 DF= -3.62D-06 DXR=  4.54D-02 DFR=  2.06D-03 which will be used.
 Gradient too large for Newton-Raphson -- use scaled steepest descent instead.
 Gradient too large for Newton-Raphson -- use scaled steepest descent instead.
     Accept linear search using points  1 and  2.
 Gradient too large for Newton-Raphson -- use scaled steepest descent instead.
 Gradient too large for Newton-Raphson -- use scaled steepest descent instead.
     Minimum is close to point  3 DX= -3.58D-02 DF= -1.22D-05 DXR=  7.72D-02 DFR=  6.00D-03 which will be used.
 Gradient too large for Newton-Raphson -- use scaled steepest descent instead.
 Gradient too large for Newton-Raphson -- use scaled steepest descent instead.
     Accept linear search using points  1 and  2.
 Gradient too large for Newton-Raphson -- use scaled steepest descent instead.
     Minimum is close to point  4 DX=  2.86D-02 DF= -2.65D-07 DXR=  9.45D-03 DFR=  8.99D-05 which will be used.
 Gradient too large for Newton-Raphson -- use scaled steepest descent instead.
     Minimum is close to point  3 DX=  3.36D-02 DF= -1.76D-05 DXR=  7.74D-02 DFR=  6.03D-03 which will be used.
 Gradient too large for Newton-Raphson -- use scaled steepest descent instead.
 Gradient too large for Newton-Raphson -- use scaled steepest descent instead.
 Gradient too large for Newton-Raphson -- use scaled steepest descent instead.
     Minimum is close to point  4 DX=  4.64D-01 DF= -1.86D-05 DXR=  4.95D-02 DFR=  2.49D-03 which will be used.
 Gradient too large for Newton-Raphson -- use scaled steepest descent instead.
 Gradient too large for Newton-Raphson -- use scaled steepest descent instead.
     Minimum is close to point  2 DX= -9.92D-02 DF= -4.71D-06 DXR=  5.51D-02 DFR=  3.04D-03 which will be used.
 Gradient too large for Newton-Raphson -- use scaled steepest descent instead.
     Accept linear search using points  1 and  2.
 Gradient too large for Newton-Raphson -- use scaled steepest descent instead.
 Gradient too large for Newton-Raphson -- use scaled steepest descent instead.
     Accept linear search using points  1 and  2.
 Gradient too large for Newton-Raphson -- use scaled steepest descent instead.
 Gradient too large for Newton-Raphson -- use scaled steepest descent instead.
     Minimum is close to point  3 DX= -4.37D-02 DF= -1.04D-05 DXR=  9.58D-02 DFR=  9.27D-03 which will be used.
 Gradient too large for Newton-Raphson -- use scaled steepest descent instead.
 Gradient too large for Newton-Raphson -- use scaled steepest descent instead.
     Accept linear search using points  1 and  2.
 Gradient too large for Newton-Raphson -- use scaled steepest descent instead.
     Accept linear search using points  3 and  4.
 Gradient too large for Newton-Raphson -- use scaled steepest descent instead.
     Minimum is close to point  3 DX=  3.52D-02 DF= -7.69D-06 DXR=  8.09D-02 DFR=  6.59D-03 which will be used.
 Gradient too large for Newton-Raphson -- use scaled steepest descent instead.
     Minimum is close to point  5 DX= -5.43D-02 DF= -1.66D-07 DXR=  6.92D-03 DFR=  4.86D-05 which will be used.
 Gradient too large for Newton-Raphson -- use scaled steepest descent instead.
 Gradient too large for Newton-Raphson -- use scaled steepest descent instead.
     Minimum is close to point  4 DX= -2.48D-01 DF= -3.12D-06 DXR=  3.72D-02 DFR=  1.40D-03 which will be used.
 Gradient too large for Newton-Raphson -- use scaled steepest descent instead.
 Gradient too large for Newton-Raphson -- use scaled steepest descent instead.
     Minimum is close to point  4 DX= -4.32D-01 DF= -8.76D-06 DXR=  7.24D-02 DFR=  5.31D-03 which will be used.
 Gradient too large for Newton-Raphson -- use scaled steepest descent instead.
 Gradient too large for Newton-Raphson -- use scaled steepest descent instead.
     Accept linear search using points  2 and  3.
     Minimum is close to point  3 DX= -4.53D-02 DF= -3.28D-07 DXR=  1.48D-02 DFR=  4.21D-04 which will be used.
 Gradient too large for Newton-Raphson -- use scaled steepest descent instead.
 Gradient too large for Newton-Raphson -- use scaled steepest descent instead.
     Minimum is close to point  2 DX=  5.72D-02 DF= -7.92D-07 DXR=  4.55D-02 DFR=  2.07D-03 which will be used.
 Gradient too large for Newton-Raphson -- use scaled steepest descent instead.
     Accept linear search using points  1 and  2.
 Gradient too large for Newton-Raphson -- use scaled steepest descent instead.
     Accept linear search using points  2 and  3.
 Gradient too large for Newton-Raphson -- use scaled steepest descent instead.
     Accept linear search using points  1 and  2.
 Gradient too large for Newton-Raphson -- use scaled steepest descent instead.
     Accept linear search using points  2 and  3.
 Gradient too large for Newton-Raphson -- use scaled steepest descent instead.
     Accept linear search using points  1 and  2.
 Gradient too large for Newton-Raphson -- use scaled steepest descent instead.
 Gradient too large for Newton-Raphson -- use scaled steepest descent instead.
     Minimum is close to point  3 DX=  4.27D-02 DF= -3.99D-06 DXR=  9.64D-02 DFR=  9.38D-03 which will be used.
 Gradient too large for Newton-Raphson -- use scaled steepest descent instead.
     Minimum is close to point  5 DX=  7.58D-01 DF= -1.18D-05 DXR=  8.97D-02 DFR=  8.18D-03 which will be used.
 Gradient too large for Newton-Raphson -- use scaled steepest descent instead.
 LinEq1:  Iter=  0 NonCon=     1 RMS=1.93D-04 Max=1.82D-02 NDo=     1
 AX will form     1 AO Fock derivatives at one time.
 LinEq1:  Iter=  1 NonCon=     1 RMS=5.95D-05 Max=1.30D-03 NDo=     1
 LinEq1:  Iter=  2 NonCon=     1 RMS=6.23D-05 Max=1.25D-03 NDo=     1
 LinEq1:  Iter=  3 NonCon=     1 RMS=4.79D-05 Max=2.35D-03 NDo=     1
 LinEq1:  Iter=  4 NonCon=     1 RMS=3.96D-05 Max=1.38D-03 NDo=     1
 LinEq1:  Iter=  5 NonCon=     1 RMS=2.79D-05 Max=8.15D-04 NDo=     1
 LinEq1:  Iter=  6 NonCon=     1 RMS=3.01D-05 Max=8.56D-04 NDo=     1
 LinEq1:  Iter=  7 NonCon=     1 RMS=1.82D-05 Max=6.12D-04 NDo=     1
 LinEq1:  Iter=  8 NonCon=     1 RMS=1.72D-05 Max=5.41D-04 NDo=     1
 LinEq1:  Iter=  9 NonCon=     1 RMS=1.43D-05 Max=3.70D-04 NDo=     1
 LinEq1:  Iter= 10 NonCon=     1 RMS=1.28D-05 Max=3.19D-04 NDo=     1
 LinEq1:  Iter= 11 NonCon=     1 RMS=1.13D-05 Max=2.90D-04 NDo=     1
 LinEq1:  Iter= 12 NonCon=     1 RMS=1.06D-05 Max=2.65D-04 NDo=     1
 LinEq1:  Iter= 13 NonCon=     1 RMS=9.62D-06 Max=2.13D-04 NDo=     1
 LinEq1:  Iter= 14 NonCon=     1 RMS=8.21D-06 Max=2.43D-04 NDo=     1
 LinEq1:  Iter= 15 NonCon=     1 RMS=5.82D-06 Max=1.72D-04 NDo=     1
 LinEq1:  Iter= 16 NonCon=     1 RMS=5.18D-06 Max=1.54D-04 NDo=     1
 LinEq1:  Iter= 17 NonCon=     1 RMS=5.17D-06 Max=1.37D-04 NDo=     1
 LinEq1:  Iter= 18 NonCon=     1 RMS=4.25D-06 Max=9.70D-05 NDo=     1
 LinEq1:  Iter= 19 NonCon=     1 RMS=3.51D-06 Max=1.18D-04 NDo=     1
 LinEq1:  Iter= 20 NonCon=     1 RMS=3.46D-06 Max=7.37D-05 NDo=     1
 LinEq1:  Iter= 21 NonCon=     1 RMS=3.22D-06 Max=7.50D-05 NDo=     1
 LinEq1:  Iter= 22 NonCon=     1 RMS=2.59D-06 Max=5.87D-05 NDo=     1
 LinEq1:  Iter= 23 NonCon=     1 RMS=1.62D-06 Max=4.32D-05 NDo=     1
 LinEq1:  Iter= 24 NonCon=     1 RMS=1.04D-06 Max=2.65D-05 NDo=     1
 LinEq1:  Iter= 25 NonCon=     1 RMS=7.12D-07 Max=1.58D-05 NDo=     1
 LinEq1:  Iter= 26 NonCon=     1 RMS=5.31D-07 Max=9.74D-06 NDo=     1
 LinEq1:  Iter= 27 NonCon=     1 RMS=3.71D-07 Max=1.21D-05 NDo=     1
 LinEq1:  Iter= 28 NonCon=     1 RMS=2.72D-07 Max=5.83D-06 NDo=     1
 LinEq1:  Iter= 29 NonCon=     1 RMS=1.70D-07 Max=6.65D-06 NDo=     1
 LinEq1:  Iter= 30 NonCon=     1 RMS=1.20D-07 Max=2.34D-06 NDo=     1
 LinEq1:  Iter= 31 NonCon=     1 RMS=7.92D-08 Max=3.00D-06 NDo=     1
 LinEq1:  Iter= 32 NonCon=     1 RMS=4.55D-08 Max=1.15D-06 NDo=     1
 LinEq1:  Iter= 33 NonCon=     1 RMS=2.94D-08 Max=9.04D-07 NDo=     1
 LinEq1:  Iter= 34 NonCon=     1 RMS=2.04D-08 Max=4.07D-07 NDo=     1
 LinEq1:  Iter= 35 NonCon=     1 RMS=1.19D-08 Max=3.11D-07 NDo=     1
 LinEq1:  Iter= 36 NonCon=     0 RMS=6.49D-09 Max=1.48D-07 NDo=     1
 Linear equations converged to 2.954D-08 2.954D-07 after    36 iterations.
 Gradient too large for Newton-Raphson -- use scaled steepest descent instead.
     Accept linear search using points  1 and  2.
     Minimum is close to point  2 DX= -1.16D-01 DF= -8.19D-06 DXR=  6.91D-02 DFR=  1.00D-02 which will be used.
 Gradient too large for Newton-Raphson -- use scaled steepest descent instead.
 Gradient too large for Newton-Raphson -- use scaled steepest descent instead.
     Accept linear search using points  2 and  3.
 Gradient too large for Newton-Raphson -- use scaled steepest descent instead.
     Accept linear search using points  1 and  2.
 LinEq1:  Iter=  0 NonCon=     1 RMS=1.46D-04 Max=1.32D-02 NDo=     1
 LinEq1:  Iter=  1 NonCon=     1 RMS=1.46D-04 Max=5.09D-03 NDo=     1
 LinEq1:  Iter=  2 NonCon=     1 RMS=2.18D-05 Max=6.71D-04 NDo=     1
 LinEq1:  Iter=  3 NonCon=     1 RMS=2.44D-05 Max=8.90D-04 NDo=     1
 LinEq1:  Iter=  4 NonCon=     1 RMS=2.81D-05 Max=9.72D-04 NDo=     1
 LinEq1:  Iter=  5 NonCon=     1 RMS=1.85D-05 Max=3.86D-04 NDo=     1
 LinEq1:  Iter=  6 NonCon=     1 RMS=1.43D-05 Max=5.28D-04 NDo=     1
 LinEq1:  Iter=  7 NonCon=     1 RMS=1.56D-05 Max=5.45D-04 NDo=     1
 LinEq1:  Iter=  8 NonCon=     1 RMS=8.65D-06 Max=2.52D-04 NDo=     1
 LinEq1:  Iter=  9 NonCon=     1 RMS=6.68D-06 Max=1.51D-04 NDo=     1
 LinEq1:  Iter= 10 NonCon=     1 RMS=6.71D-06 Max=2.17D-04 NDo=     1
 LinEq1:  Iter= 11 NonCon=     1 RMS=5.60D-06 Max=1.67D-04 NDo=     1
 LinEq1:  Iter= 12 NonCon=     1 RMS=4.36D-06 Max=1.27D-04 NDo=     1
 LinEq1:  Iter= 13 NonCon=     1 RMS=3.43D-06 Max=9.05D-05 NDo=     1
 LinEq1:  Iter= 14 NonCon=     1 RMS=3.95D-06 Max=1.00D-04 NDo=     1
 LinEq1:  Iter= 15 NonCon=     1 RMS=3.16D-06 Max=9.30D-05 NDo=     1
 LinEq1:  Iter= 16 NonCon=     1 RMS=1.85D-06 Max=5.55D-05 NDo=     1
 LinEq1:  Iter= 17 NonCon=     1 RMS=1.29D-06 Max=2.66D-05 NDo=     1
 LinEq1:  Iter= 18 NonCon=     1 RMS=1.10D-06 Max=2.82D-05 NDo=     1
 LinEq1:  Iter= 19 NonCon=     1 RMS=1.23D-06 Max=3.22D-05 NDo=     1
 LinEq1:  Iter= 20 NonCon=     1 RMS=1.01D-06 Max=3.36D-05 NDo=     1
 LinEq1:  Iter= 21 NonCon=     1 RMS=6.58D-07 Max=1.92D-05 NDo=     1
 LinEq1:  Iter= 22 NonCon=     1 RMS=4.54D-07 Max=1.86D-05 NDo=     1
 LinEq1:  Iter= 23 NonCon=     1 RMS=3.49D-07 Max=1.57D-05 NDo=     1
 LinEq1:  Iter= 24 NonCon=     1 RMS=2.20D-07 Max=1.07D-05 NDo=     1
 LinEq1:  Iter= 25 NonCon=     1 RMS=1.24D-07 Max=3.61D-06 NDo=     1
 LinEq1:  Iter= 26 NonCon=     1 RMS=9.54D-08 Max=3.35D-06 NDo=     1
 LinEq1:  Iter= 27 NonCon=     1 RMS=6.23D-08 Max=1.71D-06 NDo=     1
 LinEq1:  Iter= 28 NonCon=     1 RMS=4.07D-08 Max=8.79D-07 NDo=     1
 LinEq1:  Iter= 29 NonCon=     1 RMS=2.59D-08 Max=7.65D-07 NDo=     1
 LinEq1:  Iter= 30 NonCon=     1 RMS=1.80D-08 Max=3.31D-07 NDo=     1
 LinEq1:  Iter= 31 NonCon=     1 RMS=1.13D-08 Max=3.17D-07 NDo=     1
 LinEq1:  Iter= 32 NonCon=     0 RMS=9.51D-09 Max=2.40D-07 NDo=     1
 Linear equations converged to 2.954D-08 2.954D-07 after    32 iterations.
 LinEq1:  Iter=  0 NonCon=     1 RMS=1.40D-04 Max=1.23D-02 NDo=     1
 LinEq1:  Iter=  1 NonCon=     1 RMS=1.73D-04 Max=6.21D-03 NDo=     1
 LinEq1:  Iter=  2 NonCon=     1 RMS=3.10D-05 Max=6.04D-04 NDo=     1
 LinEq1:  Iter=  3 NonCon=     1 RMS=3.33D-05 Max=1.10D-03 NDo=     1
 LinEq1:  Iter=  4 NonCon=     1 RMS=3.09D-05 Max=7.60D-04 NDo=     1
 LinEq1:  Iter=  5 NonCon=     1 RMS=2.50D-05 Max=5.95D-04 NDo=     1
 LinEq1:  Iter=  6 NonCon=     1 RMS=2.45D-05 Max=5.78D-04 NDo=     1
 LinEq1:  Iter=  7 NonCon=     1 RMS=2.35D-05 Max=7.06D-04 NDo=     1
 LinEq1:  Iter=  8 NonCon=     1 RMS=1.50D-05 Max=4.96D-04 NDo=     1
 LinEq1:  Iter=  9 NonCon=     1 RMS=1.21D-05 Max=4.08D-04 NDo=     1
 LinEq1:  Iter= 10 NonCon=     1 RMS=8.69D-06 Max=2.63D-04 NDo=     1
 LinEq1:  Iter= 11 NonCon=     1 RMS=7.59D-06 Max=2.19D-04 NDo=     1
 LinEq1:  Iter= 12 NonCon=     1 RMS=7.10D-06 Max=2.38D-04 NDo=     1
 LinEq1:  Iter= 13 NonCon=     1 RMS=5.60D-06 Max=1.22D-04 NDo=     1
 LinEq1:  Iter= 14 NonCon=     1 RMS=4.59D-06 Max=1.26D-04 NDo=     1
 LinEq1:  Iter= 15 NonCon=     1 RMS=3.48D-06 Max=9.69D-05 NDo=     1
 LinEq1:  Iter= 16 NonCon=     1 RMS=3.56D-06 Max=1.19D-04 NDo=     1
 LinEq1:  Iter= 17 NonCon=     1 RMS=3.43D-06 Max=1.24D-04 NDo=     1
 LinEq1:  Iter= 18 NonCon=     1 RMS=2.43D-06 Max=1.02D-04 NDo=     1
 LinEq1:  Iter= 19 NonCon=     1 RMS=1.80D-06 Max=6.36D-05 NDo=     1
 LinEq1:  Iter= 20 NonCon=     1 RMS=1.43D-06 Max=3.28D-05 NDo=     1
 LinEq1:  Iter= 21 NonCon=     1 RMS=1.50D-06 Max=4.52D-05 NDo=     1
 LinEq1:  Iter= 22 NonCon=     1 RMS=1.40D-06 Max=4.18D-05 NDo=     1
 LinEq1:  Iter= 23 NonCon=     1 RMS=9.76D-07 Max=3.23D-05 NDo=     1
 LinEq1:  Iter= 24 NonCon=     1 RMS=7.61D-07 Max=1.98D-05 NDo=     1
 LinEq1:  Iter= 25 NonCon=     1 RMS=5.07D-07 Max=1.56D-05 NDo=     1
 LinEq1:  Iter= 26 NonCon=     1 RMS=3.10D-07 Max=6.41D-06 NDo=     1
 LinEq1:  Iter= 27 NonCon=     1 RMS=2.49D-07 Max=5.02D-06 NDo=     1
 LinEq1:  Iter= 28 NonCon=     1 RMS=1.49D-07 Max=3.28D-06 NDo=     1
 LinEq1:  Iter= 29 NonCon=     1 RMS=8.78D-08 Max=1.63D-06 NDo=     1
 LinEq1:  Iter= 30 NonCon=     1 RMS=6.12D-08 Max=1.14D-06 NDo=     1
 LinEq1:  Iter= 31 NonCon=     1 RMS=3.18D-08 Max=7.75D-07 NDo=     1
 LinEq1:  Iter= 32 NonCon=     1 RMS=2.02D-08 Max=3.96D-07 NDo=     1
 LinEq1:  Iter= 33 NonCon=     1 RMS=1.38D-08 Max=3.53D-07 NDo=     1
 LinEq1:  Iter= 34 NonCon=     0 RMS=8.90D-09 Max=2.07D-07 NDo=     1
 Linear equations converged to 2.954D-08 2.954D-07 after    34 iterations.
     Accept linear search using points  1 and  2.
 Gradient too large for Newton-Raphson -- use scaled steepest descent instead.
     Accept linear search using points  1 and  2.
 LinEq1:  Iter=  0 NonCon=     1 RMS=6.83D-05 Max=3.58D-03 NDo=     1
 LinEq1:  Iter=  1 NonCon=     1 RMS=7.94D-05 Max=2.76D-03 NDo=     1
 LinEq1:  Iter=  2 NonCon=     1 RMS=7.71D-05 Max=3.91D-03 NDo=     1
 LinEq1:  Iter=  3 NonCon=     1 RMS=3.25D-05 Max=1.38D-03 NDo=     1
 LinEq1:  Iter=  4 NonCon=     1 RMS=3.96D-05 Max=1.27D-03 NDo=     1
 LinEq1:  Iter=  5 NonCon=     1 RMS=2.51D-05 Max=1.23D-03 NDo=     1
 LinEq1:  Iter=  6 NonCon=     1 RMS=2.49D-05 Max=1.10D-03 NDo=     1
 LinEq1:  Iter=  7 NonCon=     1 RMS=2.45D-05 Max=1.27D-03 NDo=     1
 LinEq1:  Iter=  8 NonCon=     1 RMS=1.87D-05 Max=6.56D-04 NDo=     1
 LinEq1:  Iter=  9 NonCon=     1 RMS=1.43D-05 Max=6.82D-04 NDo=     1
 LinEq1:  Iter= 10 NonCon=     1 RMS=1.37D-05 Max=3.77D-04 NDo=     1
 LinEq1:  Iter= 11 NonCon=     1 RMS=1.08D-05 Max=3.67D-04 NDo=     1
 LinEq1:  Iter= 12 NonCon=     1 RMS=9.36D-06 Max=2.51D-04 NDo=     1
 LinEq1:  Iter= 13 NonCon=     1 RMS=8.20D-06 Max=2.72D-04 NDo=     1
 LinEq1:  Iter= 14 NonCon=     1 RMS=8.39D-06 Max=3.20D-04 NDo=     1
 LinEq1:  Iter= 15 NonCon=     1 RMS=8.00D-06 Max=2.68D-04 NDo=     1
 LinEq1:  Iter= 16 NonCon=     1 RMS=5.63D-06 Max=1.88D-04 NDo=     1
 LinEq1:  Iter= 17 NonCon=     1 RMS=3.83D-06 Max=1.01D-04 NDo=     1
 LinEq1:  Iter= 18 NonCon=     1 RMS=2.93D-06 Max=7.39D-05 NDo=     1
 LinEq1:  Iter= 19 NonCon=     1 RMS=2.19D-06 Max=8.17D-05 NDo=     1
 LinEq1:  Iter= 20 NonCon=     1 RMS=2.22D-06 Max=6.22D-05 NDo=     1
 LinEq1:  Iter= 21 NonCon=     1 RMS=2.29D-06 Max=7.99D-05 NDo=     1
 LinEq1:  Iter= 22 NonCon=     1 RMS=1.81D-06 Max=5.48D-05 NDo=     1
 LinEq1:  Iter= 23 NonCon=     1 RMS=1.22D-06 Max=3.64D-05 NDo=     1
 LinEq1:  Iter= 24 NonCon=     1 RMS=8.07D-07 Max=2.57D-05 NDo=     1
 LinEq1:  Iter= 25 NonCon=     1 RMS=5.25D-07 Max=1.66D-05 NDo=     1
 LinEq1:  Iter= 26 NonCon=     1 RMS=4.35D-07 Max=1.51D-05 NDo=     1
 LinEq1:  Iter= 27 NonCon=     1 RMS=2.87D-07 Max=1.36D-05 NDo=     1
 LinEq1:  Iter= 28 NonCon=     1 RMS=1.87D-07 Max=3.15D-06 NDo=     1
 LinEq1:  Iter= 29 NonCon=     1 RMS=1.29D-07 Max=5.03D-06 NDo=     1
 LinEq1:  Iter= 30 NonCon=     1 RMS=6.89D-08 Max=1.70D-06 NDo=     1
 LinEq1:  Iter= 31 NonCon=     1 RMS=4.53D-08 Max=1.43D-06 NDo=     1
 LinEq1:  Iter= 32 NonCon=     1 RMS=3.14D-08 Max=6.47D-07 NDo=     1
 LinEq1:  Iter= 33 NonCon=     1 RMS=1.95D-08 Max=5.08D-07 NDo=     1
 LinEq1:  Iter= 34 NonCon=     0 RMS=1.05D-08 Max=2.43D-07 NDo=     1
 Linear equations converged to 2.954D-08 2.954D-07 after    34 iterations.
 LinEq1:  Iter=  0 NonCon=     1 RMS=1.01D-04 Max=3.94D-03 NDo=     1
 LinEq1:  Iter=  1 NonCon=     1 RMS=1.74D-04 Max=1.78D-02 NDo=     1
 LinEq1:  Iter=  2 NonCon=     1 RMS=1.12D-04 Max=6.37D-03 NDo=     1
 LinEq1:  Iter=  3 NonCon=     1 RMS=8.58D-05 Max=3.30D-03 NDo=     1
 LinEq1:  Iter=  4 NonCon=     1 RMS=9.23D-05 Max=4.06D-03 NDo=     1
 LinEq1:  Iter=  5 NonCon=     1 RMS=8.12D-05 Max=2.56D-03 NDo=     1
 LinEq1:  Iter=  6 NonCon=     1 RMS=6.15D-05 Max=1.87D-03 NDo=     1
 LinEq1:  Iter=  7 NonCon=     1 RMS=6.39D-05 Max=1.90D-03 NDo=     1
 LinEq1:  Iter=  8 NonCon=     1 RMS=4.90D-05 Max=1.22D-03 NDo=     1
 LinEq1:  Iter=  9 NonCon=     1 RMS=4.23D-05 Max=1.00D-03 NDo=     1
 LinEq1:  Iter= 10 NonCon=     1 RMS=3.53D-05 Max=8.14D-04 NDo=     1
 LinEq1:  Iter= 11 NonCon=     1 RMS=3.22D-05 Max=6.80D-04 NDo=     1
 LinEq1:  Iter= 12 NonCon=     1 RMS=2.88D-05 Max=6.74D-04 NDo=     1
 LinEq1:  Iter= 13 NonCon=     1 RMS=2.79D-05 Max=6.79D-04 NDo=     1
 LinEq1:  Iter= 14 NonCon=     1 RMS=2.18D-05 Max=5.87D-04 NDo=     1
 LinEq1:  Iter= 15 NonCon=     1 RMS=2.38D-05 Max=8.11D-04 NDo=     1
 LinEq1:  Iter= 16 NonCon=     1 RMS=1.58D-05 Max=5.26D-04 NDo=     1
 LinEq1:  Iter= 17 NonCon=     1 RMS=1.18D-05 Max=3.78D-04 NDo=     1
 LinEq1:  Iter= 18 NonCon=     1 RMS=8.94D-06 Max=3.74D-04 NDo=     1
 LinEq1:  Iter= 19 NonCon=     1 RMS=9.90D-06 Max=2.95D-04 NDo=     1
 LinEq1:  Iter= 20 NonCon=     1 RMS=9.11D-06 Max=3.45D-04 NDo=     1
 LinEq1:  Iter= 21 NonCon=     1 RMS=6.57D-06 Max=1.97D-04 NDo=     1
 LinEq1:  Iter= 22 NonCon=     1 RMS=4.95D-06 Max=8.49D-05 NDo=     1
 LinEq1:  Iter= 23 NonCon=     1 RMS=3.46D-06 Max=1.08D-04 NDo=     1
 LinEq1:  Iter= 24 NonCon=     1 RMS=2.39D-06 Max=4.58D-05 NDo=     1
 LinEq1:  Iter= 25 NonCon=     1 RMS=1.83D-06 Max=5.97D-05 NDo=     1
 LinEq1:  Iter= 26 NonCon=     1 RMS=1.09D-06 Max=2.75D-05 NDo=     1
 LinEq1:  Iter= 27 NonCon=     1 RMS=8.15D-07 Max=2.30D-05 NDo=     1
 LinEq1:  Iter= 28 NonCon=     1 RMS=4.95D-07 Max=1.46D-05 NDo=     1
 LinEq1:  Iter= 29 NonCon=     1 RMS=3.06D-07 Max=9.49D-06 NDo=     1
 LinEq1:  Iter= 30 NonCon=     1 RMS=2.19D-07 Max=7.31D-06 NDo=     1
 LinEq1:  Iter= 31 NonCon=     1 RMS=1.33D-07 Max=3.51D-06 NDo=     1
 LinEq1:  Iter= 32 NonCon=     1 RMS=7.50D-08 Max=2.24D-06 NDo=     1
 LinEq1:  Iter= 33 NonCon=     1 RMS=4.25D-08 Max=1.19D-06 NDo=     1
 LinEq1:  Iter= 34 NonCon=     1 RMS=3.06D-08 Max=1.02D-06 NDo=     1
 LinEq1:  Iter= 35 NonCon=     1 RMS=2.03D-08 Max=6.69D-07 NDo=     1
 LinEq1:  Iter= 36 NonCon=     1 RMS=1.07D-08 Max=3.41D-07 NDo=     1
 LinEq1:  Iter= 37 NonCon=     0 RMS=6.56D-09 Max=1.40D-07 NDo=     1
 Linear equations converged to 2.954D-08 2.954D-07 after    37 iterations.
 Incorrect curvature in search direction -- initial direction reversed.
     Accept linear search using points  3 and  4.
 Gradient too large for Newton-Raphson -- use scaled steepest descent instead.
     Accept linear search using points  2 and  3.
 Gradient too large for Newton-Raphson -- use scaled steepest descent instead.
     Minimum is close to point  2 DX=  2.85D-02 DF= -3.07D-06 DXR=  5.39D-02 DFR=  2.91D-03 which will be used.
 Gradient too large for Newton-Raphson -- use scaled steepest descent instead.
     Minimum is close to point  2 DX=  5.47D-02 DF= -5.80D-06 DXR=  8.35D-02 DFR=  7.02D-03 which will be used.
 Gradient too large for Newton-Raphson -- use scaled steepest descent instead.
     Accept linear search using points  1 and  2.
 Gradient too large for Newton-Raphson -- use scaled steepest descent instead.
     Accept linear search using points  2 and  3.
 Gradient too large for Newton-Raphson -- use scaled steepest descent instead.
     Accept linear search using points  1 and  2.
 Gradient too large for Newton-Raphson -- use scaled steepest descent instead.
     Accept linear search using points  3 and  4.
     Minimum is close to point  4 DX= -7.57D-03 DF= -1.73D-08 DXR=  3.45D-03 DFR=  1.44D-05 which will be used.
 Gradient too large for Newton-Raphson -- use scaled steepest descent instead.
     Minimum is close to point  3 DX=  2.06D-02 DF= -4.37D-06 DXR=  6.44D-02 DFR=  4.16D-03 which will be used.
 LinEq1:  Iter=  0 NonCon=     1 RMS=1.67D-04 Max=2.21D-02 NDo=     1
 LinEq1:  Iter=  1 NonCon=     1 RMS=7.64D-05 Max=2.82D-03 NDo=     1
 LinEq1:  Iter=  2 NonCon=     1 RMS=2.21D-05 Max=1.11D-03 NDo=     1
 LinEq1:  Iter=  3 NonCon=     1 RMS=9.23D-06 Max=2.76D-04 NDo=     1
 LinEq1:  Iter=  4 NonCon=     1 RMS=1.13D-05 Max=3.14D-04 NDo=     1
 LinEq1:  Iter=  5 NonCon=     1 RMS=8.51D-06 Max=1.73D-04 NDo=     1
 LinEq1:  Iter=  6 NonCon=     1 RMS=6.01D-06 Max=1.63D-04 NDo=     1
 LinEq1:  Iter=  7 NonCon=     1 RMS=5.82D-06 Max=2.20D-04 NDo=     1
 LinEq1:  Iter=  8 NonCon=     1 RMS=5.04D-06 Max=1.08D-04 NDo=     1
 LinEq1:  Iter=  9 NonCon=     1 RMS=3.53D-06 Max=1.28D-04 NDo=     1
 LinEq1:  Iter= 10 NonCon=     1 RMS=3.25D-06 Max=9.75D-05 NDo=     1
 LinEq1:  Iter= 11 NonCon=     1 RMS=2.62D-06 Max=7.86D-05 NDo=     1
 LinEq1:  Iter= 12 NonCon=     1 RMS=2.50D-06 Max=6.08D-05 NDo=     1
 LinEq1:  Iter= 13 NonCon=     1 RMS=2.08D-06 Max=4.56D-05 NDo=     1
 LinEq1:  Iter= 14 NonCon=     1 RMS=2.06D-06 Max=7.22D-05 NDo=     1
 LinEq1:  Iter= 15 NonCon=     1 RMS=1.88D-06 Max=5.18D-05 NDo=     1
 LinEq1:  Iter= 16 NonCon=     1 RMS=1.41D-06 Max=3.88D-05 NDo=     1
 LinEq1:  Iter= 17 NonCon=     1 RMS=1.22D-06 Max=3.27D-05 NDo=     1
 LinEq1:  Iter= 18 NonCon=     1 RMS=9.77D-07 Max=2.76D-05 NDo=     1
 LinEq1:  Iter= 19 NonCon=     1 RMS=8.96D-07 Max=2.66D-05 NDo=     1
 LinEq1:  Iter= 20 NonCon=     1 RMS=5.74D-07 Max=2.06D-05 NDo=     1
 LinEq1:  Iter= 21 NonCon=     1 RMS=4.53D-07 Max=1.24D-05 NDo=     1
 LinEq1:  Iter= 22 NonCon=     1 RMS=3.08D-07 Max=1.33D-05 NDo=     1
 LinEq1:  Iter= 23 NonCon=     1 RMS=1.96D-07 Max=6.52D-06 NDo=     1
 LinEq1:  Iter= 24 NonCon=     1 RMS=1.44D-07 Max=2.66D-06 NDo=     1
 LinEq1:  Iter= 25 NonCon=     1 RMS=9.63D-08 Max=3.04D-06 NDo=     1
 LinEq1:  Iter= 26 NonCon=     1 RMS=6.66D-08 Max=1.39D-06 NDo=     1
 LinEq1:  Iter= 27 NonCon=     1 RMS=4.54D-08 Max=1.09D-06 NDo=     1
 LinEq1:  Iter= 28 NonCon=     1 RMS=3.04D-08 Max=6.53D-07 NDo=     1
 LinEq1:  Iter= 29 NonCon=     1 RMS=1.92D-08 Max=5.56D-07 NDo=     1
 LinEq1:  Iter= 30 NonCon=     0 RMS=1.16D-08 Max=2.31D-07 NDo=     1
 Linear equations converged to 2.954D-08 2.954D-07 after    30 iterations.
 LinEq1:  Iter=  0 NonCon=     1 RMS=1.14D-04 Max=1.21D-02 NDo=     1
 LinEq1:  Iter=  1 NonCon=     1 RMS=7.14D-05 Max=1.97D-03 NDo=     1
 LinEq1:  Iter=  2 NonCon=     1 RMS=4.88D-05 Max=1.63D-03 NDo=     1
 LinEq1:  Iter=  3 NonCon=     1 RMS=5.46D-05 Max=1.68D-03 NDo=     1
 LinEq1:  Iter=  4 NonCon=     1 RMS=3.32D-05 Max=8.55D-04 NDo=     1
 LinEq1:  Iter=  5 NonCon=     1 RMS=3.14D-05 Max=9.46D-04 NDo=     1
 LinEq1:  Iter=  6 NonCon=     1 RMS=3.04D-05 Max=1.06D-03 NDo=     1
 LinEq1:  Iter=  7 NonCon=     1 RMS=2.05D-05 Max=4.81D-04 NDo=     1
 LinEq1:  Iter=  8 NonCon=     1 RMS=1.66D-05 Max=4.31D-04 NDo=     1
 LinEq1:  Iter=  9 NonCon=     1 RMS=1.53D-05 Max=5.39D-04 NDo=     1
 LinEq1:  Iter= 10 NonCon=     1 RMS=1.40D-05 Max=4.38D-04 NDo=     1
 LinEq1:  Iter= 11 NonCon=     1 RMS=1.28D-05 Max=3.70D-04 NDo=     1
 LinEq1:  Iter= 12 NonCon=     1 RMS=1.24D-05 Max=4.06D-04 NDo=     1
 LinEq1:  Iter= 13 NonCon=     1 RMS=9.37D-06 Max=2.13D-04 NDo=     1
 LinEq1:  Iter= 14 NonCon=     1 RMS=8.28D-06 Max=1.80D-04 NDo=     1
 LinEq1:  Iter= 15 NonCon=     1 RMS=6.19D-06 Max=2.16D-04 NDo=     1
 LinEq1:  Iter= 16 NonCon=     1 RMS=6.40D-06 Max=1.68D-04 NDo=     1
 LinEq1:  Iter= 17 NonCon=     1 RMS=5.63D-06 Max=1.60D-04 NDo=     1
 LinEq1:  Iter= 18 NonCon=     1 RMS=4.95D-06 Max=1.56D-04 NDo=     1
 LinEq1:  Iter= 19 NonCon=     1 RMS=4.20D-06 Max=7.39D-05 NDo=     1
 LinEq1:  Iter= 20 NonCon=     1 RMS=3.76D-06 Max=7.97D-05 NDo=     1
 LinEq1:  Iter= 21 NonCon=     1 RMS=3.03D-06 Max=5.35D-05 NDo=     1
 LinEq1:  Iter= 22 NonCon=     1 RMS=2.11D-06 Max=6.07D-05 NDo=     1
 LinEq1:  Iter= 23 NonCon=     1 RMS=1.51D-06 Max=3.51D-05 NDo=     1
 LinEq1:  Iter= 24 NonCon=     1 RMS=9.57D-07 Max=2.03D-05 NDo=     1
 LinEq1:  Iter= 25 NonCon=     1 RMS=5.54D-07 Max=1.39D-05 NDo=     1
 LinEq1:  Iter= 26 NonCon=     1 RMS=4.39D-07 Max=9.82D-06 NDo=     1
 LinEq1:  Iter= 27 NonCon=     1 RMS=2.64D-07 Max=6.82D-06 NDo=     1
 LinEq1:  Iter= 28 NonCon=     1 RMS=1.64D-07 Max=4.48D-06 NDo=     1
 LinEq1:  Iter= 29 NonCon=     1 RMS=1.20D-07 Max=2.61D-06 NDo=     1
 LinEq1:  Iter= 30 NonCon=     1 RMS=6.85D-08 Max=1.64D-06 NDo=     1
 LinEq1:  Iter= 31 NonCon=     1 RMS=4.08D-08 Max=7.23D-07 NDo=     1
 LinEq1:  Iter= 32 NonCon=     1 RMS=2.66D-08 Max=8.00D-07 NDo=     1
 LinEq1:  Iter= 33 NonCon=     1 RMS=1.58D-08 Max=4.71D-07 NDo=     1
 LinEq1:  Iter= 34 NonCon=     0 RMS=1.13D-08 Max=2.71D-07 NDo=     1
 Linear equations converged to 2.954D-08 2.954D-07 after    34 iterations.
 LinEq1:  Iter=  0 NonCon=     1 RMS=1.11D-04 Max=9.39D-03 NDo=     1
 LinEq1:  Iter=  1 NonCon=     1 RMS=1.21D-04 Max=4.35D-03 NDo=     1
 LinEq1:  Iter=  2 NonCon=     1 RMS=7.97D-05 Max=2.56D-03 NDo=     1
 LinEq1:  Iter=  3 NonCon=     1 RMS=7.93D-05 Max=1.94D-03 NDo=     1
 LinEq1:  Iter=  4 NonCon=     1 RMS=5.63D-05 Max=1.28D-03 NDo=     1
 LinEq1:  Iter=  5 NonCon=     1 RMS=5.95D-05 Max=1.98D-03 NDo=     1
 LinEq1:  Iter=  6 NonCon=     1 RMS=4.78D-05 Max=1.15D-03 NDo=     1
 LinEq1:  Iter=  7 NonCon=     1 RMS=3.65D-05 Max=8.94D-04 NDo=     1
 LinEq1:  Iter=  8 NonCon=     1 RMS=3.18D-05 Max=1.03D-03 NDo=     1
 LinEq1:  Iter=  9 NonCon=     1 RMS=2.60D-05 Max=8.80D-04 NDo=     1
 LinEq1:  Iter= 10 NonCon=     1 RMS=1.72D-05 Max=4.90D-04 NDo=     1
 LinEq1:  Iter= 11 NonCon=     1 RMS=1.29D-05 Max=2.54D-04 NDo=     1
 LinEq1:  Iter= 12 NonCon=     1 RMS=1.43D-05 Max=3.44D-04 NDo=     1
 LinEq1:  Iter= 13 NonCon=     1 RMS=1.21D-05 Max=4.06D-04 NDo=     1
 LinEq1:  Iter= 14 NonCon=     1 RMS=1.01D-05 Max=2.69D-04 NDo=     1
 LinEq1:  Iter= 15 NonCon=     1 RMS=6.30D-06 Max=1.75D-04 NDo=     1
 LinEq1:  Iter= 16 NonCon=     1 RMS=6.04D-06 Max=1.53D-04 NDo=     1
 LinEq1:  Iter= 17 NonCon=     1 RMS=5.59D-06 Max=1.50D-04 NDo=     1
 LinEq1:  Iter= 18 NonCon=     1 RMS=5.47D-06 Max=1.08D-04 NDo=     1
 LinEq1:  Iter= 19 NonCon=     1 RMS=3.69D-06 Max=7.43D-05 NDo=     1
 LinEq1:  Iter= 20 NonCon=     1 RMS=3.12D-06 Max=6.23D-05 NDo=     1
 LinEq1:  Iter= 21 NonCon=     1 RMS=2.64D-06 Max=4.54D-05 NDo=     1
 LinEq1:  Iter= 22 NonCon=     1 RMS=2.24D-06 Max=4.67D-05 NDo=     1
 LinEq1:  Iter= 23 NonCon=     1 RMS=1.52D-06 Max=4.22D-05 NDo=     1
 LinEq1:  Iter= 24 NonCon=     1 RMS=9.83D-07 Max=2.53D-05 NDo=     1
 LinEq1:  Iter= 25 NonCon=     1 RMS=5.86D-07 Max=1.60D-05 NDo=     1
 LinEq1:  Iter= 26 NonCon=     1 RMS=3.81D-07 Max=7.39D-06 NDo=     1
 LinEq1:  Iter= 27 NonCon=     1 RMS=2.47D-07 Max=5.76D-06 NDo=     1
 LinEq1:  Iter= 28 NonCon=     1 RMS=1.48D-07 Max=3.66D-06 NDo=     1
 LinEq1:  Iter= 29 NonCon=     1 RMS=9.33D-08 Max=2.30D-06 NDo=     1
 LinEq1:  Iter= 30 NonCon=     1 RMS=6.55D-08 Max=1.49D-06 NDo=     1
 LinEq1:  Iter= 31 NonCon=     1 RMS=4.28D-08 Max=9.57D-07 NDo=     1
 LinEq1:  Iter= 32 NonCon=     1 RMS=2.59D-08 Max=5.32D-07 NDo=     1
 LinEq1:  Iter= 33 NonCon=     1 RMS=1.78D-08 Max=3.49D-07 NDo=     1
 LinEq1:  Iter= 34 NonCon=     0 RMS=1.25D-08 Max=2.26D-07 NDo=     1
 Linear equations converged to 2.954D-08 2.954D-07 after    34 iterations.
 Incorrect curvature in search direction -- initial direction reversed.
 LinEq1:  Iter=  0 NonCon=     1 RMS=1.18D-04 Max=9.99D-03 NDo=     1
 LinEq1:  Iter=  1 NonCon=     1 RMS=1.30D-04 Max=4.71D-03 NDo=     1
 LinEq1:  Iter=  2 NonCon=     1 RMS=8.61D-05 Max=2.77D-03 NDo=     1
 LinEq1:  Iter=  3 NonCon=     1 RMS=8.58D-05 Max=2.02D-03 NDo=     1
 LinEq1:  Iter=  4 NonCon=     1 RMS=6.05D-05 Max=1.24D-03 NDo=     1
 LinEq1:  Iter=  5 NonCon=     1 RMS=6.45D-05 Max=2.38D-03 NDo=     1
 LinEq1:  Iter=  6 NonCon=     1 RMS=5.23D-05 Max=1.29D-03 NDo=     1
 LinEq1:  Iter=  7 NonCon=     1 RMS=4.04D-05 Max=1.02D-03 NDo=     1
 LinEq1:  Iter=  8 NonCon=     1 RMS=3.48D-05 Max=1.15D-03 NDo=     1
 LinEq1:  Iter=  9 NonCon=     1 RMS=2.86D-05 Max=9.60D-04 NDo=     1
 LinEq1:  Iter= 10 NonCon=     1 RMS=1.91D-05 Max=5.01D-04 NDo=     1
 LinEq1:  Iter= 11 NonCon=     1 RMS=1.67D-05 Max=3.30D-04 NDo=     1
 LinEq1:  Iter= 12 NonCon=     1 RMS=1.74D-05 Max=4.07D-04 NDo=     1
 LinEq1:  Iter= 13 NonCon=     1 RMS=1.40D-05 Max=4.52D-04 NDo=     1
 LinEq1:  Iter= 14 NonCon=     1 RMS=1.11D-05 Max=2.97D-04 NDo=     1
 LinEq1:  Iter= 15 NonCon=     1 RMS=7.27D-06 Max=1.84D-04 NDo=     1
 LinEq1:  Iter= 16 NonCon=     1 RMS=7.75D-06 Max=2.34D-04 NDo=     1
 LinEq1:  Iter= 17 NonCon=     1 RMS=6.40D-06 Max=1.68D-04 NDo=     1
 LinEq1:  Iter= 18 NonCon=     1 RMS=6.29D-06 Max=1.32D-04 NDo=     1
 LinEq1:  Iter= 19 NonCon=     1 RMS=4.31D-06 Max=8.35D-05 NDo=     1
 LinEq1:  Iter= 20 NonCon=     1 RMS=4.34D-06 Max=8.60D-05 NDo=     1
 LinEq1:  Iter= 21 NonCon=     1 RMS=3.17D-06 Max=6.57D-05 NDo=     1
 LinEq1:  Iter= 22 NonCon=     1 RMS=2.48D-06 Max=4.60D-05 NDo=     1
 LinEq1:  Iter= 23 NonCon=     1 RMS=1.54D-06 Max=4.21D-05 NDo=     1
 LinEq1:  Iter= 24 NonCon=     1 RMS=9.52D-07 Max=2.38D-05 NDo=     1
 LinEq1:  Iter= 25 NonCon=     1 RMS=6.08D-07 Max=1.48D-05 NDo=     1
 LinEq1:  Iter= 26 NonCon=     1 RMS=3.74D-07 Max=7.35D-06 NDo=     1
 LinEq1:  Iter= 27 NonCon=     1 RMS=2.47D-07 Max=5.55D-06 NDo=     1
 LinEq1:  Iter= 28 NonCon=     1 RMS=1.42D-07 Max=3.50D-06 NDo=     1
 LinEq1:  Iter= 29 NonCon=     1 RMS=8.79D-08 Max=2.01D-06 NDo=     1
 LinEq1:  Iter= 30 NonCon=     1 RMS=6.26D-08 Max=1.54D-06 NDo=     1
 LinEq1:  Iter= 31 NonCon=     1 RMS=3.69D-08 Max=8.14D-07 NDo=     1
 LinEq1:  Iter= 32 NonCon=     1 RMS=2.14D-08 Max=4.16D-07 NDo=     1
 LinEq1:  Iter= 33 NonCon=     0 RMS=1.35D-08 Max=2.82D-07 NDo=     1
 Linear equations converged to 2.954D-08 2.954D-07 after    33 iterations.
 Incorrect curvature in search direction -- initial direction reversed.
 LinEq1:  Iter=  0 NonCon=     1 RMS=1.20D-04 Max=1.01D-02 NDo=     1
 LinEq1:  Iter=  1 NonCon=     1 RMS=1.32D-04 Max=4.74D-03 NDo=     1
 LinEq1:  Iter=  2 NonCon=     1 RMS=8.75D-05 Max=2.78D-03 NDo=     1
 LinEq1:  Iter=  3 NonCon=     1 RMS=8.72D-05 Max=2.02D-03 NDo=     1
 LinEq1:  Iter=  4 NonCon=     1 RMS=6.13D-05 Max=1.25D-03 NDo=     1
 LinEq1:  Iter=  5 NonCon=     1 RMS=6.56D-05 Max=2.48D-03 NDo=     1
 LinEq1:  Iter=  6 NonCon=     1 RMS=5.33D-05 Max=1.36D-03 NDo=     1
 LinEq1:  Iter=  7 NonCon=     1 RMS=4.12D-05 Max=1.04D-03 NDo=     1
 LinEq1:  Iter=  8 NonCon=     1 RMS=3.54D-05 Max=1.17D-03 NDo=     1
 LinEq1:  Iter=  9 NonCon=     1 RMS=2.91D-05 Max=9.60D-04 NDo=     1
 LinEq1:  Iter= 10 NonCon=     1 RMS=1.94D-05 Max=4.91D-04 NDo=     1
 LinEq1:  Iter= 11 NonCon=     1 RMS=1.72D-05 Max=3.24D-04 NDo=     1
 LinEq1:  Iter= 12 NonCon=     1 RMS=1.76D-05 Max=4.03D-04 NDo=     1
 LinEq1:  Iter= 13 NonCon=     1 RMS=1.42D-05 Max=4.53D-04 NDo=     1
 LinEq1:  Iter= 14 NonCon=     1 RMS=1.12D-05 Max=3.02D-04 NDo=     1
 LinEq1:  Iter= 15 NonCon=     1 RMS=7.46D-06 Max=1.80D-04 NDo=     1
 LinEq1:  Iter= 16 NonCon=     1 RMS=8.04D-06 Max=2.49D-04 NDo=     1
 LinEq1:  Iter= 17 NonCon=     1 RMS=6.49D-06 Max=1.66D-04 NDo=     1
 LinEq1:  Iter= 18 NonCon=     1 RMS=6.43D-06 Max=1.32D-04 NDo=     1
 LinEq1:  Iter= 19 NonCon=     1 RMS=4.48D-06 Max=8.28D-05 NDo=     1
 LinEq1:  Iter= 20 NonCon=     1 RMS=4.59D-06 Max=9.17D-05 NDo=     1
 LinEq1:  Iter= 21 NonCon=     1 RMS=3.22D-06 Max=7.03D-05 NDo=     1
 LinEq1:  Iter= 22 NonCon=     1 RMS=2.50D-06 Max=4.63D-05 NDo=     1
 LinEq1:  Iter= 23 NonCon=     1 RMS=1.54D-06 Max=4.09D-05 NDo=     1
 LinEq1:  Iter= 24 NonCon=     1 RMS=9.43D-07 Max=2.29D-05 NDo=     1
 LinEq1:  Iter= 25 NonCon=     1 RMS=6.08D-07 Max=1.37D-05 NDo=     1
 LinEq1:  Iter= 26 NonCon=     1 RMS=3.70D-07 Max=7.47D-06 NDo=     1
 LinEq1:  Iter= 27 NonCon=     1 RMS=2.45D-07 Max=5.52D-06 NDo=     1
 LinEq1:  Iter= 28 NonCon=     1 RMS=1.39D-07 Max=3.53D-06 NDo=     1
 LinEq1:  Iter= 29 NonCon=     1 RMS=8.71D-08 Max=2.17D-06 NDo=     1
 LinEq1:  Iter= 30 NonCon=     1 RMS=6.22D-08 Max=1.49D-06 NDo=     1
 LinEq1:  Iter= 31 NonCon=     1 RMS=3.56D-08 Max=7.57D-07 NDo=     1
 LinEq1:  Iter= 32 NonCon=     1 RMS=2.11D-08 Max=3.73D-07 NDo=     1
 LinEq1:  Iter= 33 NonCon=     0 RMS=1.35D-08 Max=2.82D-07 NDo=     1
 Linear equations converged to 2.954D-08 2.954D-07 after    33 iterations.
 Incorrect curvature in search direction -- initial direction reversed.
 Gradient too large for Newton-Raphson -- use scaled steepest descent instead.
     Accept linear search using points  1 and  2.
 Gradient too large for Newton-Raphson -- use scaled steepest descent instead.
     Minimum is close to point  2 DX=  7.94D-03 DF= -5.98D-08 DXR=  1.56D-02 DFR=  2.44D-04 which will be used.
 LinEq1:  Iter=  0 NonCon=     1 RMS=1.14D-04 Max=9.20D-03 NDo=     1
 LinEq1:  Iter=  1 NonCon=     1 RMS=1.73D-04 Max=7.93D-03 NDo=     1
 LinEq1:  Iter=  2 NonCon=     1 RMS=5.29D-05 Max=1.78D-03 NDo=     1
 LinEq1:  Iter=  3 NonCon=     1 RMS=6.06D-05 Max=1.40D-03 NDo=     1
 LinEq1:  Iter=  4 NonCon=     1 RMS=3.06D-05 Max=5.85D-04 NDo=     1
 LinEq1:  Iter=  5 NonCon=     1 RMS=3.43D-05 Max=1.05D-03 NDo=     1
 LinEq1:  Iter=  6 NonCon=     1 RMS=1.59D-05 Max=4.19D-04 NDo=     1
 LinEq1:  Iter=  7 NonCon=     1 RMS=1.89D-05 Max=4.48D-04 NDo=     1
 LinEq1:  Iter=  8 NonCon=     1 RMS=1.36D-05 Max=3.15D-04 NDo=     1
 LinEq1:  Iter=  9 NonCon=     1 RMS=1.31D-05 Max=2.64D-04 NDo=     1
 LinEq1:  Iter= 10 NonCon=     1 RMS=1.15D-05 Max=1.91D-04 NDo=     1
 LinEq1:  Iter= 11 NonCon=     1 RMS=9.68D-06 Max=2.18D-04 NDo=     1
 LinEq1:  Iter= 12 NonCon=     1 RMS=7.87D-06 Max=1.44D-04 NDo=     1
 LinEq1:  Iter= 13 NonCon=     1 RMS=6.39D-06 Max=1.51D-04 NDo=     1
 LinEq1:  Iter= 14 NonCon=     1 RMS=5.52D-06 Max=1.59D-04 NDo=     1
 LinEq1:  Iter= 15 NonCon=     1 RMS=3.94D-06 Max=7.73D-05 NDo=     1
 LinEq1:  Iter= 16 NonCon=     1 RMS=3.03D-06 Max=6.63D-05 NDo=     1
 LinEq1:  Iter= 17 NonCon=     1 RMS=2.07D-06 Max=5.07D-05 NDo=     1
 LinEq1:  Iter= 18 NonCon=     1 RMS=1.52D-06 Max=3.31D-05 NDo=     1
 LinEq1:  Iter= 19 NonCon=     1 RMS=1.03D-06 Max=2.38D-05 NDo=     1
 LinEq1:  Iter= 20 NonCon=     1 RMS=9.54D-07 Max=2.23D-05 NDo=     1
 LinEq1:  Iter= 21 NonCon=     1 RMS=9.59D-07 Max=2.71D-05 NDo=     1
 LinEq1:  Iter= 22 NonCon=     1 RMS=6.18D-07 Max=1.59D-05 NDo=     1
 LinEq1:  Iter= 23 NonCon=     1 RMS=3.99D-07 Max=8.99D-06 NDo=     1
 LinEq1:  Iter= 24 NonCon=     1 RMS=2.76D-07 Max=5.71D-06 NDo=     1
 LinEq1:  Iter= 25 NonCon=     1 RMS=1.64D-07 Max=2.76D-06 NDo=     1
 LinEq1:  Iter= 26 NonCon=     1 RMS=1.12D-07 Max=1.99D-06 NDo=     1
 LinEq1:  Iter= 27 NonCon=     1 RMS=8.22D-08 Max=1.35D-06 NDo=     1
 LinEq1:  Iter= 28 NonCon=     1 RMS=5.02D-08 Max=1.18D-06 NDo=     1
[...]
 0.,0.,0.,0.,0.,0.,0.,0.,0.,0.,0.,0.,0.,0.,0.,0.,0.,0.,0.,0.,0.,0.,0.,0
 .,0.,0.,0.,0.,0.,0.,0.,0.,0.,0.,0.,0.,0.,0.,0.,0.,0.,0.,0.,0.,0.,0.,0.
 ,0.,0.,0.,0.,0.,0.,0.,0.,0.,0.,0.,0.,0.,0.,0.,0.,0.,0.,0.,0.,0.,0.,0.,
 0.,0.,0.,0.,0.,0.,0.,0.,0.,0.,0.,0.,0.,0.,0.,0.,0.,0.,0.,0.,0.,0.,0.,0
 .,0.,0.,0.,0.,0.,0.,0.,0.,0.,0.,0.,0.,0.,0.,0.,0.,0.,0.,0.,0.,0.,0.,0.
 ,0.,0.,0.,0.,0.,0.,0.,0.,0.,0.,0.,0.,0.,0.,0.,0.,0.,0.,0.,0.,0.,0.,0.,
 0.,0.,0.,0.,0.,0.,0.,0.,0.,0.,0.,0.,0.,0.,0.,0.,0.,0.,0.,0.,0.,0.,0.,0
 .,0.,0.,0.,0.,0.,0.,0.,0.,0.,0.,0.,0.,0.,0.,0.,0.,0.,0.,0.,0.,0.,0.,0.
 ,0.,0.,0.,0.,0.,0.,0.,0.,0.,0.,0.,0.,0.,0.,0.,0.,0.,0.,0.,0.,0.,0.,0.,
 0.,0.,0.,0.,0.,0.,0.,0.,0.,0.,0.,0.,0.,0.,0.,0.,0.,0.,0.,0.,0.,0.,0.,0
 .,0.,0.,0.,0.,0.,0.,0.,0.,0.,0.,0.,0.,0.,0.,0.,0.,0.,0.,0.,0.,0.,0.,0.
 ,0.,0.,0.,0.,0.,0.,0.,0.,0.,0.,0.,0.,0.,0.,0.,0.,0.,0.,0.,0.,0.,0.,0.,
 0.,0.,0.,0.,0.,0.,0.,0.,0.,0.,0.,0.,0.,0.,0.,0.,0.,0.,0.,0.,0.,0.,0.,0
 .,0.,0.,0.,0.,0.,0.,0.,0.,0.,0.,0.,0.,0.,0.,0.,0.,0.,0.,0.,0.,0.,0.,0.
 ,0.,0.,0.,0.,0.,0.,0.,0.,0.,0.,0.,0.,0.,0.,0.,0.,0.,0.,0.,0.,0.,0.,0.,
 0.,0.,0.,0.,0.,0.,0.,0.,0.,0.,0.,0.,0.,0.,0.,0.,0.,0.,0.,0.,0.,0.,0.,0
 .,0.,0.,0.,0.,0.,0.,0.,0.,0.,0.,0.,0.,0.,0.,0.,0.,0.,0.,0.,0.,0.,0.,0.
 ,0.,0.,0.,0.,0.,0.,0.,0.,0.,0.,0.,0.,0.,0.,0.,0.,0.,0.,0.,0.,0.,0.,0.,
 0.,0.,0.,0.,0.,0.,0.,0.,0.,0.,0.,0.,0.,0.,0.,0.,0.,0.,0.,0.,0.,0.,0.,0
 .,0.,0.,0.,0.,0.,0.,0.,0.,0.,0.,0.,0.,0.,0.,0.,0.,0.,0.,0.,0.,0.,0.,0.
 ,0.,0.,0.,0.,0.,0.,0.,0.,0.,0.,0.,0.,0.,0.,0.,0.,0.,0.,0.,0.,0.,0.,0.,
 0.,0.,0.,0.,0.,0.,0.,0.,0.,0.,0.,0.,0.,0.,0.,0.,0.,0.,0.,0.,0.,0.,0.,0
 .,0.,0.,0.,0.,0.,0.,0.,0.,0.,0.,0.,0.,0.,0.,0.,0.,0.,0.,0.,0.,0.,0.,0.
 ,0.,0.,0.,0.,0.,0.,0.,0.,0.,0.,0.,0.,0.,0.,0.,0.,0.,0.,0.,0.,0.,0.,0.,
 0.,0.,0.,0.,0.,0.,0.,0.,0.,0.,0.,0.,0.,0.,0.,0.,0.,0.,0.,0.,0.,0.,0.,0
 .,0.,0.,0.,0.,0.,0.,0.,0.,0.,0.,0.,0.,0.,0.,0.,0.,0.,0.,0.,0.,0.,0.,0.
 ,0.,0.,0.,0.,0.,0.,0.,0.,0.,0.,0.,0.,0.,0.,0.,0.,0.,0.,0.,0.,0.,0.,0.,
 0.,0.,0.,0.,0.,0.,0.,0.,0.,0.,0.,0.,0.,0.,0.,0.,0.,0.,0.,0.,0.,0.,0.,0
 .,0.,0.,0.,0.,0.,0.,0.,0.,0.,0.,0.,0.,0.,0.,0.,0.,0.,0.,0.,0.,0.,0.,0.
 ,0.,0.,0.,0.,0.,0.,0.,0.,0.,0.,0.,0.,0.,0.,0.,0.,0.,0.,0.,0.,0.,0.,0.,
 0.,0.,0.,0.,0.,0.,0.,0.,0.,0.,0.,0.,0.,0.,0.,0.,0.,0.,0.,0.,0.,0.,0.,0
 .,0.,0.,0.,0.,0.,0.,0.,0.,0.,0.,0.,0.,0.,0.,0.,0.,0.,0.,0.,0.,0.,0.,0.
 ,0.,0.,0.,0.,0.,0.,0.,0.,0.,0.,0.,0.,0.,0.,0.,0.,0.,0.,0.,0.,0.,0.,0.,
 0.,0.,0.,0.,0.,0.,0.,0.,0.,0.,0.,0.,0.,0.,0.,0.,0.,0.,0.,0.,0.,0.,0.,0
 .,0.,0.,0.,0.,0.,0.,0.,0.,0.,0.,0.,0.,0.,0.,0.,0.,0.,0.,0.,0.,0.,0.,0.
 ,0.,0.,0.,0.,0.,0.,0.,0.,0.,0.,0.,0.,0.,0.,0.,0.,0.,0.,0.,0.,0.,0.,0.,
 0.,0.,0.,0.,0.,0.,0.,0.,0.,0.,0.,0.,0.,0.,0.,0.,0.,0.,0.,0.,0.,0.,0.,0
 .,0.,0.,0.,0.,0.,0.,0.,0.,0.,0.,0.,0.,0.,0.,0.,0.,0.,0.,0.,0.,0.,0.,0.
 ,0.,0.,0.,0.,0.,0.,0.,0.,0.,0.,0.,0.,0.,0.,0.,0.,0.,0.,0.,0.,0.,0.,0.,
 0.,0.,0.,0.,0.,0.,0.,0.,0.,0.,0.,0.,0.,0.,0.,0.,0.,0.,0.,0.,0.,0.,0.,0
 .,0.,0.,0.,0.,0.,0.,0.,0.,0.,0.,0.,0.,0.,0.,0.,0.,0.,0.,0.,0.,0.,0.,0.
 ,0.,0.,0.,0.,0.,0.,0.,0.,0.,0.,0.,0.,0.,0.,0.,0.,0.,0.,0.,0.,0.,0.,0.,
 0.,0.,0.,0.,0.,0.,0.,0.,0.,0.,0.,0.,0.,0.,0.,0.,0.,0.,0.,0.,0.,0.,0.,0
 .,0.,0.,0.,0.,0.,0.,0.,0.,0.,0.,0.,0.,0.,0.,0.,0.,0.,0.,0.,0.,0.,0.,0.
 ,0.,0.,0.,0.,0.,0.,0.,0.,0.,0.,0.,0.,0.,0.,0.,0.,0.,0.,0.,0.,0.,0.,0.,
 0.,0.,0.,0.,0.,0.,0.,0.,0.,0.,0.,0.,0.,0.,0.,0.,0.,0.,0.,0.,0.,0.,0.,0
 .,0.,0.,0.,0.,0.,0.,0.,0.,0.,0.,0.,0.,0.,0.,0.,0.,0.,0.,0.,0.,0.,0.,0.
 ,0.,0.,0.,0.,0.,0.,0.,0.,0.,0.,0.,0.,0.,0.,0.,0.,0.,0.,0.,0.,0.,0.,0.,
 0.,0.,0.,0.,0.,0.,0.,0.,0.,0.,0.,0.,0.,0.,0.,0.,0.,0.,0.,0.,0.,0.,0.,0
 .,0.,0.,0.,0.,0.,0.,0.,0.,0.,0.,0.,0.,0.,0.,0.,0.,0.,0.,0.,0.,0.,0.,0.
 ,0.,0.,0.,0.,0.,0.,0.,0.,0.,0.,0.,0.,0.,0.,0.,0.,0.,0.,0.,0.,0.,0.,0.,
 0.,0.,0.,0.,0.,0.,0.,0.,0.,0.,0.,0.,0.,0.,0.,0.,0.,0.,0.,0.,0.,0.,0.,0
 .,0.,0.,0.,0.,0.,0.,0.,0.,0.,0.,0.,0.,0.,0.,0.,0.,0.,0.,0.,0.,0.,0.,0.
 ,0.,0.,0.,0.,0.,0.,0.,0.,0.,0.,0.,0.,0.,0.,0.,0.,0.,0.,0.,0.,0.,0.,0.,
 0.,0.,0.,0.,0.,0.,0.,0.,0.,0.,0.,0.,0.,0.,0.,0.,0.,0.,0.,0.,0.,0.,0.,0
 .,0.,0.,0.,0.,0.,0.,0.,0.,0.,0.,0.,0.,0.,0.,0.,0.,0.,0.,0.,0.,0.,0.,0.
 ,0.,0.,0.,0.,0.,0.,0.,0.,0.,0.,0.,0.,0.,0.,0.,0.,0.,0.,0.,0.,0.,0.,0.,
 0.,0.,0.,0.,0.,0.,0.,0.,0.,0.,0.,0.,0.,0.,0.,0.,0.,0.,0.,0.,0.,0.,0.,0
 .,0.,0.,0.,0.,0.,0.,0.,0.,0.,0.,0.,0.,0.,0.,0.,0.,0.,0.,0.,0.,0.,0.,0.
 ,0.,0.,0.,0.,0.,0.,0.,0.,0.,0.,0.,0.,0.,0.,0.,0.,0.,0.,0.,0.,0.,0.,0.,
 0.,0.,0.,0.,0.,0.,0.,0.,0.,0.,0.,0.,0.,0.,0.,0.,0.,0.,0.,0.,0.,0.,0.,0
 .,0.,0.,0.,0.,0.,0.,0.,0.,0.,0.,0.,0.,0.,0.,0.,0.,0.,0.,0.,0.,0.,0.,0.
 ,0.,0.,0.,0.,0.,0.,0.,0.,0.,0.,0.,0.,0.,0.,0.,0.,0.,0.,0.,0.,0.,0.,0.,
 0.,0.,0.,0.,0.,0.,0.,0.,0.,0.,0.,0.,0.,0.,0.,0.,0.,0.,0.,0.,0.,0.,0.,0
 .,0.,0.,0.,0.,0.,0.,0.,0.,0.,0.,0.,0.,0.,0.,0.,0.,0.,0.,0.,0.,0.,0.,0.
 ,0.,0.,0.,0.,0.,0.,0.,0.,0.,0.,0.,0.,0.,0.,0.,0.,0.,0.,0.,0.,0.,0.,0.,
 0.,0.,0.,0.,0.,0.,0.,0.,0.,0.,0.,0.,0.,0.,0.,0.,0.,0.,0.,0.,0.,0.,0.,0
 .,0.,0.,0.,0.,0.,0.,0.,0.,0.,0.,0.,0.,0.,0.,0.,0.,0.,0.,0.,0.,0.,0.,0.
 ,0.,0.,0.,0.,0.,0.,0.,0.,0.,0.,0.,0.,0.,0.,0.,0.,0.,0.,0.,0.,0.,0.,0.,
 0.,0.,0.,0.,0.,0.,0.,0.,0.,0.,0.,0.,0.,0.,0.,0.,0.,0.,0.,0.,0.,0.,0.,0
 .,0.,0.,0.,0.,0.,0.,0.,0.,0.,0.,0.,0.,0.,0.,0.,0.,0.,0.,0.,0.,0.,0.,0.
 ,0.,0.,0.,0.,0.,0.,0.,0.,0.,0.,0.,0.,0.,0.,0.,0.,0.,0.,0.,0.,0.,0.,0.,
 0.,0.,0.,0.,0.,0.,0.,0.,0.,0.,0.,0.,0.,0.,0.,0.,0.,0.,0.,0.,0.,0.,0.,0
 .,0.,0.,0.,0.,0.,0.,0.,0.,0.,0.,0.,0.,0.,0.,0.,0.,0.,0.,0.,0.,0.,0.,0.
 ,0.,0.,0.,0.,0.,0.,0.,0.,0.,0.,0.,0.,0.,0.,0.,0.,0.,0.,0.,0.,0.,0.,0.,
 0.,0.,0.,0.,0.,0.,0.,0.,0.,0.,0.,0.,0.,0.,0.,0.,0.,0.,0.,0.,0.,0.,0.,0
 .,0.,0.,0.,0.,0.,0.,0.,0.,0.,0.,0.,0.,0.,0.,0.,0.,0.,0.,0.,0.,0.,0.,0.
 ,0.,0.,0.,0.,0.,0.,0.,0.,0.,0.,0.,0.,0.,0.,0.,0.,0.,0.,0.,0.,0.,0.,0.,
 0.,0.,0.,0.,0.,0.,0.,0.,0.,0.,0.,0.,0.,0.,0.,0.,0.,0.,0.,0.,0.,0.,0.,0
 .,0.,0.,0.,0.,0.,0.,0.,0.,0.,0.,0.,0.,0.,0.,0.,0.,0.,0.,0.,0.,0.,0.,0.
 ,0.,0.,0.,0.,0.,0.,0.,0.,0.,0.,0.,0.,0.,0.,0.,0.,0.,0.,0.,0.,0.,0.,0.,
 0.,0.,0.,0.,0.,0.,0.,0.,0.,0.,0.,0.,0.,0.,0.,0.,0.,0.,0.,0.,0.,0.,0.,0
 .,0.,0.,0.,0.,0.,0.,0.,0.,0.,0.,0.,0.,0.,0.,0.,0.,0.,0.,0.,0.,0.,0.,0.
 ,0.,0.,0.,0.,0.,0.,0.,0.,0.,0.,0.,0.,0.,0.,0.,0.,0.,0.,0.,0.,0.,0.,0.,
 0.,0.,0.,0.,0.,0.,0.,0.,0.,0.,0.,0.,0.,0.,0.,0.,0.,0.,0.,0.,0.,0.,0.,0
 .,0.,0.,0.,0.,0.,0.,0.,0.,0.,0.,0.,0.,0.,0.,0.,0.,0.,0.,0.,0.,0.,0.,0.
 ,0.,0.,0.,0.,0.,0.,0.,0.,0.,0.,0.,0.,0.,0.,0.,0.,0.,0.,0.,0.,0.,0.,0.,
 0.,0.,0.,0.,0.,0.,0.,0.,0.,0.,0.,0.,0.,0.,0.,0.,0.,0.,0.,0.,0.,0.,0.,0
 .,0.,0.,0.,0.,0.,0.,0.,0.,0.,0.,0.,0.,0.,0.,0.,0.,0.,0.,0.,0.,0.,0.,0.
 ,0.,0.,0.,0.,0.,0.,0.,0.,0.,0.,0.,0.,0.,0.,0.,0.,0.,0.,0.,0.,0.,0.,0.,
 0.,0.,0.,0.,0.,0.,0.,0.,0.,0.,0.,0.,0.,0.,0.,0.,0.,0.,0.,0.,0.,0.,0.,0
 .,0.,0.,0.,0.,0.,0.,0.,0.,0.,0.,0.,0.,0.,0.,0.,0.,0.,0.,0.,0.,0.,0.,0.
 ,0.,0.,0.,0.,0.,0.,0.,0.,0.,0.,0.,0.,0.,0.,0.,0.,0.,0.,0.,0.,0.,0.,0.,
 0.,0.,0.,0.,0.,0.,0.,0.,0.,0.,0.,0.,0.,0.,0.,0.,0.,0.,0.,0.,0.,0.,0.,0
 .,0.,0.,0.,0.,0.,0.,0.,0.,0.,0.,0.,0.,0.,0.,0.,0.,0.,0.,0.,0.,0.,0.,0.
 ,0.,0.,0.,0.,0.,0.,0.,0.,0.,0.,0.,0.,0.,0.,0.,0.,0.,0.,0.,0.,0.,0.,0.,
 0.,0.,0.,0.,0.,0.,0.,0.,0.,0.,0.,0.,0.,0.,0.,0.,0.,0.,0.,0.,0.,0.,0.,0
 .,0.,0.,0.,0.,0.,0.,0.,0.,0.,0.,0.,0.,0.,0.,0.,0.,0.,0.,0.,0.,0.,0.,0.
 ,0.,0.,0.,0.,0.,0.,0.,0.,0.,0.,0.,0.,0.,0.,0.,0.,0.,0.,0.,0.,0.,0.,0.,
 0.,0.,0.,0.,0.,0.,0.,0.,0.,0.,0.,0.,0.,0.,0.,0.,0.,0.,0.,0.,0.,0.,0.,0
 .,0.,0.,0.,0.,0.,0.,0.,0.,0.,0.,0.,0.,0.,0.,0.,0.,0.,0.,0.,0.,0.,0.,0.
 ,0.,0.,0.,0.,0.,0.,0.,0.,0.,0.,0.,0.,0.,0.,0.,0.,0.,0.,0.,0.,0.,0.,0.,
 0.,0.,0.,0.,0.,0.,0.,0.,0.,0.,0.,0.,0.,0.,0.,0.,0.,0.,0.,0.,0.,0.,0.,0
 .,0.,0.,0.,0.,0.,0.,0.,0.,0.,0.,0.,0.,0.,0.,0.,0.,0.,0.,0.,0.,0.,0.,0.
 ,0.,0.,0.,0.,0.,0.,0.,0.,0.,0.,0.,0.,0.,0.,0.,0.,0.,0.,0.,0.,0.,0.,0.,
 0.,0.,0.,0.,0.,0.,0.,0.,0.,0.,0.,0.,0.,0.,0.,0.,0.,0.,0.,0.,0.,0.,0.,0
 .,0.,0.,0.,0.,0.,0.,0.,0.,0.,0.,0.,0.,0.,0.,0.,0.,0.,0.,0.,0.,0.,0.,0.
 ,0.,0.,0.,0.,0.,0.,0.,0.,0.,0.,0.,0.,0.,0.,0.,0.,0.,0.,0.,0.,0.,0.,0.,
 0.,0.,0.,0.,0.,0.,0.,0.,0.,0.,0.,0.,0.,0.,0.,0.,0.,0.,0.,0.,0.,0.,0.,0
 .,0.,0.,0.,0.,0.,0.,0.,0.,0.,0.,0.,0.,0.,0.,0.,0.,0.,0.,0.,0.,0.,0.,0.
 ,0.,0.,0.,0.,0.,0.,0.,0.,0.,0.,0.,0.,0.,0.,0.,0.,0.,0.,0.,0.,0.,0.,0.,
 0.,0.,0.,0.,0.,0.,0.,0.,0.,0.,0.,0.,0.,0.,0.,0.,0.,0.,0.,0.,0.,0.,0.,0
 .,0.,0.,0.,0.,0.,0.,0.,0.,0.,0.,0.,0.,0.,0.,0.,0.,0.,0.,0.,0.,0.,0.,0.
 ,0.,0.,0.,0.,0.,0.,0.,0.,0.,0.,0.,0.,0.,0.,0.,0.,0.,0.,0.,0.,0.,0.,0.,
 0.,0.,0.,0.,0.,0.,0.,0.,0.,0.,0.,0.,0.,0.,0.,0.,0.,0.,0.,0.,0.,0.,0.,0
 .,0.,0.,0.,0.,0.,0.,0.,0.,0.,0.,0.,0.,0.,0.,0.,0.,0.,0.,0.,0.,0.,0.,0.
 ,0.,0.,0.,0.,0.,0.,0.,0.,0.,0.,0.,0.,0.,0.,0.,0.,0.,0.,0.,0.,0.,0.,0.,
 0.,0.,0.,0.,0.,0.,0.,0.,0.,0.,0.,0.,0.,0.,0.,0.,0.,0.,0.,0.,0.,0.,0.,0
 .,0.,0.,0.,0.,0.,0.,0.,0.,0.,0.,0.,0.,0.,0.,0.,0.,0.,0.,0.,0.,0.,0.,0.
 ,0.,0.,0.,0.,0.,0.,0.,0.,0.,0.,0.,0.,0.,0.,0.,0.,0.,0.,0.,0.,0.,0.,0.,
 0.,0.,0.,0.,0.,0.,0.,0.,0.,0.,0.,0.,0.,0.,0.,0.,0.,0.,0.,0.,0.,0.,0.,0
 .,0.,0.,0.,0.,0.,0.,0.,0.,0.,0.,0.,0.,0.,0.,0.,0.,0.,0.,0.,0.,0.,0.,0.
 ,0.,0.,0.,0.,0.,0.,0.,0.,0.,0.,0.,0.,0.,0.,0.,0.,0.,0.,0.,0.,0.,0.,0.,
 0.,0.,0.,0.,0.,0.,0.,0.,0.,0.,0.,0.,0.,0.,0.,0.,0.,0.,0.,0.,0.,0.,0.,0
 .,0.,0.,0.,0.,0.,0.,0.,0.,0.,0.,0.,0.,0.,0.,0.,0.,0.,0.,0.,0.,0.,0.,0.
 ,0.,0.,0.,0.,0.,0.,0.,0.,0.,0.,0.,0.,0.,0.,0.,0.,0.,0.,0.,0.,0.,0.,0.,
 0.,0.,0.,0.,0.,0.,0.,0.,0.,0.,0.,0.,0.,0.,0.,0.,0.,0.,0.,0.,0.,0.,0.,0
 .,0.,0.,0.,0.,0.,0.,0.,0.,0.,0.,0.,0.,0.,0.,0.,0.,0.,0.,0.,0.,0.,0.,0.
 ,0.,0.,0.,0.,0.,0.,0.,0.,0.,0.,0.,0.,0.,0.,0.,0.,0.,0.,0.,0.,0.,0.,0.,
 0.,0.,0.,0.,0.,0.,0.,0.,0.,0.,0.,0.,0.,0.,0.,0.,0.,0.,0.,0.,0.,0.,0.,0
 .,0.,0.,0.,0.,0.,0.,0.,0.,0.,0.,0.,0.,0.,0.,0.,0.,0.,0.,0.,0.,0.,0.,0.
 ,0.,0.,0.,0.,0.,0.,0.,0.,0.,0.,0.,0.,0.,0.,0.,0.,0.,0.,0.,0.,0.,0.,0.,
 0.,0.,0.,0.,0.,0.,0.,0.,0.,0.,0.,0.,0.,0.,0.,0.,0.,0.,0.,0.,0.,0.,0.,0
 .,0.,0.,0.,0.,0.,0.,0.,0.,0.,0.,0.,0.,0.,0.,0.,0.,0.,0.,0.,0.,0.,0.,0.
 ,0.,0.,0.,0.,0.,0.,0.,0.,0.,0.,0.,0.,0.,0.,0.,0.,0.,0.,0.,0.,0.,0.,0.,
 0.,0.,0.,0.,0.,0.,0.,0.,0.,0.,0.,0.,0.,0.,0.,0.,0.,0.,0.,0.,0.,0.,0.,0
 .,0.,0.,0.,0.,0.,0.,0.,0.,0.,0.,0.,0.,0.,0.,0.,0.,0.,0.,0.,0.,0.,0.,0.
 ,0.,0.,0.,0.,0.,0.,0.,0.,0.,0.,0.,0.,0.,0.,0.,0.,0.,0.,0.,0.,0.,0.,0.,
 0.,0.,0.,0.,0.,0.,0.,0.,0.,0.,0.,0.,0.,0.,0.,0.,0.,0.,0.,0.,0.,0.,0.,0
 .,0.,0.,0.,0.,0.,0.,0.,0.,0.,0.,0.,0.,0.,0.,0.,0.,0.,0.,0.,0.,0.,0.,0.
 ,0.,0.,0.,0.,0.,0.,0.,0.,0.,0.,0.,0.,0.,0.,0.,0.,0.,0.,0.,0.,0.,0.,0.,
 0.,0.,0.,0.,0.,0.,0.,0.,0.,0.,0.,0.,0.,0.,0.,0.,0.,0.,0.,0.,0.,0.,0.,0
 .,0.,0.,0.,0.,0.,0.,0.,0.,0.,0.,0.,0.,0.,0.,0.,0.,0.,0.,0.,0.,0.,0.,0.
 ,0.,0.,0.,0.,0.,0.,0.,0.,0.,0.,0.,0.,0.,0.,0.,0.,0.,0.,0.,0.,0.,0.,0.,
 0.,0.,0.,0.,0.,0.,0.,0.,0.,0.,0.,0.,0.,0.,0.,0.,0.,0.,0.,0.,0.,0.,0.,0
 .,0.,0.,0.,0.,0.,0.,0.,0.,0.,0.,0.,0.,0.,0.,0.,0.,0.,0.,0.,0.,0.,0.,0.
 ,0.,0.,0.,0.,0.,0.,0.,0.,0.,0.,0.,0.,0.,0.,0.,0.,0.,0.,0.,0.,0.,0.,0.,
 0.,0.,0.,0.,0.,0.,0.,0.,0.,0.,0.,0.,0.,0.,0.,0.,0.,0.,0.,0.,0.,0.,0.,0
 .,0.,0.,0.,0.,0.,0.,0.,0.,0.,0.,0.,0.,0.,0.,0.,0.,0.,0.,0.,0.,0.,0.,0.
 ,0.,0.,0.,0.,0.,0.,0.,0.,0.,0.,0.,0.,0.,0.,0.,0.,0.,0.,0.,0.,0.,0.,0.,
 0.,0.,0.,0.,0.,0.,0.,0.,0.,0.,0.,0.,0.,0.,0.,0.,0.,0.,0.,0.,0.,0.,0.,0
 .,0.,0.,0.,0.,0.,0.,0.,0.,0.,0.,0.,0.,0.,0.,0.,0.,0.,0.,0.,0.,0.,0.,0.
 ,0.,0.,0.,0.,0.,0.,0.,0.,0.,0.,0.,0.,0.,0.,0.,0.,0.,0.,0.,0.,0.,0.,0.,
 0.,0.,0.,0.,0.,0.,0.,0.,0.,0.,0.,0.,0.,0.,0.,0.,0.,0.,0.,0.,0.,0.,0.,0
 .,0.,0.,0.,0.,0.,0.,0.,0.,0.,0.,0.,0.,0.,0.,0.,0.,0.,0.,0.,0.,0.,0.,0.
 ,0.,0.,0.,0.,0.,0.,0.,0.,0.,0.,0.,0.,0.,0.,0.,0.,0.,0.,0.,0.,0.,0.,0.,
 0.,0.,0.,0.,0.,0.,0.,0.,0.,0.,0.,0.,0.,0.,0.,0.,0.,0.,0.,0.,0.,0.,0.,0
 .,0.,0.,0.,0.,0.,0.,0.,0.,0.,0.,0.,0.,0.,0.,0.,0.,0.,0.,0.,0.,0.,0.,0.
 ,0.,0.,0.,0.,0.,0.,0.,0.,0.,0.,0.,0.,0.,0.,0.,0.,0.,0.,0.,0.,0.,0.,0.,
 0.,0.,0.,0.,0.,0.,0.,0.,0.,0.,0.,0.,0.,0.,0.,0.,0.,0.,0.,0.,0.,0.,0.,0
 .,0.,0.,0.,0.,0.,0.,0.,0.,0.,0.,0.,0.,0.,0.,0.,0.,0.,0.,0.,0.,0.,0.,0.
 ,0.,0.,0.,0.,0.,0.,0.,0.,0.,0.,0.,0.,0.,0.,0.,0.,0.,0.,0.,0.,0.,0.,0.,
 0.,0.,0.,0.,0.,0.,0.,0.,0.,0.,0.,0.,0.,0.,0.,0.,0.,0.,0.,0.,0.,0.,0.,0
 .,0.,0.,0.,0.,0.,0.,0.,0.,0.,0.,0.,0.,0.,0.,0.,0.,0.,0.,0.,0.,0.,0.,0.
 ,0.,0.,0.,0.,0.,0.,0.,0.,0.,0.,0.,0.,0.,0.,0.,0.,0.,0.,0.,0.,0.,0.,0.,
 0.,0.,0.,0.,0.,0.,0.,0.,0.,0.,0.,0.,0.,0.,0.,0.,0.,0.,0.,0.,0.,0.,0.,0
 .,0.,0.,0.,0.,0.,0.,0.,0.,0.,0.,0.,0.,0.,0.,0.,0.,0.,0.,0.,0.,0.,0.,0.
 ,0.,0.,0.,0.,0.,0.,0.,0.,0.,0.,0.,0.,0.,0.,0.,0.,0.,0.,0.,0.,0.,0.,0.,
 0.,0.,0.,0.,0.,0.,0.,0.,0.,0.,0.,0.,0.,0.,0.,0.,0.,0.,0.,0.,0.,0.,0.,0
 .,0.,0.,0.,0.,0.,0.,0.,0.,0.,0.,0.,0.,0.,0.,0.,0.,0.,0.,0.,0.,0.,0.,0.
 ,0.,0.,0.,0.,0.,0.,0.,0.,0.,0.,0.,0.,0.,0.,0.,0.,0.,0.,0.,0.,0.,0.,0.,
 0.,0.,0.,0.,0.,0.,0.,0.,0.,0.,0.,0.,0.,0.,0.,0.,0.,0.,0.,0.,0.,0.,0.,0
 .,0.,0.,0.,0.,0.,0.,0.,0.,0.,0.,0.,0.,0.,0.,0.,0.,0.,0.,0.,0.,0.,0.,0.
 ,0.,0.,0.,0.,0.,0.,0.,0.,0.,0.,0.,0.,0.,0.,0.,0.,0.,0.,0.,0.,0.,0.,0.,
 0.,0.,0.,0.,0.,0.,0.,0.,0.,0.,0.,0.,0.,0.,0.,0.,0.,0.,0.,0.,0.,0.,0.,0
 .,0.,0.,0.,0.,0.,0.,0.,0.,0.,0.,0.,0.,0.,0.,0.,0.,0.,0.,0.,0.,0.,0.,0.
 ,0.,0.,0.,0.,0.,0.,0.,0.,0.,0.,0.,0.,0.,0.,0.,0.,0.,0.,0.,0.,0.,0.,0.,
 0.,0.,0.,0.,0.,0.,0.,0.,0.,0.,0.,0.,0.,0.,0.,0.,0.,0.,0.,0.,0.,0.,0.,0
 .,0.,0.,0.,0.,0.,0.,0.,0.,0.,0.,0.,0.,0.,0.,0.,0.,0.,0.,0.,0.,0.,0.,0.
 ,0.,0.,0.,0.,0.,0.,0.,0.,0.,0.,0.,0.,0.,0.,0.,0.,0.,0.,0.,0.,0.,0.,0.,
 0.,0.,0.,0.,0.,0.,0.,0.,0.,0.,0.,0.,0.,0.,0.,0.,0.,0.,0.,0.,0.,0.,0.,0
 .,0.,0.,0.,0.,0.,0.,0.,0.,0.,0.,0.,0.,0.,0.,0.,0.,0.,0.,0.,0.,0.,0.,0.
 ,0.,0.,0.,0.,0.,0.,0.,0.,0.,0.,0.,0.,0.,0.,0.,0.,0.,0.,0.,0.,0.,0.,0.,
 0.,0.,0.,0.,0.,0.,0.,0.,0.,0.,0.,0.,0.,0.,0.,0.,0.,0.,0.,0.,0.,0.,0.,0
 .,0.,0.,0.,0.,0.,0.,0.,0.,0.,0.,0.,0.,0.,0.,0.,0.,0.,0.,0.,0.,0.,0.,0.
 ,0.,0.,0.,0.,0.,0.,0.,0.,0.,0.,0.,0.,0.,0.,0.,0.,0.,0.,0.,0.,0.,0.,0.,
 0.,0.,0.,0.,0.,0.,0.,0.,0.,0.,0.,0.,0.,0.,0.,0.,0.,0.,0.,0.,0.,0.,0.,0
 .,0.,0.,0.,0.,0.,0.,0.,0.,0.,0.,0.,0.,0.,0.,0.,0.,0.,0.,0.,0.,0.,0.,0.
 ,0.,0.,0.,0.,0.,0.,0.,0.,0.,0.,0.,0.,0.,0.,0.,0.,0.,0.,0.,0.,0.,0.,0.,
 0.,0.,0.,0.,0.,0.,0.,0.,0.,0.,0.,0.,0.,0.,0.,0.,0.,0.,0.,0.,0.,0.,0.,0
 .,0.,0.,0.,0.,0.,0.,0.,0.,0.,0.,0.,0.,0.,0.,0.,0.,0.,0.,0.,0.,0.,0.,0.
 ,0.,0.,0.,0.,0.,0.,0.,0.,0.,0.,0.,0.,0.,0.,0.,0.,0.,0.,0.,0.,0.,0.,0.,
 0.,0.,0.,0.,0.,0.,0.,0.,0.,0.,0.,0.,0.,0.,0.,0.,0.,0.,0.,0.,0.,0.,0.,0
 .,0.,0.,0.,0.,0.,0.,0.,0.,0.,0.,0.,0.,0.,0.,0.,0.,0.,0.,0.,0.,0.,0.,0.
 ,0.,0.,0.,0.,0.,0.,0.,0.,0.,0.,0.,0.,0.,0.,0.,0.,0.,0.,0.,0.,0.,0.,0.,
 0.,0.,0.,0.,0.,0.,0.,0.,0.,0.,0.,0.,0.,0.,0.,0.,0.,0.,0.,0.,0.,0.,0.,0
 .,0.,0.,0.,0.,0.,0.,0.,0.,0.,0.,0.,0.,0.,0.,0.,0.,0.,0.,0.,0.,0.,0.,0.
 ,0.,0.,0.,0.,0.,0.,0.,0.,0.,0.,0.,0.,0.,0.,0.,0.,0.,0.,0.,0.,0.,0.,0.,
 0.,0.,0.,0.,0.,0.,0.,0.,0.,0.,0.,0.,0.,0.,0.,0.,0.,0.,0.,0.,0.,0.,0.,0
 .,0.,0.,0.,0.,0.,0.,0.,0.,0.,0.,0.,0.,0.,0.,0.,0.,0.,0.,0.,0.,0.,0.,0.
 ,0.,0.,0.,0.,0.,0.,0.,0.,0.,0.,0.,0.,0.,0.,0.,0.,0.,0.,0.,0.,0.,0.,0.,
 0.,0.,0.,0.,0.,0.,0.,0.,0.,0.,0.,0.,0.,0.,0.,0.,0.,0.,0.,0.,0.,0.,0.,0
 .,0.,0.,0.,0.,0.,0.,0.,0.,0.,0.,0.,0.,0.,0.,0.,0.,0.,0.,0.,0.,0.,0.,0.
 ,0.,0.,0.,0.,0.,0.,0.,0.,0.,0.,0.,0.,0.,0.,0.,0.,0.,0.,0.,0.,0.,0.,0.,
 0.,0.,0.,0.,0.,0.,0.,0.,0.,0.,0.,0.,0.,0.,0.,0.,0.,0.,0.,0.,0.,0.,0.,0
 .,0.,0.,0.,0.,0.,0.,0.,0.,0.,0.,0.,0.,0.,0.,0.,0.,0.,0.,0.,0.,0.,0.,0.
 ,0.,0.,0.,0.,0.,0.,0.,0.,0.,0.,0.,0.,0.,0.,0.,0.,0.,0.,0.,0.,0.,0.,0.,
 0.,0.,0.,0.,0.,0.,0.,0.,0.,0.,0.,0.,0.,0.,0.,0.,0.,0.,0.,0.,0.,0.,0.,0
 .,0.,0.,0.,0.,0.,0.,0.,0.,0.,0.,0.,0.,0.,0.,0.,0.,0.,0.,0.,0.,0.,0.,0.
 ,0.,0.,0.,0.,0.,0.,0.,0.,0.,0.,0.,0.,0.,0.,0.,0.,0.,0.,0.,0.,0.,0.4120
 9363,0.,0.,0.,0.,0.,0.,0.,0.,0.,0.,0.,0.,0.,0.,0.,0.,0.,0.,0.,0.,0.,0.
 ,0.,0.,0.,0.,0.,0.,0.,0.,0.,0.,0.,0.,0.,0.,0.,0.,0.,0.,0.,0.,0.,0.,0.,
 0.,0.,0.,0.,0.,0.,0.,0.,0.,0.,0.,0.,0.,0.,0.,0.,0.,0.,0.,0.,0.,0.,0.,0
 .,0.,0.,0.,0.,0.,0.,0.,0.,0.,0.,0.,0.,0.,0.,0.,0.,0.,0.,0.,0.,0.,0.,0.
 ,0.,0.,0.,0.,0.,0.,0.,0.,0.,0.,0.,0.,0.,0.,0.,0.,0.,0.,0.,0.,0.,0.,0.,
 0.,0.,0.,0.,0.,0.,0.,0.,0.,0.,0.,0.,0.,0.,0.,0.,0.,0.,0.,0.,0.,0.,0.,0
 .,0.,0.,0.20530475,0.14066827,0.,0.,0.,0.,0.,0.,0.,0.,0.,0.,0.,0.,0.,0
 .,0.,0.,0.,0.,0.,0.,0.,0.,0.,0.,0.,0.,0.,0.,0.,0.,0.,0.,0.,0.,0.,0.,0.
 ,0.,0.,0.,0.,0.,0.,0.,0.,0.,0.,0.,0.,0.,0.,0.,0.,0.,0.,0.,0.,0.,0.,0.,
 0.,0.,0.,0.,0.,0.,0.,0.,0.,0.,0.,0.,0.,0.,0.,0.,0.,0.,0.,0.,0.,0.,0.,0
 .,0.,0.,0.,0.,0.,0.,0.,0.,0.,0.,0.,0.,0.,0.,0.,0.,0.,0.,0.,0.,0.,0.,0.
 ,0.,0.,0.,0.,0.,0.,0.,0.,0.,0.,0.,0.,0.,0.,0.,0.,0.,0.,0.,0.,0.,0.,0.,
 0.,0.,0.,0.,0.,0.,0.,0.,0.,0.,0.,-0.14293202,-0.02083455,0.09822265,0.
 ,0.,0.,0.,0.,0.,0.,0.,0.,0.,0.,0.,0.,0.,0.,0.,0.,0.,0.,0.,0.,0.,0.,0.,
 0.,0.,0.,0.,0.,0.,0.,0.,0.,0.,0.,0.,0.,0.,0.,0.,0.,0.,0.,0.,0.,0.,0.,0
 .,0.,0.,0.,0.,0.,0.,0.,0.,0.,0.,0.,0.,0.,0.,0.,0.,0.,0.,0.,0.,0.,0.,0.
 ,0.,0.,0.,0.,0.,0.,0.,0.,0.,0.,0.,0.,0.,0.,0.,0.,0.,0.,0.,0.,0.,0.,0.,
 0.,0.,0.,0.,0.,0.,0.,0.,0.,0.,0.,0.,0.,0.,0.,0.,0.,0.,0.,0.,0.,0.,0.,0
 .,0.,0.,0.,0.,0.,0.,0.,0.,0.,0.,0.,0.,0.,0.,0.,0.,0.,0.,0.,0.,0.,0.,0.
 ,-0.43073378,-0.22075927,0.18128557,0.53132811,0.,0.,0.,0.,0.,0.,0.,0.
 ,0.,0.,0.,0.,0.,0.,0.,0.,0.,0.,0.,0.,0.,0.,0.,0.,0.,0.,0.,0.,0.,0.,0.,
 0.,0.,0.,0.,0.,0.,0.,0.,0.,0.,0.,0.,0.,0.,0.,0.,0.,0.,0.,0.,0.,0.,0.,0
 .,0.,0.,0.,0.,0.,0.,0.,0.,0.,0.,0.,0.,0.,0.,0.,0.,0.,0.,0.,0.,0.,0.,0.
 ,0.,0.,0.,0.,0.,0.,0.,0.,0.,0.,0.,0.,0.,0.,0.,0.,0.,0.,0.,0.,0.,0.,0.,
 0.,0.,0.,0.,0.,0.,0.,0.,0.,0.,0.,0.,0.,0.,0.,0.,0.,0.,0.,0.,0.,0.,0.,0
 .,0.,0.,0.,0.,0.,0.,0.,0.,0.,0.,0.,0.,0.,0.,0.,0.,-0.22970412,-0.09270
 760,0.04521893,0.26310303,0.15027574,0.,0.,0.,0.,0.,0.,0.,0.,0.,0.,0.,
 0.,0.,0.,0.,0.,0.,0.,0.,0.,0.,0.,0.,0.,0.,0.,0.,0.,0.,0.,0.,0.,0.,0.,0
 .,0.,0.,0.,0.,0.,0.,0.,0.,0.,0.,0.,0.,0.,0.,0.,0.,0.,0.,0.,0.,0.,0.,0.
 ,0.,0.,0.,0.,0.,0.,0.,0.,0.,0.,0.,0.,0.,0.,0.,0.,0.,0.,0.,0.,0.,0.,0.,
 0.,0.,0.,0.,0.,0.,0.,0.,0.,0.,0.,0.,0.,0.,0.,0.,0.,0.,0.,0.,0.,0.,0.,0
 .,0.,0.,0.,0.,0.,0.,0.,0.,0.,0.,0.,0.,0.,0.,0.,0.,0.,0.,0.,0.,0.,0.,0.
 ,0.,0.,0.,0.,0.,0.,0.,0.,0.,0.,0.,0.,0.,0.03461606,0.00621158,-0.00679
 198,-0.06870274,0.00115740,0.04691626,0.,0.,0.,0.,0.,0.,0.,0.,0.,0.,0.
 ,0.,0.,0.,0.,0.,0.,0.,0.,0.,0.,0.,0.,0.,0.,0.,0.,0.,0.,0.,0.,0.,0.,0.,
 0.,0.,0.,0.,0.,0.,0.,0.,0.,0.,0.,0.,0.,0.,0.,0.,0.,0.,0.,0.,0.,0.,0.,0
 .,0.,0.,0.,0.,0.,0.,0.,0.,0.,0.,0.,0.,0.,0.,0.,0.,0.,0.,0.,0.,0.,0.,0.
 ,0.,0.,0.,0.,0.,0.,0.,0.,0.,0.,0.,0.,0.,0.,0.,0.,0.,0.,0.,0.,0.,0.,0.,
 0.,0.,0.,0.,0.,0.,0.,0.,0.,0.,0.,0.,0.,0.,0.,0.,0.,0.,0.,0.,0.,0.,0.,0
 .,0.,0.,0.,0.,0.,0.,0.,0.,0.,0.,0.,0.,0.,0.,0.,0.,0.,0.,0.,0.,0.,0.,0.
 ,0.,0.,0.,0.,0.,0.,0.,0.,0.,0.,0.,0.,0.,0.,0.,0.,0.,0.,0.,0.,0.,0.,0.,
 0.,0.,0.,0.,0.,0.,0.,0.,0.,0.,0.,0.,0.,0.,0.,0.,0.,0.,0.,0.,0.,0.,0.,0
 .,0.,0.,0.,0.,0.,0.,0.,0.,0.,0.,0.,0.,0.,0.,0.,0.,0.,0.,0.,0.,0.,0.,0.
 ,0.,0.,0.,0.,0.,0.,0.,0.,0.,0.,0.,0.,0.,0.,0.,0.,0.,0.,0.,0.,0.,0.,0.,
 0.,0.,0.,0.,0.,0.,0.,0.,0.,0.,0.,0.,0.,0.,0.,0.,0.,0.,0.,0.,0.,0.,0.,0
 .,0.,0.,0.,0.,0.,0.,0.,0.,0.,0.,0.,0.,0.,0.,0.,0.,0.,0.,0.,0.,0.,0.,0.
 ,0.,0.,0.,0.,0.,0.,0.,0.,0.,0.,0.,0.,0.,0.,0.,0.,0.,0.,0.,0.,0.,0.,0.,
 0.,0.,0.,0.,0.,0.,0.,0.,0.,0.,0.,0.,0.,0.,0.,0.,0.,0.,0.,0.,0.,0.,0.,0
 .,0.,0.,0.,0.,0.,0.,0.,0.,0.,0.,0.,0.,0.,0.,0.,0.,0.,0.,0.,0.,0.,0.,0.
 ,0.,0.,0.,0.,0.,0.,0.,0.,0.,0.,0.,0.,0.,0.,0.,0.,0.,0.,0.,0.,0.,0.,0.,
 0.,0.,0.,0.,0.,0.,0.,0.,0.,0.,0.,0.,0.,0.,0.,0.,0.,0.,0.,0.,0.,0.,0.,0
 .,0.,0.,0.,0.,0.,0.,0.,0.,0.,0.,0.,0.,0.,0.,0.,0.,0.,0.,0.,0.,0.,0.,0.
 ,0.,0.,0.,0.,0.,0.,0.,0.,0.,0.,0.,0.,0.,0.,0.,0.||0.,0.,0.,0.,0.,0.,0.
 ,0.,0.,0.,0.,0.,0.,0.,0.,0.,0.,0.,0.,0.,0.,0.,0.,0.,0.,0.,0.,0.,0.,0.,
 0.,0.,0.,0.,0.,0.,0.,0.,0.,0.,0.,0.,0.,0.,0.,0.,0.,0.,0.,0.,0.,0.,0.,0
 .,0.,0.,0.,0.,0.,0.,0.,0.,0.,0.,0.,0.,0.,0.,0.,0.,0.,0.,0.,0.,0.,0.,0.
 ,0.,0.,0.,0.,0.,0.,0.,0.,0.,0.,0.,0.,0.,0.,0.,0.,0.,0.,0.,0.,0.,0.,0.,
 0.,0.,0.,0.,0.,0.,0.,0.,0.,0.,0.,0.,0.,0.,0.,0.,0.,0.,0.,0.,0.,0.,0.,0
 .,0.,0.,0.,0.,0.,0.,0.,0.,0.,0.,0.,0.,0.,0.,0.,0.,0.,0.00007234,0.0058
 6396,-0.10347590,-0.01996294,-0.00576772,0.02999117,0.,0.,0.|||@


 THOSE WHO ASPIRE NOT TO GUESS AND DIVINE,
 BUT TO DISCOVER AND KNOW, WHO PROPOSE NOT TO DEVISE 
 MIMIC AND FABULOUS WORLDS OF THEIR OWN, BUT TO 
 EXAMINE AND DISSECT THE NATURE OF THIS VERY WORLD 
 ITSELF, MUST GO TO THE FACTS THEMSELVES FOR EVERYTHING.

                               -- FRANCIS BACON, 1620
 Job cpu time:       0 days  0 hours 13 minutes 44.0 seconds.
 File lengths (MBytes):  RWF=   1089 Int=      0 D2E=      0 Chk=     11 Scr=      1
 Normal termination of Gaussian 09 at Mon Dec 23 20:01:58 2024.
