 Entering Link 1 = C:\G09W\l1.exe PID=     13608.
  
 Copyright (c) 1988,1990,1992,1993,1995,1998,2003,2009,2013,
            Gaussian, Inc.  All Rights Reserved.
  
 This is part of the Gaussian(R) 09 program.  It is based on
 the Gaussian(R) 03 system (copyright 2003, Gaussian, Inc.),
 the Gaussian(R) 98 system (copyright 1998, Gaussian, Inc.),
 the Gaussian(R) 94 system (copyright 1995, Gaussian, Inc.),
 the Gaussian 92(TM) system (copyright 1992, Gaussian, Inc.),
 the Gaussian 90(TM) system (copyright 1990, Gaussian, Inc.),
 the Gaussian 88(TM) system (copyright 1988, Gaussian, Inc.),
 the Gaussian 86(TM) system (copyright 1986, Carnegie Mellon
 University), and the Gaussian 82(TM) system (copyright 1983,
 Carnegie Mellon University). Gaussian is a federally registered
 trademark of Gaussian, Inc.
  
 This software contains proprietary and confidential information,
 including trade secrets, belonging to Gaussian, Inc.
  
 This software is provided under written license and may be
 used, copied, transmitted, or stored only in accord with that
 written license.
  
 The following legend is applicable only to US Government
 contracts under FAR:
  
                    RESTRICTED RIGHTS LEGEND
  
 Use, reproduction and disclosure by the US Government is
 subject to restrictions as set forth in subparagraphs (a)
 and (c) of the Commercial Computer Software - Restricted
 Rights clause in FAR 52.227-19.
  
 Gaussian, Inc.
 340 Quinnipiac St., Bldg. 40, Wallingford CT 06492
  
  
 ---------------------------------------------------------------
 Warning -- This program may not be used in any manner that
 competes with the business of Gaussian, Inc. or will provide
 assistance to any competitor of Gaussian, Inc.  The licensee
 of this program is prohibited from giving any competitor of
 Gaussian, Inc. access to this program.  By using this program,
 the user acknowledges that Gaussian, Inc. is engaged in the
 business of creating and licensing software in the field of
 computational chemistry and represents and warrants to the
 licensee that it is not a competitor of Gaussian, Inc. and that
 it will not use this program in any manner prohibited above.
 ---------------------------------------------------------------
  

 Cite this work as:
 Gaussian 09, Revision D.01,
 M. J. Frisch, G. W. Trucks, H. B. Schlegel, G. E. Scuseria, 
 M. A. Robb, J. R. Cheeseman, G. Scalmani, V. Barone, B. Mennucci, 
 G. A. Petersson, H. Nakatsuji, M. Caricato, X. Li, H. P. Hratchian, 
 A. F. Izmaylov, J. Bloino, G. Zheng, J. L. Sonnenberg, M. Hada, 
 M. Ehara, K. Toyota, R. Fukuda, J. Hasegawa, M. Ishida, T. Nakajima, 
 Y. Honda, O. Kitao, H. Nakai, T. Vreven, J. A. Montgomery, Jr., 
 J. E. Peralta, F. Ogliaro, M. Bearpark, J. J. Heyd, E. Brothers, 
 K. N. Kudin, V. N. Staroverov, T. Keith, R. Kobayashi, J. Normand, 
 K. Raghavachari, A. Rendell, J. C. Burant, S. S. Iyengar, J. Tomasi, 
 M. Cossi, N. Rega, J. M. Millam, M. Klene, J. E. Knox, J. B. Cross, 
 V. Bakken, C. Adamo, J. Jaramillo, R. Gomperts, R. E. Stratmann, 
 O. Yazyev, A. J. Austin, R. Cammi, C. Pomelli, J. W. Ochterski, 
 R. L. Martin, K. Morokuma, V. G. Zakrzewski, G. A. Voth, 
 P. Salvador, J. J. Dannenberg, S. Dapprich, A. D. Daniels, 
 O. Farkas, J. B. Foresman, J. V. Ortiz, J. Cioslowski, 
 and D. J. Fox, Gaussian, Inc., Wallingford CT, 2013.
 
 ******************************************
 Gaussian 09:  IA32W-G09RevD.01 24-Apr-2013
                23-Dec-2024 
 ******************************************
 %nprocshared=2
 Will use up to    2 processors via shared memory.
 %mem=1GB
 %chk=C:\Users\Yash Shaw\Desktop\GaussView Work\New work\Rh doped MoS2+NO2\Rh dop
 ed MoS2+NO2 gas_Freq opt.chk
 ------------------------------------------------
 # freq pm6 guess=huckel scf=qc geom=connectivity
 ------------------------------------------------
 1/10=4,30=1,38=1,57=2/1,3;
 2/12=2,17=6,18=5,40=1/2;
 3/5=2,16=1,25=1,41=3900000,71=2,140=1/1,2,3;
 4/11=4,35=1/1;
 5/5=2,8=3,35=1,38=5,98=1/8;
 8/6=4,10=90,11=11/1;
 11/6=1,8=1,9=11,15=111,16=1/1,2,10;
 10/6=1/2;
 6/7=2,8=2,9=2,10=2,18=1,28=1/1;
 7/8=1,10=1,25=1/1,2,3,16;
 1/10=4,30=1/3;
 99//99;
 ---------------------
 Rh doped MoS2+NO2 gas
 ---------------------
 Symbolic Z-matrix:
 Charge =  0 Multiplicity = 1
 Mo                   -1   -0.19474   1.41298   0.95143 
 S                    -1   -1.46788   2.49496   2.69786 
 S                    -1   -2.20108   1.93197  -0.29227 
 Mo                   -1    2.88802   1.61994   0.15655 
 Mo                   -1    5.97079   1.82691  -0.63834 
 Mo                   -1    9.05355   2.03387  -1.43323 
 S                    -1    1.61489   2.70192   1.90298 
 S                    -1    4.69765   2.90889   1.10809 
 S                    -1    7.78042   3.11585   0.3132 
 S                    -1    0.88168   2.13894  -1.08716 
 S                    -1    3.96445   2.3459   -1.88205 
 S                    -1    7.04721   2.55287  -2.67693 
 Mo                   -1   -2.03119   4.02141   0.91063 
 Mo                   -1   -3.86764   6.62983   0.86983 
 Mo                   -1   -5.70409   9.23826   0.82902 
 S                    -1   -3.30433   5.10339   2.65706 
 S                    -1   -5.14078   7.71181   2.61625 
 S                    -1   -6.97723   10.32024   2.57545 
 S                    -1   -4.03753   4.5404   -0.33308 
 S                    -1   -5.87398   7.14883  -0.37388 
 S                    -1   -7.71043   9.75726  -0.41469 
 Mo                   -1    1.05157   4.22837   0.11574 
 Mo                   -1   -0.78488   6.8368    0.07494 
 Mo                   -1   -2.62133   9.44523   0.03413 
 Mo                   -1    4.13434   4.43534  -0.67914 
 Mo                   -1    0.46143   9.65219  -0.76075 
 Mo                   -1    7.2171    4.6423   -1.47403 
 Mo                   -1    5.38065   7.25073  -1.51484 
 Mo                   -1    3.5442    9.85916  -1.55564 
 S                    -1   -0.22156   5.31035   1.86217 
 S                    -1   -2.05801   7.91878   1.82137 
 S                    -1   -3.89446   10.52721   1.78056 
 S                    -1    2.8612    5.51732   1.06728 
 S                    -1    1.02475   8.12574   1.02648 
 S                    -1   -0.8117    10.73417   0.98568 
 S                    -1    5.94397   5.72428   0.2724 
 S                    -1    4.10751   8.33271   0.23159 
 S                    -1    2.27106   10.94114   0.19079 
 S                    -1   -0.95477   4.74737  -1.12796 
 S                    -1   -2.79122   7.35579  -1.16877 
 S                    -1   -4.62767   9.96422  -1.20957 
 S                    -1    2.128     4.95433  -1.92285 
 S                    -1    0.29154   7.56276  -1.96366 
 S                    -1   -1.54491   10.17119  -2.00446 
 S                    -1    5.21076   5.1613   -2.71774 
 S                    -1    3.37431   7.76972  -2.75854 
 S                    -1    1.53786   10.37815  -2.79935 
 Rh                   -1    2.29789   7.04376  -0.71995 
 N                    0     3.27399   5.8152    2.7938 
 O                    0     1.97511   5.90607   3.09697 
 O                    0     4.03809   4.92588   2.7384 
 

 GradGradGradGradGradGradGradGradGradGradGradGradGradGradGradGradGradGrad
 Berny optimization.
 Initialization pass.
 Trust Radius=3.00D-01 FncErr=1.00D-07 GrdErr=1.00D-07
 Number of steps in this run=      2 maximum allowed number of steps=      2.
 GradGradGradGradGradGradGradGradGradGradGradGradGradGradGradGradGradGrad

 Stoichiometry    Mo15NO2RhS32
 Framework group  C1[X(Mo15NO2RhS32)]
 Deg. of freedom   147
 Full point group                 C1      NOp   1
 Largest Abelian subgroup         C1      NOp   1
 Largest concise Abelian subgroup C1      NOp   1
                         Standard orientation:                         
 ---------------------------------------------------------------------
 Center     Atomic      Atomic             Coordinates (Angstroms)
 Number     Number       Type             X           Y           Z
 ---------------------------------------------------------------------
      1         42           0        0.765455   -4.781592   -0.090312
      2         16           0       -1.067591   -4.790037    1.484947
      3         16           0       -1.085300   -4.775483   -1.644738
      4         42           0        3.527335   -3.184699   -0.098514
      5         42           0        6.289214   -1.587807   -0.106715
      6         42           0        9.051094    0.009086   -0.114917
      7         16           0        1.694289   -3.193145    1.476745
      8         16           0        4.456169   -1.596252    1.468544
      9         16           0        7.218049    0.000641    1.460342
     10         16           0        1.676580   -3.178591   -1.652940
     11         16           0        4.438460   -1.581698   -1.661141
     12         16           0        7.200340    0.015195   -1.669343
     13         42           0       -1.998365   -3.188204   -0.067264
     14         42           0       -4.762184   -1.594816   -0.044216
     15         42           0       -7.526004   -0.001428   -0.021167
     16         16           0       -3.831410   -3.196649    1.507995
     17         16           0       -6.595230   -1.603261    1.531044
     18         16           0       -9.359049   -0.009873    1.554092
     19         16           0       -3.849119   -3.182095   -1.621690
     20         16           0       -6.612939   -1.588707   -1.598641
     21         16           0       -9.376758    0.004681   -1.575593
     22         42           0        0.763515   -1.591311   -0.075466
     23         42           0       -2.000304    0.002076   -0.052417
     24         42           0       -4.764124    1.595464   -0.029369
     25         42           0        3.525395    0.005581   -0.083667
     26         42           0       -2.002244    3.192357   -0.037570
     27         42           0        6.287275    1.602474   -0.091869
     28         42           0        3.523456    3.195862   -0.068820
     29         42           0        0.759636    4.789250   -0.045772
     30         16           0       -1.069530   -1.599757    1.499794
     31         16           0       -3.833350   -0.006369    1.522842
     32         16           0       -6.597169    1.587019    1.545890
     33         16           0        1.692350   -0.002864    1.491592
     34         16           0       -1.071470    1.590524    1.514640
     35         16           0       -3.835289    3.183912    1.537689
     36         16           0        4.454230    1.594029    1.483390
     37         16           0        1.690410    3.187417    1.506439
     38         16           0       -1.073409    4.780804    1.529487
     39         16           0       -1.087239   -1.585203   -1.629891
     40         16           0       -3.851059    0.008185   -1.606843
     41         16           0       -6.614878    1.601573   -1.583795
     42         16           0        1.674641    0.011690   -1.638093
     43         16           0       -1.089179    1.605078   -1.615045
     44         16           0       -3.852998    3.198466   -1.591996
     45         16           0        4.436521    1.608582   -1.646295
     46         16           0        1.672701    3.201970   -1.623246
     47         16           0       -1.091118    4.795358   -1.600198
     48         45           0        0.761576    1.598969   -0.060619
     49          7           0        1.704952   -0.039351    3.291178
     50          8           0        0.468135   -0.546776    3.297521
     51          8           0        2.779315   -0.510305    3.249004
 ---------------------------------------------------------------------
 Rotational constants (GHZ):      0.0259076      0.0092403      0.0074129
 Standard basis: VSTO-6G (5D, 7F)
 There are   492 symmetry adapted cartesian basis functions of A   symmetry.
 There are   444 symmetry adapted basis functions of A   symmetry.
   444 basis functions,  2952 primitive gaussians,   492 cartesian basis functions
   154 alpha electrons      154 beta electrons
       nuclear repulsion energy      4535.4224811956 Hartrees.
 Integral buffers will be    262144 words long.
 Regular integral format.
 Two-electron integral symmetry is turned off.
 Do NDO integrals.
 One-electron integrals computed using PRISM.
 NBasis=   444 RedAO= F EigKep=  0.00D+00  NBF=   444
 NBsUse=   444 1.00D-04 EigRej=  0.00D+00 NBFU=   444
 Projected New-EHT guess.
 Enter ItEHT:  IZDO=4 IZDPar=0 Conv= 1.00D-06 N=  284
 It=   1                  EEH= -66.7599190775     EQH= 0.000000000000E+00 EH= -66.7599190775    
 Keep J ints in memory in canonical form, NReq=6226518.
 Gradient too large for Newton-Raphson or scaled steepest descent --
 use steepest descent instead.
     Note:  rotation exceeds Pi/2.
     Note:  rotation exceeds Pi/2.
     Note:  rotation exceeds Pi/2.
     Note:  rotation exceeds Pi/2.
 Gradient too large for Newton-Raphson or scaled steepest descent --
 use steepest descent instead.
     Accept linear search using points  1 and  2.
 Gradient too large for Newton-Raphson or scaled steepest descent --
 use steepest descent instead.
     Accept linear search using points  1 and  2.
 Gradient too large for Newton-Raphson or scaled steepest descent --
 use steepest descent instead.
     Minimum is close to point  3 DX=  1.02D-02 DF= -1.07D-01 DXR=  3.29D-02 DFR=  7.27D-04 which will be used.
 Gradient too large for Newton-Raphson or scaled steepest descent --
 use steepest descent instead.
     Minimum is close to point  3 DX= -3.37D-02 DF= -5.22D-01 DXR=  9.19D-02 DFR=  6.14D-03 which will be used.
 Gradient too large for Newton-Raphson or scaled steepest descent --
 use steepest descent instead.
     Accept linear search using points  3 and  4.
 Gradient too large for Newton-Raphson -- use scaled steepest descent instead.
     Accept linear search using points  2 and  3.
 Gradient too large for Newton-Raphson -- use scaled steepest descent instead.
     Accept linear search using points  1 and  2.
 Gradient too large for Newton-Raphson -- use scaled steepest descent instead.
 Gradient too large for Newton-Raphson -- use scaled steepest descent instead.
     Minimum is close to point  3 DX=  3.88D-02 DF= -4.09D-02 DXR=  8.84D-02 DFR=  7.83D-03 which will be used.
 Gradient too large for Newton-Raphson -- use scaled steepest descent instead.
     Minimum is close to point  3 DX= -1.10D-02 DF= -7.07D-03 DXR=  5.85D-02 DFR=  3.43D-03 which will be used.
 Gradient too large for Newton-Raphson -- use scaled steepest descent instead.
     Accept linear search using points  1 and  2.
 Gradient too large for Newton-Raphson -- use scaled steepest descent instead.
     Minimum is close to point  4 DX=  1.61D-02 DF= -1.50D-03 DXR=  3.12D-02 DFR=  8.70D-04 which will be used.
 Gradient too large for Newton-Raphson -- use scaled steepest descent instead.
     Accept linear search using points  1 and  2.
 Gradient too large for Newton-Raphson -- use scaled steepest descent instead.
 Gradient too large for Newton-Raphson -- use scaled steepest descent instead.
     Accept linear search using points  1 and  2.
 Gradient too large for Newton-Raphson -- use scaled steepest descent instead.
     Accept linear search using points  1 and  2.
 Gradient too large for Newton-Raphson -- use scaled steepest descent instead.
     Accept linear search using points  1 and  2.
 Gradient too large for Newton-Raphson -- use scaled steepest descent instead.
 Gradient too large for Newton-Raphson -- use scaled steepest descent instead.
 Gradient too large for Newton-Raphson -- use scaled steepest descent instead.
 Gradient too large for Newton-Raphson -- use scaled steepest descent instead.
     Accept linear search using points  1 and  2.
 Gradient too large for Newton-Raphson -- use scaled steepest descent instead.
     Accept linear search using points  3 and  4.
 Gradient too large for Newton-Raphson -- use scaled steepest descent instead.
     Minimum is close to point  3 DX= -1.11D-03 DF= -1.13D-06 DXR=  2.78D-03 DFR=  7.73D-06 which will be used.
 Gradient too large for Newton-Raphson -- use scaled steepest descent instead.
     Accept linear search using points  2 and  3.
     Minimum is close to point  3 DX= -1.64D-02 DF= -7.06D-06 DXR=  9.18D-03 DFR=  6.75D-05 which will be used.
 Gradient too large for Newton-Raphson -- use scaled steepest descent instead.
     Accept linear search using points  1 and  2.
 Gradient too large for Newton-Raphson -- use scaled steepest descent instead.
 Gradient too large for Newton-Raphson -- use scaled steepest descent instead.
     Minimum is close to point  3 DX=  2.19D-02 DF= -1.80D-04 DXR=  5.19D-02 DFR=  2.70D-03 which will be used.
 Gradient too large for Newton-Raphson -- use scaled steepest descent instead.
     Accept linear search using points  3 and  4.
     Minimum is close to point  4 DX= -2.48D-01 DF= -5.74D-04 DXR=  7.17D-02 DFR=  7.06D-03 which will be used.
 Gradient too large for Newton-Raphson -- use scaled steepest descent instead.
 Gradient too large for Newton-Raphson -- use scaled steepest descent instead.
 Gradient too large for Newton-Raphson -- use scaled steepest descent instead.
     Minimum is close to point  3 DX=  2.89D-02 DF= -1.57D-04 DXR=  6.73D-02 DFR=  4.55D-03 which will be used.
 Gradient too large for Newton-Raphson -- use scaled steepest descent instead.
 Gradient too large for Newton-Raphson -- use scaled steepest descent instead.
     Minimum is close to point  3 DX= -2.64D-02 DF= -7.71D-05 DXR=  5.57D-02 DFR=  3.12D-03 which will be used.
 Gradient too large for Newton-Raphson -- use scaled steepest descent instead.
     Accept linear search using points  1 and  2.
 Gradient too large for Newton-Raphson -- use scaled steepest descent instead.
     Accept linear search using points  1 and  2.
 Gradient too large for Newton-Raphson -- use scaled steepest descent instead.
 Gradient too large for Newton-Raphson -- use scaled steepest descent instead.
 Gradient too large for Newton-Raphson -- use scaled steepest descent instead.
     Accept linear search using points  2 and  3.
     Minimum is close to point  3 DX= -8.61D-03 DF= -2.39D-07 DXR=  4.81D-03 DFR=  1.86D-05 which will be used.
 Gradient too large for Newton-Raphson -- use scaled steepest descent instead.
 Gradient too large for Newton-Raphson -- use scaled steepest descent instead.
     Accept linear search using points  2 and  3.
     Minimum is close to point  3 DX= -1.79D-02 DF= -8.89D-07 DXR=  1.00D-02 DFR=  8.14D-05 which will be used.
 Gradient too large for Newton-Raphson -- use scaled steepest descent instead.
     Minimum is close to point  3 DX=  4.43D-02 DF= -1.01D-04 DXR=  9.97D-02 DFR=  1.00D-02 which will be used.
 Gradient too large for Newton-Raphson -- use scaled steepest descent instead.
     Accept linear search using points  4 and  5.
 Gradient too large for Newton-Raphson -- use scaled steepest descent instead.
 Gradient too large for Newton-Raphson -- use scaled steepest descent instead.
     Minimum is close to point  4 DX= -3.54D-01 DF= -5.91D-05 DXR=  6.17D-02 DFR=  3.89D-03 which will be used.
 Gradient too large for Newton-Raphson -- use scaled steepest descent instead.
 Gradient too large for Newton-Raphson -- use scaled steepest descent instead.
 Gradient too large for Newton-Raphson -- use scaled steepest descent instead.
     Minimum is close to point  3 DX=  3.53D-02 DF= -4.11D-05 DXR=  8.10D-02 DFR=  6.60D-03 which will be used.
 Gradient too large for Newton-Raphson -- use scaled steepest descent instead.
     Accept linear search using points  2 and  3.
     Minimum is close to point  3 DX= -1.72D-02 DF= -3.30D-07 DXR=  6.93D-03 DFR=  6.53D-05 which will be used.
 Gradient too large for Newton-Raphson -- use scaled steepest descent instead.
     Accept linear search using points  1 and  2.
 Gradient too large for Newton-Raphson -- use scaled steepest descent instead.
     Accept linear search using points  1 and  2.
     Minimum is close to point  2 DX= -9.84D-02 DF= -2.66D-05 DXR=  9.82D-02 DFR=  1.13D-02 which will be used.
 Gradient too large for Newton-Raphson -- use scaled steepest descent instead.
     Accept linear search using points  1 and  2.
 Gradient too large for Newton-Raphson -- use scaled steepest descent instead.
     Minimum is close to point  4 DX=  2.80D-01 DF= -4.29D-05 DXR=  9.39D-02 DFR=  8.94D-03 which will be used.
 Gradient too large for Newton-Raphson -- use scaled steepest descent instead.
     Minimum is close to point  3 DX=  2.10D-02 DF= -9.79D-06 DXR=  4.99D-02 DFR=  2.49D-03 which will be used.
 Gradient too large for Newton-Raphson -- use scaled steepest descent instead.
     Minimum is close to point  4 DX=  2.97D-01 DF= -2.74D-05 DXR=  6.20D-02 DFR=  3.91D-03 which will be used.
 Gradient too large for Newton-Raphson -- use scaled steepest descent instead.
 Gradient too large for Newton-Raphson -- use scaled steepest descent instead.
 Gradient too large for Newton-Raphson -- use scaled steepest descent instead.
     Minimum is close to point  3 DX=  1.14D-02 DF= -3.57D-06 DXR=  2.78D-02 DFR=  7.72D-04 which will be used.
 Gradient too large for Newton-Raphson -- use scaled steepest descent instead.
 Gradient too large for Newton-Raphson -- use scaled steepest descent instead.
     Minimum is close to point  3 DX=  3.84D-02 DF= -2.99D-05 DXR=  8.77D-02 DFR=  7.75D-03 which will be used.
 Gradient too large for Newton-Raphson -- use scaled steepest descent instead.
 Gradient too large for Newton-Raphson -- use scaled steepest descent instead.
     Minimum is close to point  3 DX= -1.66D-02 DF= -4.28D-06 DXR=  3.43D-02 DFR=  1.18D-03 which will be used.
 Gradient too large for Newton-Raphson -- use scaled steepest descent instead.
     Accept linear search using points  1 and  2.
 Gradient too large for Newton-Raphson -- use scaled steepest descent instead.
     Accept linear search using points  1 and  2.
 Gradient too large for Newton-Raphson -- use scaled steepest descent instead.
     Accept linear search using points  3 and  4.
 Gradient too large for Newton-Raphson -- use scaled steepest descent instead.
     Minimum is close to point  3 DX=  3.12D-02 DF= -1.45D-05 DXR=  7.24D-02 DFR=  5.28D-03 which will be used.
 Gradient too large for Newton-Raphson -- use scaled steepest descent instead.
 Gradient too large for Newton-Raphson -- use scaled steepest descent instead.
 Gradient too large for Newton-Raphson -- use scaled steepest descent instead.
     Accept linear search using points  3 and  4.
     Minimum is close to point  4 DX= -4.70D-01 DF= -3.92D-05 DXR=  9.16D-02 DFR=  8.93D-03 which will be used.
 Gradient too large for Newton-Raphson -- use scaled steepest descent instead.
 Gradient too large for Newton-Raphson -- use scaled steepest descent instead.
     Minimum is close to point  3 DX=  3.04D-02 DF= -2.97D-07 DXR=  1.07D-02 DFR=  1.16D-04 which will be used.
 Gradient too large for Newton-Raphson -- use scaled steepest descent instead.
     Minimum is close to point  3 DX= -2.49D-02 DF= -5.68D-06 DXR=  5.24D-02 DFR=  2.75D-03 which will be used.
 Gradient too large for Newton-Raphson -- use scaled steepest descent instead.
     Accept linear search using points  1 and  2.
 Gradient too large for Newton-Raphson -- use scaled steepest descent instead.
     Accept linear search using points  1 and  2.
 Gradient too large for Newton-Raphson -- use scaled steepest descent instead.
 Gradient too large for Newton-Raphson -- use scaled steepest descent instead.
     Minimum is close to point  3 DX=  3.52D-02 DF= -8.95D-06 DXR=  8.08D-02 DFR=  6.58D-03 which will be used.
 Gradient too large for Newton-Raphson -- use scaled steepest descent instead.
 Gradient too large for Newton-Raphson -- use scaled steepest descent instead.
 Gradient too large for Newton-Raphson -- use scaled steepest descent instead.
 Gradient too large for Newton-Raphson -- use scaled steepest descent instead.
 Gradient too large for Newton-Raphson -- use scaled steepest descent instead.
 Gradient too large for Newton-Raphson -- use scaled steepest descent instead.
     Minimum is close to point  3 DX=  2.76D-02 DF= -3.96D-06 DXR=  6.46D-02 DFR=  4.20D-03 which will be used.
 Gradient too large for Newton-Raphson -- use scaled steepest descent instead.
     Minimum is close to point  3 DX=  2.16D-01 DF= -6.01D-06 DXR=  8.60D-02 DFR=  7.46D-03 which will be used.
 Gradient too large for Newton-Raphson -- use scaled steepest descent instead.
     Minimum is close to point  3 DX= -4.51D-03 DF= -4.73D-08 DXR=  9.10D-03 DFR=  8.28D-05 which will be used.
 Gradient too large for Newton-Raphson -- use scaled steepest descent instead.
     Accept linear search using points  1 and  2.
     Minimum is close to point  2 DX= -7.30D-02 DF= -2.10D-06 DXR=  7.11D-02 DFR=  5.93D-03 which will be used.
 Gradient too large for Newton-Raphson -- use scaled steepest descent instead.
     Accept linear search using points  1 and  2.
 Gradient too large for Newton-Raphson -- use scaled steepest descent instead.
     Minimum is close to point  4 DX=  2.01D-02 DF= -3.50D-08 DXR=  7.40D-03 DFR=  5.49D-05 which will be used.
 Gradient too large for Newton-Raphson -- use scaled steepest descent instead.
     Minimum is close to point  3 DX=  8.67D-03 DF= -2.56D-07 DXR=  2.12D-02 DFR=  4.50D-04 which will be used.
 Gradient too large for Newton-Raphson -- use scaled steepest descent instead.
     Accept linear search using points  3 and  4.
 Gradient too large for Newton-Raphson -- use scaled steepest descent instead.
 LinEq1:  Iter=  0 NonCon=     1 RMS=1.56D-04 Max=1.09D-02 NDo=     1
 AX will form     1 AO Fock derivatives at one time.
 LinEq1:  Iter=  1 NonCon=     1 RMS=8.67D-05 Max=1.84D-03 NDo=     1
 LinEq1:  Iter=  2 NonCon=     1 RMS=5.85D-05 Max=3.19D-03 NDo=     1
 LinEq1:  Iter=  3 NonCon=     1 RMS=4.90D-05 Max=1.66D-03 NDo=     1
 LinEq1:  Iter=  4 NonCon=     1 RMS=3.77D-05 Max=1.58D-03 NDo=     1
 LinEq1:  Iter=  5 NonCon=     1 RMS=4.27D-05 Max=1.07D-03 NDo=     1
 LinEq1:  Iter=  6 NonCon=     1 RMS=3.32D-05 Max=8.29D-04 NDo=     1
 LinEq1:  Iter=  7 NonCon=     1 RMS=2.52D-05 Max=5.86D-04 NDo=     1
 LinEq1:  Iter=  8 NonCon=     1 RMS=2.57D-05 Max=8.28D-04 NDo=     1
 LinEq1:  Iter=  9 NonCon=     1 RMS=2.47D-05 Max=4.31D-04 NDo=     1
 LinEq1:  Iter= 10 NonCon=     1 RMS=2.27D-05 Max=6.19D-04 NDo=     1
 LinEq1:  Iter= 11 NonCon=     1 RMS=1.76D-05 Max=5.26D-04 NDo=     1
 LinEq1:  Iter= 12 NonCon=     1 RMS=1.59D-05 Max=4.04D-04 NDo=     1
 LinEq1:  Iter= 13 NonCon=     1 RMS=1.21D-05 Max=3.18D-04 NDo=     1
 LinEq1:  Iter= 14 NonCon=     1 RMS=9.69D-06 Max=1.72D-04 NDo=     1
 LinEq1:  Iter= 15 NonCon=     1 RMS=8.73D-06 Max=2.19D-04 NDo=     1
 LinEq1:  Iter= 16 NonCon=     1 RMS=6.66D-06 Max=1.28D-04 NDo=     1
 LinEq1:  Iter= 17 NonCon=     1 RMS=6.11D-06 Max=1.96D-04 NDo=     1
 LinEq1:  Iter= 18 NonCon=     1 RMS=4.42D-06 Max=1.14D-04 NDo=     1
 LinEq1:  Iter= 19 NonCon=     1 RMS=3.14D-06 Max=8.97D-05 NDo=     1
 LinEq1:  Iter= 20 NonCon=     1 RMS=3.28D-06 Max=9.33D-05 NDo=     1
 LinEq1:  Iter= 21 NonCon=     1 RMS=3.11D-06 Max=1.26D-04 NDo=     1
 LinEq1:  Iter= 22 NonCon=     1 RMS=2.32D-06 Max=5.70D-05 NDo=     1
 LinEq1:  Iter= 23 NonCon=     1 RMS=1.51D-06 Max=4.34D-05 NDo=     1
 LinEq1:  Iter= 24 NonCon=     1 RMS=9.97D-07 Max=1.98D-05 NDo=     1
 LinEq1:  Iter= 25 NonCon=     1 RMS=5.80D-07 Max=1.28D-05 NDo=     1
 LinEq1:  Iter= 26 NonCon=     1 RMS=4.02D-07 Max=6.71D-06 NDo=     1
 LinEq1:  Iter= 27 NonCon=     1 RMS=2.60D-07 Max=5.69D-06 NDo=     1
 LinEq1:  Iter= 28 NonCon=     1 RMS=1.90D-07 Max=3.90D-06 NDo=     1
 LinEq1:  Iter= 29 NonCon=     1 RMS=1.30D-07 Max=2.60D-06 NDo=     1
 LinEq1:  Iter= 30 NonCon=     1 RMS=9.16D-08 Max=1.79D-06 NDo=     1
 LinEq1:  Iter= 31 NonCon=     1 RMS=5.73D-08 Max=9.84D-07 NDo=     1
 LinEq1:  Iter= 32 NonCon=     1 RMS=3.31D-08 Max=6.80D-07 NDo=     1
 LinEq1:  Iter= 33 NonCon=     1 RMS=2.06D-08 Max=3.39D-07 NDo=     1
 LinEq1:  Iter= 34 NonCon=     1 RMS=1.39D-08 Max=3.09D-07 NDo=     1
 LinEq1:  Iter= 35 NonCon=     0 RMS=7.33D-09 Max=1.42D-07 NDo=     1
 Linear equations converged to 2.989D-08 2.989D-07 after    35 iterations.
     Accept linear search using points  1 and  2.
 LinEq1:  Iter=  0 NonCon=     1 RMS=9.07D-05 Max=2.52D-03 NDo=     1
 LinEq1:  Iter=  1 NonCon=     1 RMS=1.25D-04 Max=4.01D-03 NDo=     1
 LinEq1:  Iter=  2 NonCon=     1 RMS=9.73D-05 Max=2.03D-03 NDo=     1
 LinEq1:  Iter=  3 NonCon=     1 RMS=9.65D-05 Max=2.99D-03 NDo=     1
 LinEq1:  Iter=  4 NonCon=     1 RMS=1.01D-04 Max=2.40D-03 NDo=     1
 LinEq1:  Iter=  5 NonCon=     1 RMS=8.70D-05 Max=1.65D-03 NDo=     1
 LinEq1:  Iter=  6 NonCon=     1 RMS=5.76D-05 Max=1.03D-03 NDo=     1
 LinEq1:  Iter=  7 NonCon=     1 RMS=6.00D-05 Max=1.48D-03 NDo=     1
 LinEq1:  Iter=  8 NonCon=     1 RMS=5.01D-05 Max=1.23D-03 NDo=     1
 LinEq1:  Iter=  9 NonCon=     1 RMS=4.16D-05 Max=1.11D-03 NDo=     1
 LinEq1:  Iter= 10 NonCon=     1 RMS=3.04D-05 Max=5.41D-04 NDo=     1
 LinEq1:  Iter= 11 NonCon=     1 RMS=1.98D-05 Max=5.60D-04 NDo=     1
 LinEq1:  Iter= 12 NonCon=     1 RMS=1.41D-05 Max=5.34D-04 NDo=     1
 LinEq1:  Iter= 13 NonCon=     1 RMS=1.31D-05 Max=4.69D-04 NDo=     1
 LinEq1:  Iter= 14 NonCon=     1 RMS=1.30D-05 Max=2.71D-04 NDo=     1
 LinEq1:  Iter= 15 NonCon=     1 RMS=1.20D-05 Max=3.26D-04 NDo=     1
 LinEq1:  Iter= 16 NonCon=     1 RMS=7.51D-06 Max=1.53D-04 NDo=     1
 LinEq1:  Iter= 17 NonCon=     1 RMS=6.91D-06 Max=2.16D-04 NDo=     1
 LinEq1:  Iter= 18 NonCon=     1 RMS=6.55D-06 Max=1.66D-04 NDo=     1
 LinEq1:  Iter= 19 NonCon=     1 RMS=7.07D-06 Max=2.08D-04 NDo=     1
 LinEq1:  Iter= 20 NonCon=     1 RMS=4.60D-06 Max=8.97D-05 NDo=     1
 LinEq1:  Iter= 21 NonCon=     1 RMS=3.47D-06 Max=6.86D-05 NDo=     1
 LinEq1:  Iter= 22 NonCon=     1 RMS=2.69D-06 Max=6.00D-05 NDo=     1
 LinEq1:  Iter= 23 NonCon=     1 RMS=2.25D-06 Max=7.03D-05 NDo=     1
 LinEq1:  Iter= 24 NonCon=     1 RMS=1.70D-06 Max=3.68D-05 NDo=     1
 LinEq1:  Iter= 25 NonCon=     1 RMS=1.22D-06 Max=2.16D-05 NDo=     1
 LinEq1:  Iter= 26 NonCon=     1 RMS=8.80D-07 Max=1.58D-05 NDo=     1
 LinEq1:  Iter= 27 NonCon=     1 RMS=6.39D-07 Max=1.19D-05 NDo=     1
 LinEq1:  Iter= 28 NonCon=     1 RMS=3.86D-07 Max=6.94D-06 NDo=     1
 LinEq1:  Iter= 29 NonCon=     1 RMS=2.59D-07 Max=6.05D-06 NDo=     1
 LinEq1:  Iter= 30 NonCon=     1 RMS=1.91D-07 Max=4.47D-06 NDo=     1
 LinEq1:  Iter= 31 NonCon=     1 RMS=1.17D-07 Max=2.29D-06 NDo=     1
 LinEq1:  Iter= 32 NonCon=     1 RMS=6.14D-08 Max=1.43D-06 NDo=     1
 LinEq1:  Iter= 33 NonCon=     1 RMS=4.27D-08 Max=8.04D-07 NDo=     1
 LinEq1:  Iter= 34 NonCon=     1 RMS=2.82D-08 Max=7.56D-07 NDo=     1
 LinEq1:  Iter= 35 NonCon=     0 RMS=1.62D-08 Max=2.73D-07 NDo=     1
 Linear equations converged to 2.989D-08 2.989D-07 after    35 iterations.
 LinEq1:  Iter=  0 NonCon=     1 RMS=8.22D-06 Max=2.31D-04 NDo=     1
 LinEq1:  Iter=  1 NonCon=     1 RMS=9.82D-06 Max=2.09D-04 NDo=     1
 LinEq1:  Iter=  2 NonCon=     1 RMS=8.76D-06 Max=1.53D-04 NDo=     1
 LinEq1:  Iter=  3 NonCon=     1 RMS=9.17D-06 Max=1.82D-04 NDo=     1
 LinEq1:  Iter=  4 NonCon=     1 RMS=7.59D-06 Max=1.49D-04 NDo=     1
 LinEq1:  Iter=  5 NonCon=     1 RMS=8.12D-06 Max=1.79D-04 NDo=     1
 LinEq1:  Iter=  6 NonCon=     1 RMS=6.99D-06 Max=1.40D-04 NDo=     1
 LinEq1:  Iter=  7 NonCon=     1 RMS=6.03D-06 Max=1.49D-04 NDo=     1
 LinEq1:  Iter=  8 NonCon=     1 RMS=5.04D-06 Max=1.31D-04 NDo=     1
 LinEq1:  Iter=  9 NonCon=     1 RMS=4.99D-06 Max=1.57D-04 NDo=     1
 LinEq1:  Iter= 10 NonCon=     1 RMS=4.65D-06 Max=1.11D-04 NDo=     1
 LinEq1:  Iter= 11 NonCon=     1 RMS=4.26D-06 Max=1.13D-04 NDo=     1
 LinEq1:  Iter= 12 NonCon=     1 RMS=3.52D-06 Max=7.26D-05 NDo=     1
 LinEq1:  Iter= 13 NonCon=     1 RMS=2.59D-06 Max=5.24D-05 NDo=     1
 LinEq1:  Iter= 14 NonCon=     1 RMS=2.26D-06 Max=4.24D-05 NDo=     1
 LinEq1:  Iter= 15 NonCon=     1 RMS=2.16D-06 Max=4.94D-05 NDo=     1
 LinEq1:  Iter= 16 NonCon=     1 RMS=1.80D-06 Max=3.40D-05 NDo=     1
 LinEq1:  Iter= 17 NonCon=     1 RMS=1.38D-06 Max=3.08D-05 NDo=     1
 LinEq1:  Iter= 18 NonCon=     1 RMS=1.32D-06 Max=3.05D-05 NDo=     1
 LinEq1:  Iter= 19 NonCon=     1 RMS=1.33D-06 Max=2.31D-05 NDo=     1
 LinEq1:  Iter= 20 NonCon=     1 RMS=9.01D-07 Max=2.64D-05 NDo=     1
 LinEq1:  Iter= 21 NonCon=     1 RMS=7.69D-07 Max=2.18D-05 NDo=     1
 LinEq1:  Iter= 22 NonCon=     1 RMS=4.38D-07 Max=1.55D-05 NDo=     1
 LinEq1:  Iter= 23 NonCon=     1 RMS=3.43D-07 Max=1.05D-05 NDo=     1
 LinEq1:  Iter= 24 NonCon=     1 RMS=2.06D-07 Max=3.67D-06 NDo=     1
 LinEq1:  Iter= 25 NonCon=     1 RMS=1.51D-07 Max=2.94D-06 NDo=     1
 LinEq1:  Iter= 26 NonCon=     1 RMS=1.01D-07 Max=1.76D-06 NDo=     1
 LinEq1:  Iter= 27 NonCon=     1 RMS=6.37D-08 Max=1.28D-06 NDo=     1
 LinEq1:  Iter= 28 NonCon=     1 RMS=3.93D-08 Max=7.94D-07 NDo=     1
 LinEq1:  Iter= 29 NonCon=     1 RMS=2.62D-08 Max=5.43D-07 NDo=     1
 LinEq1:  Iter= 30 NonCon=     1 RMS=2.00D-08 Max=3.66D-07 NDo=     1
 LinEq1:  Iter= 31 NonCon=     1 RMS=1.24D-08 Max=2.09D-07 NDo=     1
 LinEq1:  Iter= 32 NonCon=     1 RMS=8.25D-09 Max=2.47D-07 NDo=     1
 LinEq1:  Iter= 33 NonCon=     1 RMS=4.34D-09 Max=1.38D-07 NDo=     1
 LinEq1:  Iter= 34 NonCon=     0 RMS=2.14D-09 Max=6.04D-08 NDo=     1
 Linear equations converged to 8.152D-09 8.152D-08 after    34 iterations.
 Incorrect curvature in search direction -- initial direction reversed.
     Minimum is close to point  4 DX= -2.46D-01 DF= -6.88D-07 DXR=  6.54D-02 DFR=  1.27D-02 which will be used.
 LinEq1:  Iter=  0 NonCon=     1 RMS=4.47D-05 Max=1.73D-03 NDo=     1
 LinEq1:  Iter=  1 NonCon=     1 RMS=5.14D-05 Max=1.29D-03 NDo=     1
 LinEq1:  Iter=  2 NonCon=     1 RMS=3.97D-05 Max=1.00D-03 NDo=     1
 LinEq1:  Iter=  3 NonCon=     1 RMS=4.10D-05 Max=8.64D-04 NDo=     1
 LinEq1:  Iter=  4 NonCon=     1 RMS=3.01D-05 Max=6.29D-04 NDo=     1
 LinEq1:  Iter=  5 NonCon=     1 RMS=2.75D-05 Max=6.66D-04 NDo=     1
 LinEq1:  Iter=  6 NonCon=     1 RMS=2.54D-05 Max=4.61D-04 NDo=     1
 LinEq1:  Iter=  7 NonCon=     1 RMS=2.50D-05 Max=5.17D-04 NDo=     1
 LinEq1:  Iter=  8 NonCon=     1 RMS=2.39D-05 Max=5.03D-04 NDo=     1
 LinEq1:  Iter=  9 NonCon=     1 RMS=2.46D-05 Max=7.02D-04 NDo=     1
 LinEq1:  Iter= 10 NonCon=     1 RMS=2.20D-05 Max=4.34D-04 NDo=     1
 LinEq1:  Iter= 11 NonCon=     1 RMS=1.82D-05 Max=3.84D-04 NDo=     1
 LinEq1:  Iter= 12 NonCon=     1 RMS=1.63D-05 Max=3.32D-04 NDo=     1
 LinEq1:  Iter= 13 NonCon=     1 RMS=1.29D-05 Max=3.14D-04 NDo=     1
 LinEq1:  Iter= 14 NonCon=     1 RMS=1.27D-05 Max=2.75D-04 NDo=     1
 LinEq1:  Iter= 15 NonCon=     1 RMS=1.23D-05 Max=3.20D-04 NDo=     1
 LinEq1:  Iter= 16 NonCon=     1 RMS=1.04D-05 Max=2.39D-04 NDo=     1
 LinEq1:  Iter= 17 NonCon=     1 RMS=7.09D-06 Max=1.43D-04 NDo=     1
 LinEq1:  Iter= 18 NonCon=     1 RMS=7.18D-06 Max=1.43D-04 NDo=     1
 LinEq1:  Iter= 19 NonCon=     1 RMS=7.27D-06 Max=1.36D-04 NDo=     1
 LinEq1:  Iter= 20 NonCon=     1 RMS=5.19D-06 Max=1.23D-04 NDo=     1
 LinEq1:  Iter= 21 NonCon=     1 RMS=4.17D-06 Max=1.26D-04 NDo=     1
 LinEq1:  Iter= 22 NonCon=     1 RMS=2.29D-06 Max=8.91D-05 NDo=     1
 LinEq1:  Iter= 23 NonCon=     1 RMS=1.75D-06 Max=5.05D-05 NDo=     1
 LinEq1:  Iter= 24 NonCon=     1 RMS=1.19D-06 Max=2.55D-05 NDo=     1
 LinEq1:  Iter= 25 NonCon=     1 RMS=8.76D-07 Max=1.69D-05 NDo=     1
 LinEq1:  Iter= 26 NonCon=     1 RMS=5.58D-07 Max=1.06D-05 NDo=     1
 LinEq1:  Iter= 27 NonCon=     1 RMS=3.44D-07 Max=5.83D-06 NDo=     1
 LinEq1:  Iter= 28 NonCon=     1 RMS=2.08D-07 Max=4.60D-06 NDo=     1
 LinEq1:  Iter= 29 NonCon=     1 RMS=1.40D-07 Max=2.62D-06 NDo=     1
 LinEq1:  Iter= 30 NonCon=     1 RMS=9.82D-08 Max=2.88D-06 NDo=     1
 LinEq1:  Iter= 31 NonCon=     1 RMS=5.42D-08 Max=1.25D-06 NDo=     1
 LinEq1:  Iter= 32 NonCon=     1 RMS=4.03D-08 Max=9.05D-07 NDo=     1
 LinEq1:  Iter= 33 NonCon=     1 RMS=2.37D-08 Max=4.65D-07 NDo=     1
 LinEq1:  Iter= 34 NonCon=     1 RMS=1.47D-08 Max=3.26D-07 NDo=     1
 LinEq1:  Iter= 35 NonCon=     0 RMS=1.12D-08 Max=1.94D-07 NDo=     1
 Linear equations converged to 2.989D-08 2.989D-07 after    35 iterations.
 Incorrect curvature in search direction -- initial direction reversed.
 LinEq1:  Iter=  0 NonCon=     1 RMS=6.56D-05 Max=1.77D-03 NDo=     1
 LinEq1:  Iter=  1 NonCon=     1 RMS=7.10D-05 Max=1.80D-03 NDo=     1
 LinEq1:  Iter=  2 NonCon=     1 RMS=5.87D-05 Max=1.31D-03 NDo=     1
 LinEq1:  Iter=  3 NonCon=     1 RMS=6.35D-05 Max=1.48D-03 NDo=     1
 LinEq1:  Iter=  4 NonCon=     1 RMS=5.27D-05 Max=8.89D-04 NDo=     1
 LinEq1:  Iter=  5 NonCon=     1 RMS=5.66D-05 Max=1.07D-03 NDo=     1
 LinEq1:  Iter=  6 NonCon=     1 RMS=5.16D-05 Max=1.06D-03 NDo=     1
 LinEq1:  Iter=  7 NonCon=     1 RMS=4.96D-05 Max=9.69D-04 NDo=     1
 LinEq1:  Iter=  8 NonCon=     1 RMS=4.09D-05 Max=1.01D-03 NDo=     1
 LinEq1:  Iter=  9 NonCon=     1 RMS=3.69D-05 Max=8.08D-04 NDo=     1
 LinEq1:  Iter= 10 NonCon=     1 RMS=3.29D-05 Max=6.38D-04 NDo=     1
 LinEq1:  Iter= 11 NonCon=     1 RMS=2.47D-05 Max=5.71D-04 NDo=     1
 LinEq1:  Iter= 12 NonCon=     1 RMS=2.35D-05 Max=4.75D-04 NDo=     1
 LinEq1:  Iter= 13 NonCon=     1 RMS=2.02D-05 Max=5.03D-04 NDo=     1
 LinEq1:  Iter= 14 NonCon=     1 RMS=1.96D-05 Max=3.44D-04 NDo=     1
 LinEq1:  Iter= 15 NonCon=     1 RMS=1.77D-05 Max=3.67D-04 NDo=     1
 LinEq1:  Iter= 16 NonCon=     1 RMS=1.41D-05 Max=4.29D-04 NDo=     1
 LinEq1:  Iter= 17 NonCon=     1 RMS=1.01D-05 Max=2.21D-04 NDo=     1
 LinEq1:  Iter= 18 NonCon=     1 RMS=9.80D-06 Max=2.23D-04 NDo=     1
 LinEq1:  Iter= 19 NonCon=     1 RMS=9.69D-06 Max=2.24D-04 NDo=     1
 LinEq1:  Iter= 20 NonCon=     1 RMS=7.45D-06 Max=1.37D-04 NDo=     1
 LinEq1:  Iter= 21 NonCon=     1 RMS=5.62D-06 Max=1.34D-04 NDo=     1
 LinEq1:  Iter= 22 NonCon=     1 RMS=3.26D-06 Max=7.55D-05 NDo=     1
 LinEq1:  Iter= 23 NonCon=     1 RMS=2.58D-06 Max=4.69D-05 NDo=     1
 LinEq1:  Iter= 24 NonCon=     1 RMS=1.75D-06 Max=3.30D-05 NDo=     1
 LinEq1:  Iter= 25 NonCon=     1 RMS=1.06D-06 Max=2.24D-05 NDo=     1
 LinEq1:  Iter= 26 NonCon=     1 RMS=6.32D-07 Max=1.26D-05 NDo=     1
 LinEq1:  Iter= 27 NonCon=     1 RMS=4.59D-07 Max=7.76D-06 NDo=     1
 LinEq1:  Iter= 28 NonCon=     1 RMS=2.88D-07 Max=6.62D-06 NDo=     1
 LinEq1:  Iter= 29 NonCon=     1 RMS=1.78D-07 Max=3.56D-06 NDo=     1
 LinEq1:  Iter= 30 NonCon=     1 RMS=1.24D-07 Max=2.48D-06 NDo=     1
 LinEq1:  Iter= 31 NonCon=     1 RMS=6.40D-08 Max=1.27D-06 NDo=     1
 LinEq1:  Iter= 32 NonCon=     1 RMS=4.59D-08 Max=1.00D-06 NDo=     1
 LinEq1:  Iter= 33 NonCon=     1 RMS=3.15D-08 Max=7.39D-07 NDo=     1
 LinEq1:  Iter= 34 NonCon=     1 RMS=1.80D-08 Max=4.54D-07 NDo=     1
 LinEq1:  Iter= 35 NonCon=     0 RMS=1.20D-08 Max=2.57D-07 NDo=     1
 Linear equations converged to 2.989D-08 2.989D-07 after    35 iterations.
 LinEq1:  Iter=  0 NonCon=     1 RMS=6.53D-05 Max=1.78D-03 NDo=     1
 LinEq1:  Iter=  1 NonCon=     1 RMS=7.07D-05 Max=1.77D-03 NDo=     1
 LinEq1:  Iter=  2 NonCon=     1 RMS=5.86D-05 Max=1.33D-03 NDo=     1
 LinEq1:  Iter=  3 NonCon=     1 RMS=6.34D-05 Max=1.47D-03 NDo=     1
 LinEq1:  Iter=  4 NonCon=     1 RMS=5.25D-05 Max=8.70D-04 NDo=     1
 LinEq1:  Iter=  5 NonCon=     1 RMS=5.64D-05 Max=1.06D-03 NDo=     1
 LinEq1:  Iter=  6 NonCon=     1 RMS=5.14D-05 Max=9.36D-04 NDo=     1
 LinEq1:  Iter=  7 NonCon=     1 RMS=4.95D-05 Max=9.70D-04 NDo=     1
 LinEq1:  Iter=  8 NonCon=     1 RMS=4.07D-05 Max=1.01D-03 NDo=     1
 LinEq1:  Iter=  9 NonCon=     1 RMS=3.68D-05 Max=8.04D-04 NDo=     1
 LinEq1:  Iter= 10 NonCon=     1 RMS=3.28D-05 Max=6.22D-04 NDo=     1
 LinEq1:  Iter= 11 NonCon=     1 RMS=2.46D-05 Max=5.54D-04 NDo=     1
 LinEq1:  Iter= 12 NonCon=     1 RMS=2.34D-05 Max=4.62D-04 NDo=     1
 LinEq1:  Iter= 13 NonCon=     1 RMS=2.02D-05 Max=5.00D-04 NDo=     1
 LinEq1:  Iter= 14 NonCon=     1 RMS=1.96D-05 Max=3.42D-04 NDo=     1
 LinEq1:  Iter= 15 NonCon=     1 RMS=1.76D-05 Max=3.64D-04 NDo=     1
 LinEq1:  Iter= 16 NonCon=     1 RMS=1.41D-05 Max=4.41D-04 NDo=     1
 LinEq1:  Iter= 17 NonCon=     1 RMS=9.99D-06 Max=2.17D-04 NDo=     1
 LinEq1:  Iter= 18 NonCon=     1 RMS=9.67D-06 Max=2.18D-04 NDo=     1
 LinEq1:  Iter= 19 NonCon=     1 RMS=9.58D-06 Max=2.26D-04 NDo=     1
 LinEq1:  Iter= 20 NonCon=     1 RMS=7.42D-06 Max=1.32D-04 NDo=     1
 LinEq1:  Iter= 21 NonCon=     1 RMS=5.59D-06 Max=1.35D-04 NDo=     1
 LinEq1:  Iter= 22 NonCon=     1 RMS=3.27D-06 Max=7.61D-05 NDo=     1
 LinEq1:  Iter= 23 NonCon=     1 RMS=2.58D-06 Max=4.96D-05 NDo=     1
 LinEq1:  Iter= 24 NonCon=     1 RMS=1.74D-06 Max=3.07D-05 NDo=     1
 LinEq1:  Iter= 25 NonCon=     1 RMS=1.05D-06 Max=2.40D-05 NDo=     1
 LinEq1:  Iter= 26 NonCon=     1 RMS=6.28D-07 Max=1.17D-05 NDo=     1
 LinEq1:  Iter= 27 NonCon=     1 RMS=4.55D-07 Max=7.97D-06 NDo=     1
 LinEq1:  Iter= 28 NonCon=     1 RMS=2.84D-07 Max=6.24D-06 NDo=     1
 LinEq1:  Iter= 29 NonCon=     1 RMS=1.75D-07 Max=3.87D-06 NDo=     1
 LinEq1:  Iter= 30 NonCon=     1 RMS=1.22D-07 Max=2.29D-06 NDo=     1
 LinEq1:  Iter= 31 NonCon=     1 RMS=6.31D-08 Max=1.23D-06 NDo=     1
 LinEq1:  Iter= 32 NonCon=     1 RMS=4.52D-08 Max=1.00D-06 NDo=     1
 LinEq1:  Iter= 33 NonCon=     1 RMS=3.10D-08 Max=7.01D-07 NDo=     1
 LinEq1:  Iter= 34 NonCon=     1 RMS=1.78D-08 Max=4.72D-07 NDo=     1
 LinEq1:  Iter= 35 NonCon=     0 RMS=1.19D-08 Max=2.55D-07 NDo=     1
 Linear equations converged to 2.989D-08 2.989D-07 after    35 iterations.
 LinEq1:  Iter=  0 NonCon=     1 RMS=6.75D-05 Max=1.97D-03 NDo=     1
 LinEq1:  Iter=  1 NonCon=     1 RMS=7.34D-05 Max=2.03D-03 NDo=     1
 LinEq1:  Iter=  2 NonCon=     1 RMS=6.44D-05 Max=1.46D-03 NDo=     1
 LinEq1:  Iter=  3 NonCon=     1 RMS=7.20D-05 Max=1.70D-03 NDo=     1
 LinEq1:  Iter=  4 NonCon=     1 RMS=5.96D-05 Max=9.41D-04 NDo=     1
 LinEq1:  Iter=  5 NonCon=     1 RMS=6.20D-05 Max=1.12D-03 NDo=     1
 LinEq1:  Iter=  6 NonCon=     1 RMS=5.44D-05 Max=9.54D-04 NDo=     1
 LinEq1:  Iter=  7 NonCon=     1 RMS=5.16D-05 Max=1.03D-03 NDo=     1
 LinEq1:  Iter=  8 NonCon=     1 RMS=4.06D-05 Max=1.03D-03 NDo=     1
 LinEq1:  Iter=  9 NonCon=     1 RMS=3.72D-05 Max=7.78D-04 NDo=     1
 LinEq1:  Iter= 10 NonCon=     1 RMS=3.46D-05 Max=8.06D-04 NDo=     1
 LinEq1:  Iter= 11 NonCon=     1 RMS=2.50D-05 Max=5.44D-04 NDo=     1
 LinEq1:  Iter= 12 NonCon=     1 RMS=2.51D-05 Max=5.04D-04 NDo=     1
 LinEq1:  Iter= 13 NonCon=     1 RMS=2.16D-05 Max=5.16D-04 NDo=     1
 LinEq1:  Iter= 14 NonCon=     1 RMS=2.03D-05 Max=4.46D-04 NDo=     1
 LinEq1:  Iter= 15 NonCon=     1 RMS=1.74D-05 Max=3.40D-04 NDo=     1
 LinEq1:  Iter= 16 NonCon=     1 RMS=1.44D-05 Max=5.23D-04 NDo=     1
 LinEq1:  Iter= 17 NonCon=     1 RMS=1.04D-05 Max=2.09D-04 NDo=     1
 LinEq1:  Iter= 18 NonCon=     1 RMS=8.94D-06 Max=2.34D-04 NDo=     1
 LinEq1:  Iter= 19 NonCon=     1 RMS=8.73D-06 Max=2.33D-04 NDo=     1
 LinEq1:  Iter= 20 NonCon=     1 RMS=7.55D-06 Max=1.21D-04 NDo=     1
 LinEq1:  Iter= 21 NonCon=     1 RMS=5.81D-06 Max=1.41D-04 NDo=     1
 LinEq1:  Iter= 22 NonCon=     1 RMS=3.64D-06 Max=7.07D-05 NDo=     1
 LinEq1:  Iter= 23 NonCon=     1 RMS=2.75D-06 Max=5.26D-05 NDo=     1
 LinEq1:  Iter= 24 NonCon=     1 RMS=1.82D-06 Max=3.25D-05 NDo=     1
 LinEq1:  Iter= 25 NonCon=     1 RMS=1.11D-06 Max=2.73D-05 NDo=     1
 LinEq1:  Iter= 26 NonCon=     1 RMS=7.53D-07 Max=1.52D-05 NDo=     1
 LinEq1:  Iter= 27 NonCon=     1 RMS=5.04D-07 Max=1.20D-05 NDo=     1
 LinEq1:  Iter= 28 NonCon=     1 RMS=2.96D-07 Max=5.86D-06 NDo=     1
 LinEq1:  Iter= 29 NonCon=     1 RMS=2.06D-07 Max=3.61D-06 NDo=     1
 LinEq1:  Iter= 30 NonCon=     1 RMS=1.34D-07 Max=2.81D-06 NDo=     1
 LinEq1:  Iter= 31 NonCon=     1 RMS=6.54D-08 Max=1.42D-06 NDo=     1
 LinEq1:  Iter= 32 NonCon=     1 RMS=4.73D-08 Max=9.06D-07 NDo=     1
 LinEq1:  Iter= 33 NonCon=     1 RMS=3.21D-08 Max=7.37D-07 NDo=     1
 LinEq1:  Iter= 34 NonCon=     1 RMS=1.77D-08 Max=3.99D-07 NDo=     1
 LinEq1:  Iter= 35 NonCon=     0 RMS=1.04D-08 Max=1.96D-07 NDo=     1
 Linear equations converged to 2.989D-08 2.989D-07 after    35 iterations.
 LinEq1:  Iter=  0 NonCon=     1 RMS=6.73D-05 Max=1.95D-03 NDo=     1
 LinEq1:  Iter=  1 NonCon=     1 RMS=7.32D-05 Max=2.10D-03 NDo=     1
 LinEq1:  Iter=  2 NonCon=     1 RMS=6.43D-05 Max=1.46D-03 NDo=     1
 LinEq1:  Iter=  3 NonCon=     1 RMS=7.19D-05 Max=1.92D-03 NDo=     1
 LinEq1:  Iter=  4 NonCon=     1 RMS=5.94D-05 Max=9.56D-04 NDo=     1
 LinEq1:  Iter=  5 NonCon=     1 RMS=6.17D-05 Max=1.11D-03 NDo=     1
 LinEq1:  Iter=  6 NonCon=     1 RMS=5.42D-05 Max=9.54D-04 NDo=     1
 LinEq1:  Iter=  7 NonCon=     1 RMS=5.15D-05 Max=1.05D-03 NDo=     1
 LinEq1:  Iter=  8 NonCon=     1 RMS=4.05D-05 Max=1.05D-03 NDo=     1
 LinEq1:  Iter=  9 NonCon=     1 RMS=3.71D-05 Max=7.81D-04 NDo=     1
 LinEq1:  Iter= 10 NonCon=     1 RMS=3.45D-05 Max=8.25D-04 NDo=     1
 LinEq1:  Iter= 11 NonCon=     1 RMS=2.49D-05 Max=5.44D-04 NDo=     1
 LinEq1:  Iter= 12 NonCon=     1 RMS=2.50D-05 Max=4.83D-04 NDo=     1
 LinEq1:  Iter= 13 NonCon=     1 RMS=2.15D-05 Max=5.25D-04 NDo=     1
 LinEq1:  Iter= 14 NonCon=     1 RMS=2.02D-05 Max=4.53D-04 NDo=     1
 LinEq1:  Iter= 15 NonCon=     1 RMS=1.73D-05 Max=3.36D-04 NDo=     1
 LinEq1:  Iter= 16 NonCon=     1 RMS=1.43D-05 Max=5.27D-04 NDo=     1
 LinEq1:  Iter= 17 NonCon=     1 RMS=1.04D-05 Max=2.03D-04 NDo=     1
 LinEq1:  Iter= 18 NonCon=     1 RMS=8.84D-06 Max=2.30D-04 NDo=     1
 LinEq1:  Iter= 19 NonCon=     1 RMS=8.56D-06 Max=2.30D-04 NDo=     1
 LinEq1:  Iter= 20 NonCon=     1 RMS=7.49D-06 Max=1.24D-04 NDo=     1
 LinEq1:  Iter= 21 NonCon=     1 RMS=5.79D-06 Max=1.42D-04 NDo=     1
 LinEq1:  Iter= 22 NonCon=     1 RMS=3.65D-06 Max=7.14D-05 NDo=     1
 LinEq1:  Iter= 23 NonCon=     1 RMS=2.74D-06 Max=5.30D-05 NDo=     1
 LinEq1:  Iter= 24 NonCon=     1 RMS=1.81D-06 Max=3.14D-05 NDo=     1
 LinEq1:  Iter= 25 NonCon=     1 RMS=1.11D-06 Max=2.67D-05 NDo=     1
 LinEq1:  Iter= 26 NonCon=     1 RMS=7.52D-07 Max=1.50D-05 NDo=     1
 LinEq1:  Iter= 27 NonCon=     1 RMS=5.01D-07 Max=1.17D-05 NDo=     1
 LinEq1:  Iter= 28 NonCon=     1 RMS=2.94D-07 Max=5.85D-06 NDo=     1
 LinEq1:  Iter= 29 NonCon=     1 RMS=2.05D-07 Max=3.51D-06 NDo=     1
 LinEq1:  Iter= 30 NonCon=     1 RMS=1.32D-07 Max=2.84D-06 NDo=     1
 LinEq1:  Iter= 31 NonCon=     1 RMS=6.44D-08 Max=1.51D-06 NDo=     1
 LinEq1:  Iter= 32 NonCon=     1 RMS=4.66D-08 Max=8.81D-07 NDo=     1
 LinEq1:  Iter= 33 NonCon=     1 RMS=3.17D-08 Max=7.89D-07 NDo=     1
 LinEq1:  Iter= 34 NonCon=     1 RMS=1.75D-08 Max=4.41D-07 NDo=     1
 LinEq1:  Iter= 35 NonCon=     0 RMS=1.04D-08 Max=2.11D-07 NDo=     1
 Linear equations converged to 2.989D-08 2.989D-07 after    35 iterations.
 LinEq1:  Iter=  0 NonCon=     1 RMS=7.60D-05 Max=2.08D-03 NDo=     1
 LinEq1:  Iter=  1 NonCon=     1 RMS=8.76D-05 Max=3.26D-03 NDo=     1
 LinEq1:  Iter=  2 NonCon=     1 RMS=8.04D-05 Max=1.60D-03 NDo=     1
 LinEq1:  Iter=  3 NonCon=     1 RMS=8.64D-05 Max=2.33D-03 NDo=     1
 LinEq1:  Iter=  4 NonCon=     1 RMS=6.97D-05 Max=1.38D-03 NDo=     1
 LinEq1:  Iter=  5 NonCon=     1 RMS=6.98D-05 Max=1.27D-03 NDo=     1
 LinEq1:  Iter=  6 NonCon=     1 RMS=6.08D-05 Max=1.11D-03 NDo=     1
 LinEq1:  Iter=  7 NonCon=     1 RMS=5.86D-05 Max=1.36D-03 NDo=     1
 LinEq1:  Iter=  8 NonCon=     1 RMS=4.65D-05 Max=1.20D-03 NDo=     1
 LinEq1:  Iter=  9 NonCon=     1 RMS=4.30D-05 Max=9.81D-04 NDo=     1
 LinEq1:  Iter= 10 NonCon=     1 RMS=4.15D-05 Max=1.28D-03 NDo=     1
 LinEq1:  Iter= 11 NonCon=     1 RMS=2.74D-05 Max=6.44D-04 NDo=     1
 LinEq1:  Iter= 12 NonCon=     1 RMS=2.85D-05 Max=6.22D-04 NDo=     1
 LinEq1:  Iter= 13 NonCon=     1 RMS=2.45D-05 Max=6.56D-04 NDo=     1
 LinEq1:  Iter= 14 NonCon=     1 RMS=2.26D-05 Max=5.91D-04 NDo=     1
 LinEq1:  Iter= 15 NonCon=     1 RMS=1.76D-05 Max=3.74D-04 NDo=     1
 LinEq1:  Iter= 16 NonCon=     1 RMS=1.54D-05 Max=5.44D-04 NDo=     1
 LinEq1:  Iter= 17 NonCon=     1 RMS=1.14D-05 Max=2.24D-04 NDo=     1
 LinEq1:  Iter= 18 NonCon=     1 RMS=9.00D-06 Max=2.46D-04 NDo=     1
 LinEq1:  Iter= 19 NonCon=     1 RMS=7.50D-06 Max=1.80D-04 NDo=     1
 LinEq1:  Iter= 20 NonCon=     1 RMS=7.24D-06 Max=1.16D-04 NDo=     1
 LinEq1:  Iter= 21 NonCon=     1 RMS=6.57D-06 Max=1.47D-04 NDo=     1
 LinEq1:  Iter= 22 NonCon=     1 RMS=4.35D-06 Max=1.06D-04 NDo=     1
 LinEq1:  Iter= 23 NonCon=     1 RMS=3.02D-06 Max=5.98D-05 NDo=     1
 LinEq1:  Iter= 24 NonCon=     1 RMS=2.15D-06 Max=3.76D-05 NDo=     1
 LinEq1:  Iter= 25 NonCon=     1 RMS=1.30D-06 Max=3.18D-05 NDo=     1
 LinEq1:  Iter= 26 NonCon=     1 RMS=9.29D-07 Max=2.19D-05 NDo=     1
 LinEq1:  Iter= 27 NonCon=     1 RMS=6.13D-07 Max=1.28D-05 NDo=     1
 LinEq1:  Iter= 28 NonCon=     1 RMS=3.65D-07 Max=7.35D-06 NDo=     1
 LinEq1:  Iter= 29 NonCon=     1 RMS=2.66D-07 Max=4.20D-06 NDo=     1
 LinEq1:  Iter= 30 NonCon=     1 RMS=1.52D-07 Max=3.15D-06 NDo=     1
 LinEq1:  Iter= 31 NonCon=     1 RMS=8.27D-08 Max=1.78D-06 NDo=     1
 LinEq1:  Iter= 32 NonCon=     1 RMS=5.73D-08 Max=1.01D-06 NDo=     1
 LinEq1:  Iter= 33 NonCon=     1 RMS=3.39D-08 Max=7.12D-07 NDo=     1
 LinEq1:  Iter= 34 NonCon=     1 RMS=2.43D-08 Max=3.72D-07 NDo=     1
 LinEq1:  Iter= 35 NonCon=     0 RMS=1.60D-08 Max=2.93D-07 NDo=     1
 Linear equations converged to 2.989D-08 2.989D-07 after    35 iterations.
 LinEq1:  Iter=  0 NonCon=     1 RMS=7.30D-05 Max=2.14D-03 NDo=     1
 LinEq1:  Iter=  1 NonCon=     1 RMS=8.56D-05 Max=2.75D-03 NDo=     1
 LinEq1:  Iter=  2 NonCon=     1 RMS=7.85D-05 Max=2.61D-03 NDo=     1
 LinEq1:  Iter=  3 NonCon=     1 RMS=7.73D-05 Max=2.25D-03 NDo=     1
 LinEq1:  Iter=  4 NonCon=     1 RMS=6.83D-05 Max=1.62D-03 NDo=     1
 LinEq1:  Iter=  5 NonCon=     1 RMS=7.13D-05 Max=1.51D-03 NDo=     1
 LinEq1:  Iter=  6 NonCon=     1 RMS=5.79D-05 Max=1.22D-03 NDo=     1
 LinEq1:  Iter=  7 NonCon=     1 RMS=5.60D-05 Max=1.16D-03 NDo=     1
 LinEq1:  Iter=  8 NonCon=     1 RMS=5.06D-05 Max=1.32D-03 NDo=     1
 LinEq1:  Iter=  9 NonCon=     1 RMS=4.34D-05 Max=8.61D-04 NDo=     1
 LinEq1:  Iter= 10 NonCon=     1 RMS=3.96D-05 Max=1.20D-03 NDo=     1
 LinEq1:  Iter= 11 NonCon=     1 RMS=2.53D-05 Max=6.82D-04 NDo=     1
 LinEq1:  Iter= 12 NonCon=     1 RMS=2.68D-05 Max=5.80D-04 NDo=     1
 LinEq1:  Iter= 13 NonCon=     1 RMS=2.33D-05 Max=5.27D-04 NDo=     1
 LinEq1:  Iter= 14 NonCon=     1 RMS=2.07D-05 Max=6.73D-04 NDo=     1
 LinEq1:  Iter= 15 NonCon=     1 RMS=1.70D-05 Max=3.63D-04 NDo=     1
 LinEq1:  Iter= 16 NonCon=     1 RMS=1.39D-05 Max=3.32D-04 NDo=     1
 LinEq1:  Iter= 17 NonCon=     1 RMS=1.04D-05 Max=2.27D-04 NDo=     1
 LinEq1:  Iter= 18 NonCon=     1 RMS=8.08D-06 Max=1.59D-04 NDo=     1
 LinEq1:  Iter= 19 NonCon=     1 RMS=6.41D-06 Max=1.18D-04 NDo=     1
 LinEq1:  Iter= 20 NonCon=     1 RMS=6.15D-06 Max=9.20D-05 NDo=     1
 LinEq1:  Iter= 21 NonCon=     1 RMS=5.99D-06 Max=1.03D-04 NDo=     1
 LinEq1:  Iter= 22 NonCon=     1 RMS=4.16D-06 Max=8.86D-05 NDo=     1
 LinEq1:  Iter= 23 NonCon=     1 RMS=3.04D-06 Max=5.16D-05 NDo=     1
 LinEq1:  Iter= 24 NonCon=     1 RMS=2.13D-06 Max=4.75D-05 NDo=     1
 LinEq1:  Iter= 25 NonCon=     1 RMS=1.25D-06 Max=2.40D-05 NDo=     1
 LinEq1:  Iter= 26 NonCon=     1 RMS=9.33D-07 Max=2.12D-05 NDo=     1
 LinEq1:  Iter= 27 NonCon=     1 RMS=6.08D-07 Max=1.02D-05 NDo=     1
 LinEq1:  Iter= 28 NonCon=     1 RMS=3.47D-07 Max=6.96D-06 NDo=     1
 LinEq1:  Iter= 29 NonCon=     1 RMS=2.53D-07 Max=4.13D-06 NDo=     1
 LinEq1:  Iter= 30 NonCon=     1 RMS=1.39D-07 Max=2.49D-06 NDo=     1
 LinEq1:  Iter= 31 NonCon=     1 RMS=7.31D-08 Max=1.34D-06 NDo=     1
 LinEq1:  Iter= 32 NonCon=     1 RMS=4.64D-08 Max=8.07D-07 NDo=     1
 LinEq1:  Iter= 33 NonCon=     1 RMS=2.35D-08 Max=4.61D-07 NDo=     1
 LinEq1:  Iter= 34 NonCon=     0 RMS=1.60D-08 Max=2.76D-07 NDo=     1
 Linear equations converged to 2.989D-08 2.989D-07 after    34 iterations.
     Accept linear search using points  1 and  2.
     Minimum is close to point  2 DX= -1.20D-02 DF= -7.40D-08 DXR=  1.21D-02 DFR=  1.56D-04 which will be used.
 LinEq1:  Iter=  0 NonCon=     1 RMS=3.30D-05 Max=6.77D-04 NDo=     1
 LinEq1:  Iter=  1 NonCon=     1 RMS=4.11D-05 Max=2.90D-03 NDo=     1
 LinEq1:  Iter=  2 NonCon=     1 RMS=3.22D-05 Max=1.09D-03 NDo=     1
 LinEq1:  Iter=  3 NonCon=     1 RMS=2.65D-05 Max=8.00D-04 NDo=     1
 LinEq1:  Iter=  4 NonCon=     1 RMS=2.41D-05 Max=5.52D-04 NDo=     1
 LinEq1:  Iter=  5 NonCon=     1 RMS=2.43D-05 Max=4.68D-04 NDo=     1
 LinEq1:  Iter=  6 NonCon=     1 RMS=1.84D-05 Max=3.52D-04 NDo=     1
 LinEq1:  Iter=  7 NonCon=     1 RMS=1.96D-05 Max=5.39D-04 NDo=     1
 LinEq1:  Iter=  8 NonCon=     1 RMS=1.96D-05 Max=3.95D-04 NDo=     1
 LinEq1:  Iter=  9 NonCon=     1 RMS=1.72D-05 Max=3.92D-04 NDo=     1
 LinEq1:  Iter= 10 NonCon=     1 RMS=1.58D-05 Max=3.65D-04 NDo=     1
 LinEq1:  Iter= 11 NonCon=     1 RMS=1.26D-05 Max=3.52D-04 NDo=     1
 LinEq1:  Iter= 12 NonCon=     1 RMS=1.14D-05 Max=3.45D-04 NDo=     1
 LinEq1:  Iter= 13 NonCon=     1 RMS=9.75D-06 Max=1.94D-04 NDo=     1
 LinEq1:  Iter= 14 NonCon=     1 RMS=9.27D-06 Max=2.57D-04 NDo=     1
 LinEq1:  Iter= 15 NonCon=     1 RMS=7.96D-06 Max=1.58D-04 NDo=     1
 LinEq1:  Iter= 16 NonCon=     1 RMS=5.79D-06 Max=1.19D-04 NDo=     1
 LinEq1:  Iter= 17 NonCon=     1 RMS=4.26D-06 Max=1.02D-04 NDo=     1
 LinEq1:  Iter= 18 NonCon=     1 RMS=3.04D-06 Max=5.59D-05 NDo=     1
 LinEq1:  Iter= 19 NonCon=     1 RMS=1.96D-06 Max=3.68D-05 NDo=     1
 LinEq1:  Iter= 20 NonCon=     1 RMS=1.45D-06 Max=2.88D-05 NDo=     1
 LinEq1:  Iter= 21 NonCon=     1 RMS=1.14D-06 Max=2.02D-05 NDo=     1
 LinEq1:  Iter= 22 NonCon=     1 RMS=1.07D-06 Max=1.89D-05 NDo=     1
 LinEq1:  Iter= 23 NonCon=     1 RMS=1.06D-06 Max=2.10D-05 NDo=     1
 LinEq1:  Iter= 24 NonCon=     1 RMS=8.10D-07 Max=1.83D-05 NDo=     1
 LinEq1:  Iter= 25 NonCon=     1 RMS=4.06D-07 Max=8.63D-06 NDo=     1
 LinEq1:  Iter= 26 NonCon=     1 RMS=2.80D-07 Max=6.27D-06 NDo=     1
 LinEq1:  Iter= 27 NonCon=     1 RMS=1.75D-07 Max=5.47D-06 NDo=     1
 LinEq1:  Iter= 28 NonCon=     1 RMS=8.83D-08 Max=2.58D-06 NDo=     1
 LinEq1:  Iter= 29 NonCon=     1 RMS=6.24D-08 Max=1.44D-06 NDo=     1
 LinEq1:  Iter= 30 NonCon=     1 RMS=3.97D-08 Max=9.13D-07 NDo=     1
 LinEq1:  Iter= 31 NonCon=     1 RMS=2.15D-08 Max=6.04D-07 NDo=     1
 LinEq1:  Iter= 32 NonCon=     1 RMS=1.47D-08 Max=3.95D-07 NDo=     1
 LinEq1:  Iter= 33 NonCon=     0 RMS=9.85D-09 Max=2.15D-07 NDo=     1
 Linear equations converged to 2.989D-08 2.989D-07 after    33 iterations.
     Minimum is close to point  2 DX=  7.91D-02 DF= -2.27D-07 DXR=  7.33D-02 DFR=  5.40D-03 which will be used.
 LinEq1:  Iter=  0 NonCon=     1 RMS=1.35D-06 Max=6.73D-05 NDo=     1
 LinEq1:  Iter=  1 NonCon=     1 RMS=2.10D-06 Max=1.42D-04 NDo=     1
 LinEq1:  Iter=  2 NonCon=     1 RMS=1.15D-06 Max=2.32D-05 NDo=     1
 LinEq1:  Iter=  3 NonCon=     1 RMS=1.24D-06 Max=3.13D-05 NDo=     1
 LinEq1:  Iter=  4 NonCon=     1 RMS=1.08D-06 Max=2.26D-05 NDo=     1
 LinEq1:  Iter=  5 NonCon=     1 RMS=1.04D-06 Max=1.94D-05 NDo=     1
 LinEq1:  Iter=  6 NonCon=     1 RMS=8.32D-07 Max=2.35D-05 NDo=     1
 LinEq1:  Iter=  7 NonCon=     1 RMS=9.28D-07 Max=2.93D-05 NDo=     1
 LinEq1:  Iter=  8 NonCon=     1 RMS=7.92D-07 Max=2.24D-05 NDo=     1
 LinEq1:  Iter=  9 NonCon=     1 RMS=6.95D-07 Max=1.29D-05 NDo=     1
 LinEq1:  Iter= 10 NonCon=     1 RMS=5.44D-07 Max=1.20D-05 NDo=     1
 LinEq1:  Iter= 11 NonCon=     1 RMS=4.62D-07 Max=8.19D-06 NDo=     1
 LinEq1:  Iter= 12 NonCon=     1 RMS=4.39D-07 Max=9.71D-06 NDo=     1
 LinEq1:  Iter= 13 NonCon=     1 RMS=3.70D-07 Max=7.30D-06 NDo=     1
 LinEq1:  Iter= 14 NonCon=     1 RMS=3.48D-07 Max=8.26D-06 NDo=     1
 LinEq1:  Iter= 15 NonCon=     1 RMS=2.73D-07 Max=4.38D-06 NDo=     1
 LinEq1:  Iter= 16 NonCon=     1 RMS=2.19D-07 Max=3.98D-06 NDo=     1
 LinEq1:  Iter= 17 NonCon=     1 RMS=1.54D-07 Max=3.16D-06 NDo=     1
 LinEq1:  Iter= 18 NonCon=     1 RMS=9.71D-08 Max=2.17D-06 NDo=     1
 LinEq1:  Iter= 19 NonCon=     1 RMS=7.34D-08 Max=1.80D-06 NDo=     1
 LinEq1:  Iter= 20 NonCon=     1 RMS=4.68D-08 Max=8.18D-07 NDo=     1
 LinEq1:  Iter= 21 NonCon=     1 RMS=3.72D-08 Max=8.08D-07 NDo=     1
 LinEq1:  Iter= 22 NonCon=     1 RMS=2.01D-08 Max=3.85D-07 NDo=     1
 LinEq1:  Iter= 23 NonCon=     1 RMS=1.37D-08 Max=3.61D-07 NDo=     1
 LinEq1:  Iter= 24 NonCon=     1 RMS=1.33D-08 Max=2.42D-07 NDo=     1
 LinEq1:  Iter= 25 NonCon=     1 RMS=1.33D-08 Max=3.27D-07 NDo=     1
 LinEq1:  Iter= 26 NonCon=     1 RMS=9.35D-09 Max=2.17D-07 NDo=     1
 LinEq1:  Iter= 27 NonCon=     1 RMS=5.75D-09 Max=1.29D-07 NDo=     1
 LinEq1:  Iter= 28 NonCon=     1 RMS=3.46D-09 Max=8.78D-08 NDo=     1
 LinEq1:  Iter= 29 NonCon=     1 RMS=2.11D-09 Max=3.02D-08 NDo=     1
 LinEq1:  Iter= 30 NonCon=     1 RMS=1.59D-09 Max=3.80D-08 NDo=     1
 LinEq1:  Iter= 31 NonCon=     1 RMS=8.29D-10 Max=1.62D-08 NDo=     1
 LinEq1:  Iter= 32 NonCon=     0 RMS=4.43D-10 Max=9.38D-09 NDo=     1
 Linear equations converged to 1.323D-09 1.323D-08 after    32 iterations.
 LinEq1:  Iter=  0 NonCon=     1 RMS=5.90D-08 Max=1.87D-06 NDo=     1
 LinEq1:  Iter=  1 NonCon=     1 RMS=7.79D-08 Max=4.77D-06 NDo=     1
 LinEq1:  Iter=  2 NonCon=     1 RMS=5.43D-08 Max=1.52D-06 NDo=     1
 LinEq1:  Iter=  3 NonCon=     1 RMS=5.17D-08 Max=1.50D-06 NDo=     1
 LinEq1:  Iter=  4 NonCon=     1 RMS=4.90D-08 Max=1.01D-06 NDo=     1
 LinEq1:  Iter=  5 NonCon=     1 RMS=4.90D-08 Max=9.47D-07 NDo=     1
 LinEq1:  Iter=  6 NonCon=     1 RMS=3.96D-08 Max=8.68D-07 NDo=     1
 LinEq1:  Iter=  7 NonCon=     1 RMS=4.52D-08 Max=9.74D-07 NDo=     1
 LinEq1:  Iter=  8 NonCon=     1 RMS=3.87D-08 Max=1.02D-06 NDo=     1
 LinEq1:  Iter=  9 NonCon=     1 RMS=3.29D-08 Max=6.87D-07 NDo=     1
 LinEq1:  Iter= 10 NonCon=     1 RMS=2.89D-08 Max=5.47D-07 NDo=     1
 LinEq1:  Iter= 11 NonCon=     1 RMS=2.42D-08 Max=5.05D-07 NDo=     1
 LinEq1:  Iter= 12 NonCon=     1 RMS=2.09D-08 Max=5.06D-07 NDo=     1
 LinEq1:  Iter= 13 NonCon=     1 RMS=1.61D-08 Max=2.82D-07 NDo=     1
 LinEq1:  Iter= 14 NonCon=     1 RMS=1.70D-08 Max=4.68D-07 NDo=     1
 LinEq1:  Iter= 15 NonCon=     1 RMS=1.32D-08 Max=2.67D-07 NDo=     1
 LinEq1:  Iter= 16 NonCon=     1 RMS=1.07D-08 Max=1.67D-07 NDo=     1
 LinEq1:  Iter= 17 NonCon=     1 RMS=7.73D-09 Max=1.58D-07 NDo=     1
 LinEq1:  Iter= 18 NonCon=     1 RMS=4.74D-09 Max=9.07D-08 NDo=     1
 LinEq1:  Iter= 19 NonCon=     1 RMS=3.68D-09 Max=6.71D-08 NDo=     1
 LinEq1:  Iter= 20 NonCon=     1 RMS=2.62D-09 Max=6.28D-08 NDo=     1
 LinEq1:  Iter= 21 NonCon=     1 RMS=2.74D-09 Max=5.93D-08 NDo=     1
 LinEq1:  Iter= 22 NonCon=     1 RMS=2.50D-09 Max=7.35D-08 NDo=     1
 LinEq1:  Iter= 23 NonCon=     1 RMS=1.91D-09 Max=4.57D-08 NDo=     1
 LinEq1:  Iter= 24 NonCon=     1 RMS=1.23D-09 Max=3.81D-08 NDo=     1
 LinEq1:  Iter= 25 NonCon=     1 RMS=6.78D-10 Max=1.91D-08 NDo=     1
 LinEq1:  Iter= 26 NonCon=     1 RMS=4.03D-10 Max=6.76D-09 NDo=     1
 LinEq1:  Iter= 27 NonCon=     1 RMS=3.18D-10 Max=6.35D-09 NDo=     1
 LinEq1:  Iter= 28 NonCon=     1 RMS=1.72D-10 Max=3.82D-09 NDo=     1
 LinEq1:  Iter= 29 NonCon=     1 RMS=9.37D-11 Max=1.96D-09 NDo=     1
 LinEq1:  Iter= 30 NonCon=     1 RMS=5.70D-11 Max=1.47D-09 NDo=     1
 LinEq1:  Iter= 31 NonCon=     1 RMS=3.33D-11 Max=7.80D-10 NDo=     1
 LinEq1:  Iter= 32 NonCon=     0 RMS=2.24D-11 Max=4.52D-10 NDo=     1
 Linear equations converged to 6.492D-11 6.492D-10 after    32 iterations.
 LinEq1:  Iter=  0 NonCon=     1 RMS=4.70D-08 Max=1.49D-06 NDo=     1
 LinEq1:  Iter=  1 NonCon=     1 RMS=6.20D-08 Max=3.80D-06 NDo=     1
 LinEq1:  Iter=  2 NonCon=     1 RMS=4.33D-08 Max=1.21D-06 NDo=     1
 LinEq1:  Iter=  3 NonCon=     1 RMS=4.11D-08 Max=1.19D-06 NDo=     1
 LinEq1:  Iter=  4 NonCon=     1 RMS=3.90D-08 Max=8.04D-07 NDo=     1
 LinEq1:  Iter=  5 NonCon=     1 RMS=3.90D-08 Max=7.54D-07 NDo=     1
 LinEq1:  Iter=  6 NonCon=     1 RMS=3.15D-08 Max=6.91D-07 NDo=     1
 LinEq1:  Iter=  7 NonCon=     1 RMS=3.60D-08 Max=7.75D-07 NDo=     1
 LinEq1:  Iter=  8 NonCon=     1 RMS=3.08D-08 Max=8.10D-07 NDo=     1
 LinEq1:  Iter=  9 NonCon=     1 RMS=2.62D-08 Max=5.47D-07 NDo=     1
 LinEq1:  Iter= 10 NonCon=     1 RMS=2.30D-08 Max=4.35D-07 NDo=     1
 LinEq1:  Iter= 11 NonCon=     1 RMS=1.93D-08 Max=4.02D-07 NDo=     1
 LinEq1:  Iter= 12 NonCon=     1 RMS=1.66D-08 Max=4.03D-07 NDo=     1
 LinEq1:  Iter= 13 NonCon=     1 RMS=1.28D-08 Max=2.25D-07 NDo=     1
 LinEq1:  Iter= 14 NonCon=     1 RMS=1.36D-08 Max=3.72D-07 NDo=     1
 LinEq1:  Iter= 15 NonCon=     1 RMS=1.05D-08 Max=2.13D-07 NDo=     1
 LinEq1:  Iter= 16 NonCon=     1 RMS=8.51D-09 Max=1.33D-07 NDo=     1
 LinEq1:  Iter= 17 NonCon=     1 RMS=6.16D-09 Max=1.26D-07 NDo=     1
 LinEq1:  Iter= 18 NonCon=     1 RMS=3.78D-09 Max=7.22D-08 NDo=     1
 LinEq1:  Iter= 19 NonCon=     1 RMS=2.93D-09 Max=5.35D-08 NDo=     1
 LinEq1:  Iter= 20 NonCon=     1 RMS=2.09D-09 Max=4.99D-08 NDo=     1
 LinEq1:  Iter= 21 NonCon=     1 RMS=2.18D-09 Max=4.72D-08 NDo=     1
 LinEq1:  Iter= 22 NonCon=     1 RMS=1.99D-09 Max=5.84D-08 NDo=     1
 LinEq1:  Iter= 23 NonCon=     1 RMS=1.52D-09 Max=3.64D-08 NDo=     1
 LinEq1:  Iter= 24 NonCon=     1 RMS=9.81D-10 Max=3.03D-08 NDo=     1
 LinEq1:  Iter= 25 NonCon=     1 RMS=5.39D-10 Max=1.52D-08 NDo=     1
 LinEq1:  Iter= 26 NonCon=     1 RMS=3.21D-10 Max=5.38D-09 NDo=     1
 LinEq1:  Iter= 27 NonCon=     1 RMS=2.53D-10 Max=5.05D-09 NDo=     1
 LinEq1:  Iter= 28 NonCon=     1 RMS=1.37D-10 Max=3.05D-09 NDo=     1
 LinEq1:  Iter= 29 NonCon=     1 RMS=7.44D-11 Max=1.55D-09 NDo=     1
 LinEq1:  Iter= 30 NonCon=     1 RMS=4.53D-11 Max=1.16D-09 NDo=     1
 LinEq1:  Iter= 31 NonCon=     1 RMS=2.65D-11 Max=6.19D-10 NDo=     1
 LinEq1:  Iter= 32 NonCon=     0 RMS=1.78D-11 Max=3.60D-10 NDo=     1
 Linear equations converged to 5.169D-11 5.169D-10 after    32 iterations.
 SCF Done:  E(RPM6) = -0.949652921336     a.u. after  105 cycles
            Convg  =    0.1770D-07                   777 Fock formations.
              S**2 =  0.0000                  -V/T =  0.9948
 Range of M.O.s used for correlation:     1   444
 NBasis=   444 NAE=   154 NBE=   154 NFC=     0 NFV=     0
 NROrb=    444 NOA=   154 NOB=   154 NVA=   290 NVB=   290
 Symmetrizing basis deriv contribution to polar:
 IMax=3 JMax=2 DiffMx= 0.00D+00
 G2DrvN: will do    52 centers at a time, making    1 passes.
 Calling FoFCou, ICntrl=  3107 FMM=F I1Cent=   0 AccDes= 0.00D+00.
 End of G2Drv F.D. properties file   721 does not exist.
 End of G2Drv F.D. properties file   722 does not exist.
 End of G2Drv F.D. properties file   788 does not exist.
          IDoAtm=00000000000000000000000000000000000000000000000011
          IDoAtm=1
          Differentiating once with respect to electric field.
                with respect to dipole field.
          Differentiating once with respect to nuclear coordinates.
          Electric field/nuclear overlap derivatives assumed to be zero.
 Keep J ints in memory in canonical form, NReq=4314133.
          There are    12 degrees of freedom in the 1st order CPHF.  IDoFFX=5 NUNeed=    12.
 LinEq1:  Iter=  0 NonCon=    12 RMS=2.92D-01 Max=8.61D+00 NDo=    12
 AX will form    12 AO Fock derivatives at one time.
 LinEq1:  Iter=  1 NonCon=    12 RMS=2.84D-01 Max=4.93D+00 NDo=    12
 LinEq1:  Iter=  2 NonCon=    12 RMS=2.16D-01 Max=5.25D+00 NDo=    12
 LinEq1:  Iter=  3 NonCon=    12 RMS=1.81D-01 Max=4.07D+00 NDo=    12
 LinEq1:  Iter=  4 NonCon=    12 RMS=1.52D-01 Max=2.90D+00 NDo=    12
 LinEq1:  Iter=  5 NonCon=    12 RMS=1.57D-01 Max=4.44D+00 NDo=    12
 LinEq1:  Iter=  6 NonCon=    12 RMS=1.38D-01 Max=2.98D+00 NDo=    12
 LinEq1:  Iter=  7 NonCon=    12 RMS=1.29D-01 Max=3.50D+00 NDo=    12
 LinEq1:  Iter=  8 NonCon=    12 RMS=1.32D-01 Max=2.22D+00 NDo=    12
 LinEq1:  Iter=  9 NonCon=    12 RMS=1.20D-01 Max=2.61D+00 NDo=    12
 LinEq1:  Iter= 10 NonCon=    12 RMS=1.06D-01 Max=2.40D+00 NDo=    12
 LinEq1:  Iter= 11 NonCon=    12 RMS=8.47D-02 Max=1.82D+00 NDo=    12
 LinEq1:  Iter= 12 NonCon=    12 RMS=6.70D-02 Max=1.31D+00 NDo=    12
 LinEq1:  Iter= 13 NonCon=    12 RMS=6.23D-02 Max=1.60D+00 NDo=    12
 LinEq1:  Iter= 14 NonCon=    12 RMS=5.77D-02 Max=1.33D+00 NDo=    12
 LinEq1:  Iter= 15 NonCon=    12 RMS=4.87D-02 Max=9.82D-01 NDo=    12
 LinEq1:  Iter= 16 NonCon=    12 RMS=4.66D-02 Max=1.01D+00 NDo=    12
 LinEq1:  Iter= 17 NonCon=    12 RMS=3.37D-02 Max=5.89D-01 NDo=    12
 LinEq1:  Iter= 18 NonCon=    12 RMS=2.28D-02 Max=4.24D-01 NDo=    12
 LinEq1:  Iter= 19 NonCon=    12 RMS=1.58D-02 Max=3.31D-01 NDo=    12
 LinEq1:  Iter= 20 NonCon=    12 RMS=1.60D-02 Max=2.74D-01 NDo=    12
 LinEq1:  Iter= 21 NonCon=    12 RMS=1.47D-02 Max=3.37D-01 NDo=    12
 LinEq1:  Iter= 22 NonCon=    12 RMS=1.17D-02 Max=2.30D-01 NDo=    12
 LinEq1:  Iter= 23 NonCon=    12 RMS=7.23D-03 Max=1.57D-01 NDo=    12
 LinEq1:  Iter= 24 NonCon=    12 RMS=5.61D-03 Max=1.64D-01 NDo=    12
 LinEq1:  Iter= 25 NonCon=    12 RMS=3.61D-03 Max=7.00D-02 NDo=    12
 LinEq1:  Iter= 26 NonCon=    12 RMS=2.15D-03 Max=4.21D-02 NDo=    12
 LinEq1:  Iter= 27 NonCon=    12 RMS=1.60D-03 Max=3.05D-02 NDo=    12
 LinEq1:  Iter= 28 NonCon=    12 RMS=8.88D-04 Max=1.90D-02 NDo=    12
 LinEq1:  Iter= 29 NonCon=    12 RMS=5.27D-04 Max=1.16D-02 NDo=    12
 LinEq1:  Iter= 30 NonCon=    12 RMS=3.52D-04 Max=7.02D-03 NDo=    12
 LinEq1:  Iter= 31 NonCon=    12 RMS=2.41D-04 Max=3.45D-03 NDo=    12
 LinEq1:  Iter= 32 NonCon=    12 RMS=1.42D-04 Max=3.25D-03 NDo=    12
 LinEq1:  Iter= 33 NonCon=    12 RMS=7.91D-05 Max=1.64D-03 NDo=    12
 LinEq1:  Iter= 34 NonCon=    12 RMS=5.74D-05 Max=9.03D-04 NDo=    12
 LinEq1:  Iter= 35 NonCon=    12 RMS=3.52D-05 Max=7.46D-04 NDo=    12
 LinEq1:  Iter= 36 NonCon=    12 RMS=1.75D-05 Max=4.17D-04 NDo=    12
 LinEq1:  Iter= 37 NonCon=    12 RMS=1.07D-05 Max=1.98D-04 NDo=    12
 LinEq1:  Iter= 38 NonCon=    12 RMS=6.22D-06 Max=1.44D-04 NDo=    12
 LinEq1:  Iter= 39 NonCon=    12 RMS=3.65D-06 Max=5.17D-05 NDo=    12
 LinEq1:  Iter= 40 NonCon=    10 RMS=2.18D-06 Max=5.05D-05 NDo=    12
 LinEq1:  Iter= 41 NonCon=     7 RMS=1.23D-06 Max=1.90D-05 NDo=    12
 LinEq1:  Iter= 42 NonCon=     3 RMS=7.94D-07 Max=1.51D-05 NDo=    12
 LinEq1:  Iter= 43 NonCon=     3 RMS=5.65D-07 Max=9.39D-06 NDo=    12
 LinEq1:  Iter= 44 NonCon=     3 RMS=3.58D-07 Max=8.95D-06 NDo=    12
 LinEq1:  Iter= 45 NonCon=     3 RMS=2.32D-07 Max=4.73D-06 NDo=    12
 LinEq1:  Iter= 46 NonCon=     3 RMS=1.15D-07 Max=3.34D-06 NDo=    12
 LinEq1:  Iter= 47 NonCon=     3 RMS=4.31D-08 Max=9.80D-07 NDo=    12
 LinEq1:  Iter= 48 NonCon=     3 RMS=1.72D-08 Max=4.91D-07 NDo=    12
 LinEq1:  Iter= 49 NonCon=     1 RMS=6.40D-09 Max=2.04D-07 NDo=    12
 LinEq1:  Iter= 50 NonCon=     0 RMS=2.35D-09 Max=6.72D-08 NDo=    12
 Linear equations converged to 1.000D-08 1.000D-07 after    50 iterations.
 Isotropic polarizability for W=    0.000000     3061.11 Bohr**3.
 End of Minotr F.D. properties file   721 does not exist.
 End of Minotr F.D. properties file   722 does not exist.
 End of Minotr F.D. properties file   788 does not exist.

 **********************************************************************

            Population analysis using the SCF density.

 **********************************************************************

 Orbital symmetries:
       Occupied  (A) (A) (A) (A) (A) (A) (A) (A) (A) (A) (A) (A)
                 (A) (A) (A) (A) (A) (A) (A) (A) (A) (A) (A) (A)
                 (A) (A) (A) (A) (A) (A) (A) (A) (A) (A) (A) (A)
                 (A) (A) (A) (A) (A) (A) (A) (A) (A) (A) (A) (A)
                 (A) (A) (A) (A) (A) (A) (A) (A) (A) (A) (A) (A)
                 (A) (A) (A) (A) (A) (A) (A) (A) (A) (A) (A) (A)
                 (A) (A) (A) (A) (A) (A) (A) (A) (A) (A) (A) (A)
                 (A) (A) (A) (A) (A) (A) (A) (A) (A) (A) (A) (A)
                 (A) (A) (A) (A) (A) (A) (A) (A) (A) (A) (A) (A)
                 (A) (A) (A) (A) (A) (A) (A) (A) (A) (A) (A) (A)
                 (A) (A) (A) (A) (A) (A) (A) (A) (A) (A) (A) (A)
                 (A) (A) (A) (A) (A) (A) (A) (A) (A) (A) (A) (A)
                 (A) (A) (A) (A) (A) (A) (A) (A) (A) (A)
       Virtual   (A) (A) (A) (A) (A) (A) (A) (A) (A) (A) (A) (A)
                 (A) (A) (A) (A) (A) (A) (A) (A) (A) (A) (A) (A)
                 (A) (A) (A) (A) (A) (A) (A) (A) (A) (A) (A) (A)
                 (A) (A) (A) (A) (A) (A) (A) (A) (A) (A) (A) (A)
                 (A) (A) (A) (A) (A) (A) (A) (A) (A) (A) (A) (A)
                 (A) (A) (A) (A) (A) (A) (A) (A) (A) (A) (A) (A)
                 (A) (A) (A) (A) (A) (A) (A) (A) (A) (A) (A) (A)
                 (A) (A) (A) (A) (A) (A) (A) (A) (A) (A) (A) (A)
                 (A) (A) (A) (A) (A) (A) (A) (A) (A) (A) (A) (A)
                 (A) (A) (A) (A) (A) (A) (A) (A) (A) (A) (A) (A)
                 (A) (A) (A) (A) (A) (A) (A) (A) (A) (A) (A) (A)
                 (A) (A) (A) (A) (A) (A) (A) (A) (A) (A) (A) (A)
                 (A) (A) (A) (A) (A) (A) (A) (A) (A) (A) (A) (A)
                 (A) (A) (A) (A) (A) (A) (A) (A) (A) (A) (A) (A)
                 (A) (A) (A) (A) (A) (A) (A) (A) (A) (A) (A) (A)
                 (A) (A) (A) (A) (A) (A) (A) (A) (A) (A) (A) (A)
                 (A) (A) (A) (A) (A) (A) (A) (A) (A) (A) (A) (A)
                 (A) (A) (A) (A) (A) (A) (A) (A) (A) (A) (A) (A)
                 (A) (A) (A) (A) (A) (A) (A) (A) (A) (A) (A) (A)
                 (A) (A) (A) (A) (A) (A) (A) (A) (A) (A) (A) (A)
                 (A) (A) (A) (A) (A) (A) (A) (A) (A) (A) (A) (A)
                 (A) (A) (A) (A) (A) (A) (A) (A) (A) (A) (A) (A)
                 (A) (A) (A) (A) (A) (A) (A) (A) (A) (A) (A) (A)
                 (A) (A) (A) (A) (A) (A) (A) (A) (A) (A) (A) (A)
                 (A) (A)
 The electronic state is 1-A.
 Alpha  occ. eigenvalues --   -1.25105  -1.17430  -1.06603  -1.05233  -1.02039
 Alpha  occ. eigenvalues --   -1.01552  -1.00435  -0.99459  -0.98941  -0.98849
 Alpha  occ. eigenvalues --   -0.98292  -0.98108  -0.97757  -0.97414  -0.96817
 Alpha  occ. eigenvalues --   -0.96752  -0.96424  -0.96293  -0.95977  -0.95219
 Alpha  occ. eigenvalues --   -0.95041  -0.94881  -0.94307  -0.94228  -0.93950
 Alpha  occ. eigenvalues --   -0.93288  -0.93135  -0.92533  -0.92339  -0.91281
 Alpha  occ. eigenvalues --   -0.90851  -0.89962  -0.88490  -0.86931  -0.73137
 Alpha  occ. eigenvalues --   -0.58849  -0.55217  -0.51509  -0.48012  -0.47408
 Alpha  occ. eigenvalues --   -0.46722  -0.46131  -0.45599  -0.44951  -0.44604
 Alpha  occ. eigenvalues --   -0.44033  -0.43964  -0.43894  -0.43659  -0.42990
 Alpha  occ. eigenvalues --   -0.42501  -0.42327  -0.42018  -0.41885  -0.41749
 Alpha  occ. eigenvalues --   -0.41102  -0.40952  -0.40778  -0.40382  -0.40235
 Alpha  occ. eigenvalues --   -0.39814  -0.39196  -0.38998  -0.38838  -0.38332
 Alpha  occ. eigenvalues --   -0.37804  -0.37555  -0.37150  -0.36912  -0.36673
 Alpha  occ. eigenvalues --   -0.35962  -0.35918  -0.35410  -0.34978  -0.34935
 Alpha  occ. eigenvalues --   -0.34559  -0.34308  -0.34060  -0.33666  -0.33009
 Alpha  occ. eigenvalues --   -0.32956  -0.32614  -0.32580  -0.32232  -0.32079
 Alpha  occ. eigenvalues --   -0.31912  -0.31753  -0.31480  -0.31379  -0.31231
 Alpha  occ. eigenvalues --   -0.31023  -0.30920  -0.30719  -0.30471  -0.30441
 Alpha  occ. eigenvalues --   -0.30134  -0.29897  -0.29729  -0.29524  -0.29502
 Alpha  occ. eigenvalues --   -0.29122  -0.28880  -0.28683  -0.28438  -0.28360
 Alpha  occ. eigenvalues --   -0.28257  -0.28088  -0.27950  -0.27771  -0.27454
 Alpha  occ. eigenvalues --   -0.27349  -0.27116  -0.26617  -0.26472  -0.26277
 Alpha  occ. eigenvalues --   -0.26025  -0.25713  -0.25631  -0.25404  -0.25104
 Alpha  occ. eigenvalues --   -0.25005  -0.24855  -0.24758  -0.24641  -0.24512
 Alpha  occ. eigenvalues --   -0.24424  -0.24349  -0.24252  -0.23960  -0.23911
 Alpha  occ. eigenvalues --   -0.23822  -0.23482  -0.23423  -0.23286  -0.23238
 Alpha  occ. eigenvalues --   -0.23085  -0.22519  -0.22344  -0.22330  -0.22227
 Alpha  occ. eigenvalues --   -0.21857  -0.21781  -0.21668  -0.21309  -0.21239
 Alpha  occ. eigenvalues --   -0.20346  -0.20028  -0.19958  -0.19839  -0.19644
 Alpha  occ. eigenvalues --   -0.19500  -0.19177  -0.18880  -0.18405
 Alpha virt. eigenvalues --   -0.05406  -0.04808  -0.04433  -0.04108  -0.03900
 Alpha virt. eigenvalues --   -0.03102  -0.02812  -0.02274  -0.02215  -0.01926
 Alpha virt. eigenvalues --   -0.01579  -0.01433  -0.01159  -0.00720  -0.00289
 Alpha virt. eigenvalues --   -0.00048   0.00076   0.00339   0.00491   0.00517
 Alpha virt. eigenvalues --    0.00830   0.01098   0.01427   0.01765   0.01841
 Alpha virt. eigenvalues --    0.02020   0.02353   0.02791   0.03217   0.03418
 Alpha virt. eigenvalues --    0.03543   0.03640   0.04085   0.04296   0.04408
 Alpha virt. eigenvalues --    0.04492   0.04597   0.04977   0.05458   0.05647
 Alpha virt. eigenvalues --    0.05744   0.05847   0.06012   0.06181   0.06314
 Alpha virt. eigenvalues --    0.06372   0.06807   0.06886   0.07130   0.07381
 Alpha virt. eigenvalues --    0.07468   0.07734   0.07864   0.07896   0.07923
 Alpha virt. eigenvalues --    0.07973   0.08129   0.08151   0.08173   0.08498
 Alpha virt. eigenvalues --    0.08549   0.08668   0.08754   0.08816   0.08887
 Alpha virt. eigenvalues --    0.08895   0.08973   0.09025   0.09102   0.09233
 Alpha virt. eigenvalues --    0.09297   0.09345   0.09423   0.09507   0.09562
 Alpha virt. eigenvalues --    0.09682   0.09753   0.09815   0.09862   0.09913
 Alpha virt. eigenvalues --    0.09938   0.09975   0.10024   0.10055   0.10129
 Alpha virt. eigenvalues --    0.10208   0.10285   0.10336   0.10339   0.10434
 Alpha virt. eigenvalues --    0.10621   0.10632   0.10689   0.10718   0.10733
 Alpha virt. eigenvalues --    0.10786   0.10898   0.10919   0.10943   0.11019
 Alpha virt. eigenvalues --    0.11162   0.11239   0.11277   0.11288   0.11341
 Alpha virt. eigenvalues --    0.11357   0.11402   0.11476   0.11551   0.11626
 Alpha virt. eigenvalues --    0.11728   0.11782   0.11803   0.11806   0.11894
 Alpha virt. eigenvalues --    0.11976   0.12003   0.12047   0.12105   0.12178
 Alpha virt. eigenvalues --    0.12231   0.12249   0.12327   0.12340   0.12378
 Alpha virt. eigenvalues --    0.12398   0.12442   0.12461   0.12500   0.12562
 Alpha virt. eigenvalues --    0.12565   0.12640   0.12683   0.12714   0.12778
 Alpha virt. eigenvalues --    0.12787   0.12866   0.12895   0.12991   0.13069
 Alpha virt. eigenvalues --    0.13147   0.13208   0.13258   0.13273   0.13280
 Alpha virt. eigenvalues --    0.13327   0.13386   0.13438   0.13447   0.13510
 Alpha virt. eigenvalues --    0.13570   0.13583   0.13614   0.13685   0.13717
 Alpha virt. eigenvalues --    0.13746   0.13793   0.13874   0.13881   0.13909
 Alpha virt. eigenvalues --    0.13929   0.13957   0.14013   0.14039   0.14060
 Alpha virt. eigenvalues --    0.14121   0.14183   0.14196   0.14211   0.14264
 Alpha virt. eigenvalues --    0.14313   0.14329   0.14368   0.14419   0.14436
 Alpha virt. eigenvalues --    0.14504   0.14515   0.14548   0.14589   0.14620
 Alpha virt. eigenvalues --    0.14666   0.14674   0.14706   0.14763   0.14815
 Alpha virt. eigenvalues --    0.14831   0.14850   0.14869   0.14989   0.15019
 Alpha virt. eigenvalues --    0.15056   0.15100   0.15125   0.15267   0.15399
 Alpha virt. eigenvalues --    0.15420   0.15525   0.15565   0.15620   0.15681
 Alpha virt. eigenvalues --    0.15718   0.15759   0.15824   0.15857   0.15948
 Alpha virt. eigenvalues --    0.15988   0.16031   0.16045   0.16162   0.16305
 Alpha virt. eigenvalues --    0.16390   0.16410   0.16459   0.16498   0.16522
 Alpha virt. eigenvalues --    0.16603   0.16635   0.16808   0.16872   0.16933
 Alpha virt. eigenvalues --    0.17045   0.17078   0.17204   0.17253   0.17291
 Alpha virt. eigenvalues --    0.17440   0.17590   0.17630   0.17706   0.17865
 Alpha virt. eigenvalues --    0.17987   0.18125   0.18149   0.18183   0.18281
 Alpha virt. eigenvalues --    0.18376   0.18428   0.18440   0.18564   0.18785
 Alpha virt. eigenvalues --    0.18870   0.19130   0.19198   0.19290   0.19466
 Alpha virt. eigenvalues --    0.19513   0.19628   0.19851   0.19937   0.20035
 Alpha virt. eigenvalues --    0.20201   0.20219   0.20364   0.20522   0.20709
 Alpha virt. eigenvalues --    0.20759   0.20806   0.20834   0.21550   0.21729
 Alpha virt. eigenvalues --    0.22039   0.22358   0.22403   0.22502   0.22664
 Alpha virt. eigenvalues --    0.22765   0.22886   0.24026   0.24228   0.24677
 Alpha virt. eigenvalues --    0.25709   0.26088   0.26783   0.26996   0.27628
 Alpha virt. eigenvalues --    0.28941   0.29612   0.33245   0.36886   0.39170
 Alpha virt. eigenvalues --    0.40798   0.40962   0.42080   0.43326   0.47521
 Alpha virt. eigenvalues --    0.48459   0.49894   0.50010   0.50806   0.52498
          Condensed to atoms (all electrons):
 Mulliken charges:
               1
     1  Mo   0.223424
     2  S   -0.401172
     3  S   -0.413151
     4  Mo  -0.016348
     5  Mo   0.181428
     6  Mo   0.148218
     7  S    0.059662
     8  S    0.027094
     9  S    0.115553
    10  S   -0.021989
    11  S   -0.101256
    12  S    0.103752
    13  Mo   0.581945
    14  Mo   0.317230
    15  Mo   1.091015
    16  S   -0.350643
    17  S   -0.364817
    18  S   -0.272962
    19  S   -0.370757
    20  S   -0.368085
    21  S   -0.272955
    22  Mo  -0.184758
    23  Mo  -0.538217
    24  Mo   0.431724
    25  Mo  -0.421377
    26  Mo   0.275566
    27  Mo  -0.064436
    28  Mo  -0.038125
    29  Mo   0.212792
    30  S    0.189956
    31  S    0.288611
    32  S   -0.365556
    33  S   -0.117911
    34  S   -0.457596
    35  S   -0.508608
    36  S   -0.102519
    37  S   -0.488886
    38  S   -0.467310
    39  S   -0.028281
    40  S    0.257770
    41  S   -0.370157
    42  S   -0.508268
    43  S   -0.513449
    44  S   -0.516374
    45  S   -0.157543
    46  S   -0.498674
    47  S   -0.473802
    48  Rh   6.068537
    49  N    0.348042
    50  O   -0.644999
    51  O   -0.501340
 Sum of Mulliken charges =   0.00000
 Mulliken charges with hydrogens summed into heavy atoms:
               1
     1  Mo   0.223424
     2  S   -0.401172
     3  S   -0.413151
     4  Mo  -0.016348
     5  Mo   0.181428
     6  Mo   0.148218
     7  S    0.059662
     8  S    0.027094
     9  S    0.115553
    10  S   -0.021989
    11  S   -0.101256
    12  S    0.103752
    13  Mo   0.581945
    14  Mo   0.317230
    15  Mo   1.091015
    16  S   -0.350643
    17  S   -0.364817
    18  S   -0.272962
    19  S   -0.370757
    20  S   -0.368085
    21  S   -0.272955
    22  Mo  -0.184758
    23  Mo  -0.538217
    24  Mo   0.431724
    25  Mo  -0.421377
    26  Mo   0.275566
    27  Mo  -0.064436
    28  Mo  -0.038125
    29  Mo   0.212792
    30  S    0.189956
    31  S    0.288611
    32  S   -0.365556
    33  S   -0.117911
    34  S   -0.457596
    35  S   -0.508608
    36  S   -0.102519
    37  S   -0.488886
    38  S   -0.467310
    39  S   -0.028281
    40  S    0.257770
    41  S   -0.370157
    42  S   -0.508268
    43  S   -0.513449
    44  S   -0.516374
    45  S   -0.157543
    46  S   -0.498674
    47  S   -0.473802
    48  Rh   6.068537
    49  N    0.348042
    50  O   -0.644999
    51  O   -0.501340
 Charge=              0.0000 electrons
 Dipole moment (field-independent basis, Debye):
    X=             53.7264    Y=              9.3516    Z=             -4.0944  Tot=             54.6877
 N-N= 4.535422481196D+03 E-N=-8.747639878433D+03  KE=-1.818255790138D+02
  Exact polarizability:3921.300 114.7314135.554 -21.908 -11.4371126.473
 Approx polarizability:4003.233  19.6612966.355 -15.736   2.3622578.116
 Calling FoFJK, ICntrl=    100127 FMM=F ISym2X=0 I1Cent= 0 IOpClX= 0 NMat=1 NMatS=1 NMatT=0.
   48 atoms frozen in the vibrational analysis.
 ******    4 imaginary frequencies (negative Signs) ****** 
 Diagonal vibrational polarizability:
       14.0766123       7.3159993      19.9536091
 Harmonic frequencies (cm**-1), IR intensities (KM/Mole), Raman scattering
 activities (A**4/AMU), depolarization ratios for plane and unpolarized
 incident light, reduced masses (AMU), force constants (mDyne/A),
[...]
 ,0.,0.,0.,0.,0.,0.,0.,0.,0.,0.,0.,0.,0.,0.,0.,0.,0.,0.,0.,0.,0.,0.,0.,
 0.,0.,0.,0.,0.,0.,0.,0.,0.,0.,0.,0.,0.,0.,0.,0.,0.,0.,0.,0.,0.,0.,0.,0
 .,0.,0.,0.,0.,0.,0.,0.,0.,0.,0.,0.,0.,0.,0.,0.,0.,0.,0.,0.,0.,0.,0.,0.
 ,0.,0.,0.,0.,0.,0.,0.,0.,0.,0.,0.,0.,0.,0.,0.,0.,0.,0.,0.,0.,0.,0.,0.,
 0.,0.,0.,0.,0.,0.,0.,0.,0.,0.,0.,0.,0.,0.,0.,0.,0.,0.,0.,0.,0.,0.,0.,0
 .,0.,0.,0.,0.,0.,0.,0.,0.,0.,0.,0.,0.,0.,0.,0.,0.,0.,0.,0.,0.,0.,0.,0.
 ,0.,0.,0.,0.,0.,0.,0.,0.,0.,0.,0.,0.,0.,0.,0.,0.,0.,0.,0.,0.,0.,0.,0.,
 0.,0.,0.,0.,0.,0.,0.,0.,0.,0.,0.,0.,0.,0.,0.,0.,0.,0.,0.,0.,0.,0.,0.,0
 .,0.,0.,0.,0.,0.,0.,0.,0.,0.,0.,0.,0.,0.,0.,0.,0.,0.,0.,0.,0.,0.,0.,0.
 ,0.,0.,0.,0.,0.,0.,0.,0.,0.,0.,0.,0.,0.,0.,0.,0.,0.,0.,0.,0.,0.,0.,0.,
 0.,0.,0.,0.,0.,0.,0.,0.,0.,0.,0.,0.,0.,0.,0.,0.,0.,0.,0.,0.,0.,0.,0.,0
 .,0.,0.,0.,0.,0.,0.,0.,0.,0.,0.,0.,0.,0.,0.,0.,0.,0.,0.,0.,0.,0.,0.,0.
 ,0.,0.,0.,0.,0.,0.,0.,0.,0.,0.,0.,0.,0.,0.,0.,0.,0.,0.,0.,0.,0.,0.,0.,
 0.,0.,0.,0.,0.,0.,0.,0.,0.,0.,0.,0.,0.,0.,0.,0.,0.,0.,0.,0.,0.,0.,0.,0
 .,0.,0.,0.,0.,0.,0.,0.,0.,0.,0.,0.,0.,0.,0.,0.,0.,0.,0.,0.,0.,0.,0.,0.
 ,0.,0.,0.,0.,0.,0.,0.,0.,0.,0.,0.,0.,0.,0.,0.,0.,0.,0.,0.,0.,0.,0.,0.,
 0.,0.,0.,0.,0.,0.,0.,0.,0.,0.,0.,0.,0.,0.,0.,0.,0.,0.,0.,0.,0.,0.,0.,0
 .,0.,0.,0.,0.,0.,0.,0.,0.,0.,0.,0.,0.,0.,0.,0.,0.,0.,0.,0.,0.,0.,0.,0.
 ,0.,0.,0.,0.,0.,0.,0.,0.,0.,0.,0.,0.,0.,0.,0.,0.,0.,0.,0.,0.,0.,0.,0.,
 0.,0.,0.,0.,0.,0.,0.,0.,0.,0.,0.,0.,0.,0.,0.,0.,0.,0.,0.,0.,0.,0.,0.,0
 .,0.,0.,0.,0.,0.,0.,0.,0.,0.,0.,0.,0.,0.,0.,0.,0.,0.,0.,0.,0.,0.,0.,0.
 ,0.,0.,0.,0.,0.,0.,0.,0.,0.,0.,0.,0.,0.,0.,0.,0.,0.,0.,0.,0.,0.,0.,0.,
 0.,0.,0.,0.,0.,0.,0.,0.,0.,0.,0.,0.,0.,0.,0.,0.,0.,0.,0.,0.,0.,0.,0.,0
 .,0.,0.,0.,0.,0.,0.,0.,0.,0.,0.,0.,0.,0.,0.,0.,0.,0.,0.,0.,0.,0.,0.,0.
 ,0.,0.,0.,0.,0.,0.,0.,0.,0.,0.,0.,0.,0.,0.,0.,0.,0.,0.,0.,0.,0.,0.,0.,
 0.,0.,0.,0.,0.,0.,0.,0.,0.,0.,0.,0.,0.,0.,0.,0.,0.,0.,0.,0.,0.,0.,0.,0
 .,0.,0.,0.,0.,0.,0.,0.,0.,0.,0.,0.,0.,0.,0.,0.,0.,0.,0.,0.,0.,0.,0.,0.
 ,0.,0.,0.,0.,0.,0.,0.,0.,0.,0.,0.,0.,0.,0.,0.,0.,0.,0.,0.,0.,0.,0.,0.,
 0.,0.,0.,0.,0.,0.,0.,0.,0.,0.,0.,0.,0.,0.,0.,0.,0.,0.,0.,0.,0.,0.,0.,0
 .,0.,0.,0.,0.,0.,0.,0.,0.,0.,0.,0.,0.,0.,0.,0.,0.,0.,0.,0.,0.,0.,0.,0.
 ,0.,0.,0.,0.,0.,0.,0.,0.,0.,0.,0.,0.,0.,0.,0.,0.,0.,0.,0.,0.,0.,0.,0.,
 0.,0.,0.,0.,0.,0.,0.,0.,0.,0.,0.,0.,0.,0.,0.,0.,0.,0.,0.,0.,0.,0.,0.,0
 .,0.,0.,0.,0.,0.,0.,0.,0.,0.,0.,0.,0.,0.,0.,0.,0.,0.,0.,0.,0.,0.,0.,0.
 ,0.,0.,0.,0.,0.,0.,0.,0.,0.,0.,0.,0.,0.,0.,0.,0.,0.,0.,0.,0.,0.,0.,0.,
 0.,0.,0.,0.,0.,0.,0.,0.,0.,0.,0.,0.,0.,0.,0.,0.,0.,0.,0.,0.,0.,0.,0.,0
 .,0.,0.,0.,0.,0.,0.,0.,0.,0.,0.,0.,0.,0.,0.,0.,0.,0.,0.,0.,0.,0.,0.,0.
 ,0.,0.,0.,0.,0.,0.,0.,0.,0.,0.,0.,0.,0.,0.,0.,0.,0.,0.,0.,0.,0.,0.,0.,
 0.,0.,0.,0.,0.,0.,0.,0.,0.,0.,0.,0.,0.,0.,0.,0.,0.,0.,0.,0.,0.,0.,0.,0
 .,0.,0.,0.,0.,0.,0.,0.,0.,0.,0.,0.,0.,0.,0.,0.,0.,0.,0.,0.,0.,0.,0.,0.
 ,0.,0.,0.,0.,0.,0.,0.,0.,0.,0.,0.,0.,0.,0.,0.,0.,0.,0.,0.,0.,0.,0.,0.,
 0.,0.,0.,0.,0.,0.,0.,0.,0.,0.,0.,0.,0.,0.,0.,0.,0.,0.,0.,0.,0.,0.,0.,0
 .,0.,0.,0.,0.,0.,0.,0.,0.,0.,0.,0.,0.,0.,0.,0.,0.,0.,0.,0.,0.,0.,0.,0.
 ,0.,0.,0.,0.,0.,0.,0.,0.,0.,0.,0.,0.,0.,0.,0.,0.,0.,0.,0.,0.,0.,0.,0.,
 0.,0.,0.,0.,0.,0.,0.,0.,0.,0.,0.,0.,0.,0.,0.,0.,0.,0.,0.,0.,0.,0.,0.,0
 .,0.,0.,0.,0.,0.,0.,0.,0.,0.,0.,0.,0.,0.,0.,0.,0.,0.,0.,0.,0.,0.,0.,0.
 ,0.,0.,0.,0.,0.,0.,0.,0.,0.,0.,0.,0.,0.,0.,0.,0.,0.,0.,0.,0.,0.,0.,0.,
 0.,0.,0.,0.,0.,0.,0.,0.,0.,0.,0.,0.,0.,0.,0.,0.,0.,0.,0.,0.,0.,0.,0.,0
 .,0.,0.,0.,0.,0.,0.,0.,0.,0.,0.,0.,0.,0.,0.,0.,0.,0.,0.,0.,0.,0.,0.,0.
 ,0.,0.,0.,0.,0.,0.,0.,0.,0.,0.,0.,0.,0.,0.,0.,0.,0.,0.,0.,0.,0.,0.,0.,
 0.,0.,0.,0.,0.,0.,0.,0.,0.,0.,0.,0.,0.,0.,0.,0.,0.,0.,0.,0.,0.,0.,0.,0
 .,0.,0.,0.,0.,0.,0.,0.,0.,0.,0.,0.,0.,0.,0.,0.,0.,0.,0.,0.,0.,0.,0.,0.
 ,0.,0.,0.,0.,0.,0.,0.,0.,0.,0.,0.,0.,0.,0.,0.,0.,0.,0.,0.,0.,0.,0.,0.,
 0.,0.,0.,0.,0.,0.,0.,0.,0.,0.,0.,0.,0.,0.,0.,0.,0.,0.,0.,0.,0.,0.,0.,0
 .,0.,0.,0.,0.,0.,0.,0.,0.,0.,0.,0.,0.,0.,0.,0.,0.,0.,0.,0.,0.,0.,0.,0.
 ,0.,0.,0.,0.,0.,0.,0.,0.,0.,0.,0.,0.,0.,0.,0.,0.,0.,0.,0.,0.,0.,0.,0.,
 0.,0.,0.,0.,0.,0.,0.,0.,0.,0.,0.,0.,0.,0.,0.,0.,0.,0.,0.,0.,0.,0.,0.,0
 .,0.,0.,0.,0.,0.,0.,0.,0.,0.,0.,0.,0.,0.,0.,0.,0.,0.,0.,0.,0.,0.,0.,0.
 ,0.,0.,0.,0.,0.,0.,0.,0.,0.,0.,0.,0.,0.,0.,0.,0.,0.,0.,0.,0.,0.,0.,0.,
 0.,0.,0.,0.,0.,0.,0.,0.,0.,0.,0.,0.,0.,0.,0.,0.,0.,0.,0.,0.,0.,0.,0.,0
 .,0.,0.,0.,0.,0.,0.,0.,0.,0.,0.,0.,0.,0.,0.,0.,0.,0.,0.,0.,0.,0.,0.,0.
 ,0.,0.,0.,0.,0.,0.,0.,0.,0.,0.,0.,0.,0.,0.,0.,0.,0.,0.,0.,0.,0.,0.,0.,
 0.,0.,0.,0.,0.,0.,0.,0.,0.,0.,0.,0.,0.,0.,0.,0.,0.,0.,0.,0.,0.,0.,0.,0
 .,0.,0.,0.,0.,0.,0.,0.,0.,0.,0.,0.,0.,0.,0.,0.,0.,0.,0.,0.,0.,0.,0.,0.
 ,0.,0.,0.,0.,0.,0.,0.,0.,0.,0.,0.,0.,0.,0.,0.,0.,0.,0.,0.,0.,0.,0.,0.,
 0.,0.,0.,0.,0.,0.,0.,0.,0.,0.,0.,0.,0.,0.,0.,0.,0.,0.,0.,0.,0.,0.,0.,0
 .,0.,0.,0.,0.,0.,0.,0.,0.,0.,0.,0.,0.,0.,0.,0.,0.,0.,0.,0.,0.,0.,0.,0.
 ,0.,0.,0.,0.,0.,0.,0.,0.,0.,0.,0.,0.,0.,0.,0.,0.,0.,0.,0.,0.,0.,0.,0.,
 0.,0.,0.,0.,0.,0.,0.,0.,0.,0.,0.,0.,0.,0.,0.,0.,0.,0.,0.,0.,0.,0.,0.,0
 .,0.,0.,0.,0.,0.,0.,0.,0.,0.,0.,0.,0.,0.,0.,0.,0.,0.,0.,0.,0.,0.,0.,0.
 ,0.,0.,0.,0.,0.,0.,0.,0.,0.,0.,0.,0.,0.,0.,0.,0.,0.,0.,0.,0.,0.,0.,0.,
 0.,0.,0.,0.,0.,0.,0.,0.,0.,0.,0.,0.,0.,0.,0.,0.,0.,0.,0.,0.,0.,0.,0.,0
 .,0.,0.,0.,0.,0.,0.,0.,0.,0.,0.,0.,0.,0.,0.,0.,0.,0.,0.,0.,0.,0.,0.,0.
 ,0.,0.,0.,0.,0.,0.,0.,0.,0.,0.,0.,0.,0.,0.,0.,0.,0.,0.,0.,0.,0.,0.,0.,
 0.,0.,0.,0.,0.,0.,0.,0.,0.,0.,0.,0.,0.,0.,0.,0.,0.,0.,0.,0.,0.,0.,0.,0
 .,0.,0.,0.,0.,0.,0.,0.,0.,0.,0.,0.,0.,0.,0.,0.,0.,0.,0.,0.,0.,0.,0.,0.
 ,0.,0.,0.,0.,0.,0.,0.,0.,0.,0.,0.,0.,0.,0.,0.,0.,0.,0.,0.,0.,0.,0.,0.,
 0.,0.,0.,0.,0.,0.,0.,0.,0.,0.,0.,0.,0.,0.,0.,0.,0.,0.,0.,0.,0.,0.,0.,0
 .,0.,0.,0.,0.,0.,0.,0.,0.,0.,0.,0.,0.,0.,0.,0.,0.,0.,0.,0.,0.,0.,0.,0.
 ,0.,0.,0.,0.,0.,0.,0.,0.,0.,0.,0.,0.,0.,0.,0.,0.,0.,0.,0.,0.,0.,0.,0.,
 0.,0.,0.,0.,0.,0.,0.,0.,0.,0.,0.,0.,0.,0.,0.,0.,0.,0.,0.,0.,0.,0.,0.,0
 .,0.,0.,0.,0.,0.,0.,0.,0.,0.,0.,0.,0.,0.,0.,0.,0.,0.,0.,0.,0.,0.,0.,0.
 ,0.,0.,0.,0.,0.,0.,0.,0.,0.,0.,0.,0.,0.,0.,0.,0.,0.,0.,0.,0.,0.,0.,0.,
 0.,0.,0.,0.,0.,0.,0.,0.,0.,0.,0.,0.,0.,0.,0.,0.,0.,0.,0.,0.,0.,0.,0.,0
 .,0.,0.,0.,0.,0.,0.,0.,0.,0.,0.,0.,0.,0.,0.,0.,0.,0.,0.,0.,0.,0.,0.,0.
 ,0.,0.,0.,0.,0.,0.,0.,0.,0.,0.,0.,0.,0.,0.,0.,0.,0.,0.,0.,0.,0.,0.,0.,
 0.,0.,0.,0.,0.,0.,0.,0.,0.,0.,0.,0.,0.,0.,0.,0.,0.,0.,0.,0.,0.,0.,0.,0
 .,0.,0.,0.,0.,0.,0.,0.,0.,0.,0.,0.,0.,0.,0.,0.,0.,0.,0.,0.,0.,0.,0.,0.
 ,0.,0.,0.,0.,0.,0.,0.,0.,0.,0.,0.,0.,0.,0.,0.,0.,0.,0.,0.,0.,0.,0.,0.,
 0.,0.,0.,0.,0.,0.,0.,0.,0.,0.,0.,0.,0.,0.,0.,0.,0.,0.,0.,0.,0.,0.,0.,0
 .,0.,0.,0.,0.,0.,0.,0.,0.,0.,0.,0.,0.,0.,0.,0.,0.,0.,0.,0.,0.,0.,0.,0.
 ,0.,0.,0.,0.,0.,0.,0.,0.,0.,0.,0.,0.,0.,0.,0.,0.,0.,0.,0.,0.,0.,0.,0.,
 0.,0.,0.,0.,0.,0.,0.,0.,0.,0.,0.,0.,0.,0.,0.,0.,0.,0.,0.,0.,0.,0.,0.,0
 .,0.,0.,0.,0.,0.,0.,0.,0.,0.,0.,0.,0.,0.,0.,0.,0.,0.,0.,0.,0.,0.,0.,0.
 ,0.,0.,0.,0.,0.,0.,0.,0.,0.,0.,0.,0.,0.,0.,0.,0.,0.,0.,0.,0.,0.,0.,0.,
 0.,0.,0.,0.,0.,0.,0.,0.,0.,0.,0.,0.,0.,0.,0.,0.,0.,0.,0.,0.,0.,0.,0.,0
 .,0.,0.,0.,0.,0.,0.,0.,0.,0.,0.,0.,0.,0.,0.,0.,0.,0.,0.,0.,0.,0.,0.,0.
 ,0.,0.,0.,0.,0.,0.,0.,0.,0.,0.,0.,0.,0.,0.,0.,0.,0.,0.,0.,0.,0.,0.,0.,
 0.,0.,0.,0.,0.,0.,0.,0.,0.,0.,0.,0.,0.,0.,0.,0.,0.,0.,0.,0.,0.,0.,0.,0
 .,0.,0.,0.,0.,0.,0.,0.,0.,0.,0.,0.,0.,0.,0.,0.,0.,0.,0.,0.,0.,0.,0.,0.
 ,0.,0.,0.,0.,0.,0.,0.,0.,0.,0.,0.,0.,0.,0.,0.,0.,0.,0.,0.,0.,0.,0.,0.,
 0.,0.,0.,0.,0.,0.,0.,0.,0.,0.,0.,0.,0.,0.,0.,0.,0.,0.,0.,0.,0.,0.,0.,0
 .,0.,0.,0.,0.,0.,0.,0.,0.,0.,0.,0.,0.,0.,0.,0.,0.,0.,0.,0.,0.,0.,0.,0.
 ,0.,0.,0.,0.,0.,0.,0.,0.,0.,0.,0.,0.,0.,0.,0.,0.,0.,0.,0.,0.,0.,0.,0.,
 0.,0.,0.,0.,0.,0.,0.,0.,0.,0.,0.,0.,0.,0.,0.,0.,0.,0.,0.,0.,0.,0.,0.,0
 .,0.,0.,0.,0.,0.,0.,0.,0.,0.,0.,0.,0.,0.,0.,0.,0.,0.,0.,0.,0.,0.,0.,0.
 ,0.,0.,0.,0.,0.,0.,0.,0.,0.,0.,0.,0.,0.,0.,0.,0.,0.,0.,0.,0.,0.,0.,0.,
 0.,0.,0.,0.,0.,0.,0.,0.,0.,0.,0.,0.,0.,0.,0.,0.,0.,0.,0.,0.,0.,0.,0.,0
 .,0.,0.,0.,0.,0.,0.,0.,0.,0.,0.,0.,0.,0.,0.,0.,0.,0.,0.,0.,0.,0.,0.,0.
 ,0.,0.,0.,0.,0.,0.,0.,0.,0.,0.,0.,0.,0.,0.,0.,0.,0.,0.,0.,0.,0.,0.,0.,
 0.,0.,0.,0.,0.,0.,0.,0.,0.,0.,0.,0.,0.,0.,0.,0.,0.,0.,0.,0.,0.,0.,0.,0
 .,0.,0.,0.,0.,0.,0.,0.,0.,0.,0.,0.,0.,0.,0.,0.,0.,0.,0.,0.,0.,0.,0.,0.
 ,0.,0.,0.,0.,0.,0.,0.,0.,0.,0.,0.,0.,0.,0.,0.,0.,0.,0.,0.,0.,0.,0.,0.,
 0.,0.,0.,0.,0.,0.,0.,0.,0.,0.,0.,0.,0.,0.,0.,0.,0.,0.,0.,0.,0.,0.,0.,0
 .,0.,0.,0.,0.,0.,0.,0.,0.,0.,0.,0.,0.,0.,0.,0.,0.,0.,0.,0.,0.,0.,0.,0.
 ,0.,0.,0.,0.,0.,0.,0.,0.,0.,0.,0.,0.,0.,0.,0.,0.,0.,0.,0.,0.,0.,0.,0.,
 0.,0.,0.,0.,0.,0.,0.,0.,0.,0.,0.,0.,0.,0.,0.,0.,0.,0.,0.,0.,0.,0.,0.,0
 .,0.,0.,0.,0.,0.,0.,0.,0.,0.,0.,0.,0.,0.,0.,0.,0.,0.,0.,0.,0.,0.,0.,0.
 ,0.,0.,0.,0.,0.,0.,0.,0.,0.,0.,0.,0.,0.,0.,0.,0.,0.,0.,0.,0.,0.,0.,0.,
 0.,0.,0.,0.,0.,0.,0.,0.,0.,0.,0.,0.,0.,0.,0.,0.,0.,0.,0.,0.,0.,0.,0.,0
 .,0.,0.,0.,0.,0.,0.,0.,0.,0.,0.,0.,0.,0.,0.,0.,0.,0.,0.,0.,0.,0.,0.,0.
 ,0.,0.,0.,0.,0.,0.,0.,0.,0.,0.,0.,0.,0.,0.,0.,0.,0.,0.,0.,0.,0.,0.,0.,
 0.,0.,0.,0.,0.,0.,0.,0.,0.,0.,0.,0.,0.,0.,0.,0.,0.,0.,0.,0.,0.,0.,0.,0
 .,0.,0.,0.,0.,0.,0.,0.,0.,0.,0.,0.,0.,0.,0.,0.,0.,0.,0.,0.,0.,0.,0.,0.
 ,0.,0.,0.,0.,0.,0.,0.,0.,0.,0.,0.,0.,0.,0.,0.,0.,0.,0.,0.,0.,0.,0.,0.,
 0.,0.,0.,0.,0.,0.,0.,0.,0.,0.,0.,0.,0.,0.,0.,0.,0.,0.,0.,0.,0.,0.,0.,0
 .,0.,0.,0.,0.,0.,0.,0.,0.,0.,0.,0.,0.,0.,0.,0.,0.,0.,0.,0.,0.,0.,0.,0.
 ,0.,0.,0.,0.,0.,0.,0.,0.,0.,0.,0.,0.,0.,0.,0.,0.,0.,0.,0.,0.,0.,0.,0.,
 0.,0.,0.,0.,0.,0.,0.,0.,0.,0.,0.,0.,0.,0.,0.,0.,0.,0.,0.,0.,0.,0.,0.,0
 .,0.,0.,0.,0.,0.,0.,0.,0.,0.,0.,0.,0.,0.,0.,0.,0.,0.,0.,0.,0.,0.,0.,0.
 ,0.,0.,0.,0.,0.,0.,0.,0.,0.,0.,0.,0.,0.,0.,0.,0.,0.,0.,0.,0.,0.,0.,0.,
 0.,0.,0.,0.,0.,0.,0.,0.,0.,0.,0.,0.,0.,0.,0.,0.,0.,0.,0.,0.,0.,0.,0.,0
 .,0.,0.,0.,0.,0.,0.,0.,0.,0.,0.,0.,0.,0.,0.,0.,0.,0.,0.,0.,0.,0.,0.,0.
 ,0.,0.,0.,0.,0.,0.,0.,0.,0.,0.,0.,0.,0.,0.,0.,0.,0.,0.,0.,0.,0.,0.,0.,
 0.,0.,0.,0.,0.,0.,0.,0.,0.,0.,0.,0.,0.,0.,0.,0.,0.,0.,0.,0.,0.,0.,0.,0
 .,0.,0.,0.,0.,0.,0.,0.,0.,0.,0.,0.,0.,0.,0.,0.,0.,0.,0.,0.,0.,0.,0.,0.
 ,0.,0.,0.,0.,0.,0.,0.,0.,0.,0.,0.,0.,0.,0.,0.,0.,0.,0.,0.,0.,0.,0.,0.,
 0.,0.,0.,0.,0.,0.,0.,0.,0.,0.,0.,0.,0.,0.,0.,0.,0.,0.,0.,0.,0.,0.,0.,0
 .,0.,0.,0.,0.,0.,0.,0.,0.,0.,0.,0.,0.,0.,0.,0.,0.,0.,0.,0.,0.,0.,0.,0.
 ,0.,0.,0.,0.,0.,0.,0.,0.,0.,0.,0.,0.,0.,0.,0.,0.,0.,0.,0.,0.,0.,0.,0.,
 0.,0.,0.,0.,0.,0.,0.,0.,0.,0.,0.,0.,0.,0.,0.,0.,0.,0.,0.,0.,0.,0.,0.,0
 .,0.,0.,0.,0.,0.,0.,0.,0.,0.,0.,0.,0.,0.,0.,0.,0.,0.,0.,0.,0.,0.,0.,0.
 ,0.,0.,0.,0.,0.,0.,0.,0.,0.,0.,0.,0.,0.,0.,0.,0.,0.,0.,0.,0.,0.,0.,0.,
 0.,0.,0.,0.,0.,0.,0.,0.,0.,0.,0.,0.,0.,0.,0.,0.,0.,0.,0.,0.,0.,0.,0.,0
 .,0.,0.,0.,0.,0.,0.,0.,0.,0.,0.,0.,0.,0.,0.,0.,0.,0.,0.,0.,0.,0.,0.,0.
 ,0.,0.,0.,0.,0.,0.,0.,0.,0.,0.,0.,0.,0.,0.,0.,0.,0.,0.,0.,0.,0.,0.,0.,
 0.,0.,0.,0.,0.,0.,0.,0.,0.,0.,0.,0.,0.,0.,0.,0.,0.,0.,0.,0.,0.,0.,0.,0
 .,0.,0.,0.,0.,0.,0.,0.,0.,0.,0.,0.,0.,0.,0.,0.,0.,0.,0.,0.,0.,0.,0.,0.
 ,0.,0.,0.,0.,0.,0.,0.,0.,0.,0.,0.,0.,0.,0.,0.,0.,0.,0.,0.,0.,0.,0.,0.,
 0.,0.,0.,0.,0.,0.,0.,0.,0.,0.,0.,0.,0.,0.,0.,0.,0.,0.,0.,0.,0.,0.,0.,0
 .,0.,0.,0.,0.,0.,0.,0.,0.,0.,0.,0.,0.,0.,0.,0.,0.,0.,0.,0.,0.,0.,0.,0.
 ,0.,0.,0.,0.,0.,0.,0.,0.,0.,0.,0.,0.,0.,0.,0.,0.,0.,0.,0.,0.,0.,0.,0.,
 0.,0.,0.,0.,0.,0.,0.,0.,0.,0.,0.,0.,0.,0.,0.,0.,0.,0.,0.,0.,0.,0.,0.,0
 .,0.,0.,0.,0.,0.,0.,0.,0.,0.,0.,0.,0.,0.,0.,0.,0.,0.,0.,0.,0.,0.,0.,0.
 ,0.,0.,0.,0.,0.,0.,0.,0.,0.,0.,0.,0.,0.,0.,0.,0.,0.,0.,0.,0.,0.,0.,0.,
 0.,0.,0.,0.,0.,0.,0.,0.,0.,0.,0.,0.,0.,0.,0.,0.,0.,0.,0.,0.,0.,0.,0.,0
 .,0.,0.,0.,0.,0.,0.,0.,0.,0.,0.,0.,0.,0.,0.,0.,0.,0.,0.,0.,0.,0.,0.,0.
 ,0.,0.,0.,0.,0.,0.,0.,0.,0.,0.,0.,0.,0.,0.,0.,0.,0.,0.,0.,0.,0.,0.,0.,
 0.,0.,0.,0.,0.,0.,0.,0.,0.,0.,0.,0.,0.,0.,0.,0.,0.,0.,0.,0.,0.,0.,0.,0
 .,0.,0.,0.,0.,0.,0.,0.,0.,0.,0.,0.,0.,0.,0.,0.,0.,0.,0.,0.,0.,0.,0.,0.
 ,0.,0.,0.,0.,0.,0.,0.,0.,0.,0.,0.,0.,0.,0.,0.,0.,0.,0.,0.,0.,0.,0.,0.,
 0.,0.,0.,0.,0.,0.,0.,0.,0.,0.,0.,0.,0.,0.,0.,0.,0.,0.,0.,0.,0.,0.,0.,0
 .,0.,0.,0.,0.,0.,0.,0.,0.,0.,0.,0.,0.,0.,0.,0.,0.,0.,0.,0.,0.,0.,0.,0.
 ,0.,0.,0.,0.,0.,0.,0.,0.,0.,0.,0.,0.,0.,0.,0.,0.,0.,0.,0.,0.,0.,0.,0.,
 0.,0.,0.,0.,0.,0.,0.,0.,0.,0.,0.,0.,0.,0.,0.,0.,0.,0.,0.,0.,0.,0.,0.,0
 .,0.,0.,0.,0.,0.,0.,0.,0.,0.,0.,0.,0.,0.,0.,0.,0.,0.,0.,0.,0.,0.,0.,0.
 ,0.,0.,0.,0.,0.,0.,0.,0.,0.,0.,0.,0.,0.,0.,0.,0.,0.,0.,0.,0.,0.,0.,0.,
 0.,0.,0.,0.,0.,0.,0.,0.,0.,0.,0.,0.,0.,0.,0.,0.,0.,0.,0.,0.,0.,0.,0.,0
 .,0.,0.,0.,0.,0.,0.,0.,0.,0.,0.,0.,0.,0.,0.,0.,0.,0.,0.,0.,0.,0.,0.,0.
 ,0.,0.,0.,0.,0.,0.,0.,0.,0.,0.,0.,0.,0.,0.,0.,0.,0.,0.,0.,0.,0.,0.,0.,
 0.,0.,0.,0.,0.,0.,0.,0.,0.,0.,0.,0.,0.,0.,0.,0.,0.,0.,0.,0.,0.,0.,0.,0
 .,0.,0.,0.,0.,0.,0.,0.,0.,0.,0.,0.,0.,0.,0.,0.,0.,0.,0.,0.,0.,0.,0.,0.
 ,0.,0.,0.,0.,0.,0.,0.,0.,0.,0.,0.,0.,0.,0.,0.,0.,0.,0.,0.,0.,0.,0.,0.,
 0.,0.,0.,0.,0.,0.,0.,0.,0.,0.,0.,0.,0.,0.,0.,0.,0.,0.,0.,0.,0.,0.,0.,0
 .,0.,0.,0.,0.,0.,0.,0.,0.,0.,0.,0.,0.,0.,0.,0.,0.,0.,0.,0.,0.,0.,0.,0.
 ,0.,0.,0.,0.,0.,0.,0.,0.,0.,0.,0.,0.,0.,0.,0.,0.,0.,0.,0.,0.,0.,0.,0.,
 0.,0.,0.,0.,0.,0.,0.,0.,0.,0.,0.,0.,0.,0.,0.,0.,0.,0.,0.,0.,0.,0.,0.,0
 .,0.,0.,0.,0.,0.,0.,0.,0.,0.,0.,0.,0.,0.,0.,0.,0.,0.,0.,0.,0.,0.,0.,0.
 ,0.,0.,0.,0.,0.,0.,0.,0.,0.,0.,0.,0.,0.,0.,0.,0.,0.,0.,0.,0.,0.,0.,0.,
 0.,0.,0.,0.,0.,0.,0.,0.,0.,0.,0.,0.,0.,0.,0.,0.,0.,0.,0.,0.,0.,0.,0.,0
 .,0.,0.,0.,0.,0.,0.,0.,0.,0.,0.,0.,0.,0.,0.,0.,0.,0.,0.,0.,0.,0.,0.,0.
 ,0.,0.,0.,0.,0.,0.,0.,0.,0.,0.,0.,0.,0.,0.,0.,0.,0.,0.,0.,0.,0.,0.,0.,
 0.,0.,0.,0.,0.,0.,0.,0.,0.,0.,0.,0.,0.,0.,0.,0.,0.,0.,0.,0.,0.,0.,0.,0
 .,0.,0.,0.,0.,0.,0.,0.,0.,0.,0.,0.,0.,0.,0.,0.,0.,0.,0.,0.,0.,0.,0.,0.
 ,0.,0.,0.,0.,0.,0.,0.,0.,0.,0.,0.,0.,0.,0.,0.,0.,0.,0.,0.,0.,0.,0.,0.,
 0.,0.,0.,0.,0.,0.,0.,0.,0.,0.,0.,0.,0.,0.,0.,0.,0.,0.,0.,0.,0.,0.,0.,0
 .,0.,0.,0.,0.,0.,0.,0.,0.,0.,0.,0.,0.,0.,0.,0.,0.,0.,0.,0.,0.,0.,0.,0.
 ,0.,0.,0.,0.,0.,0.,0.,0.,0.,0.,0.,0.,0.,0.,0.,0.,0.,0.,0.,0.,0.,0.,0.,
 0.,0.,0.,0.,0.,0.,0.,0.,0.,0.,0.,0.,0.,0.,0.,0.,0.,0.,0.,0.,0.,0.,0.,0
 .,0.,0.,0.,0.,0.,0.,0.,0.,0.,0.,0.,0.,0.,0.,0.,0.,0.,0.,0.,0.,0.,0.,0.
 ,0.,0.,0.,0.,0.,0.,0.,0.,0.,0.,0.,0.,0.,0.,0.,0.,0.,0.,0.,0.,0.,0.,0.,
 0.,0.,0.,0.,0.,0.,0.,0.,0.,0.,0.,0.,0.,0.,0.,0.,0.,0.,0.,0.,0.,0.,0.,0
 .,0.,0.,0.,0.,0.,0.,0.,0.,0.,0.,0.,0.,0.,0.,0.,0.,0.,0.,0.,0.,0.,0.,0.
 ,0.,0.,0.,0.,0.,0.,0.,0.,0.,0.,0.,0.,0.,0.,0.,0.,0.,0.,0.,0.,0.,0.,0.,
 0.,0.,0.,0.,0.,0.,0.,0.,0.,0.,0.,0.,0.,0.,0.,0.,0.,0.,0.,0.,0.,0.,0.,0
 .,0.,0.,0.,0.,0.,0.,0.,0.,0.,0.,0.,0.,0.,0.,0.,0.,0.,0.,0.,0.,0.,0.,0.
 ,0.,0.,0.,0.,0.,0.,0.,0.,0.,0.,0.,0.,0.,0.,0.,0.,0.,0.,0.,0.,0.,0.,0.,
 0.,0.,0.,0.,0.,0.,0.,0.,0.,0.,0.,0.,0.,0.,0.,0.,0.,0.,0.,0.,0.,0.,0.,0
 .,0.,0.,0.,0.,0.,0.,0.,0.,0.,0.,0.,0.,0.,0.,0.,0.,0.,0.,0.,0.,0.,0.,0.
 ,0.,0.,0.,0.,0.,0.,0.,0.,0.,0.,0.,0.,0.,0.,0.,0.,0.,0.,0.,0.,0.,0.,0.,
 0.,0.,0.,0.,0.,0.,0.,0.,0.,0.,0.,0.,0.,0.,0.,0.,0.,0.,0.,0.,0.,0.,0.,0
 .,0.,0.,0.,0.,0.,0.,0.,0.,0.,0.,0.,0.,0.,0.,0.,0.,0.,0.,0.,0.,0.,0.,0.
 ,0.,0.,0.,0.,0.,0.,0.,0.,0.,0.,0.,0.,0.,0.,0.,0.,0.,0.,0.,0.,0.,0.,0.,
 0.,0.,0.,0.,0.,0.,0.,0.,0.,0.,0.,0.,0.,0.,0.,0.,0.,0.,0.,0.,0.,0.,0.,0
 .,0.,0.,0.,0.,0.,0.,0.,0.,0.,0.,0.,0.,0.,0.,0.,0.,0.,0.,0.,0.,0.,0.,0.
 ,0.,0.,0.,0.,0.,0.,0.,0.,0.,0.,0.,0.,0.,0.,0.,0.,0.,0.,0.,0.,0.,0.,0.,
 0.,0.,0.,0.,0.,0.,0.,0.,0.,0.,0.,0.,0.,0.,0.,0.,0.,0.,0.,0.,0.,0.,0.,0
 .,0.,0.,0.,0.,0.,0.,0.,0.,0.,0.,0.,0.,0.,0.,0.,0.,0.,0.,0.,0.,0.,0.,0.
 ,0.,0.,0.,0.,0.,0.,0.,0.,0.,0.,0.,0.,0.,0.,0.,0.,0.,0.47652623,0.,0.,0
 .,0.,0.,0.,0.,0.,0.,0.,0.,0.,0.,0.,0.,0.,0.,0.,0.,0.,0.,0.,0.,0.,0.,0.
 ,0.,0.,0.,0.,0.,0.,0.,0.,0.,0.,0.,0.,0.,0.,0.,0.,0.,0.,0.,0.,0.,0.,0.,
 0.,0.,0.,0.,0.,0.,0.,0.,0.,0.,0.,0.,0.,0.,0.,0.,0.,0.,0.,0.,0.,0.,0.,0
 .,0.,0.,0.,0.,0.,0.,0.,0.,0.,0.,0.,0.,0.,0.,0.,0.,0.,0.,0.,0.,0.,0.,0.
 ,0.,0.,0.,0.,0.,0.,0.,0.,0.,0.,0.,0.,0.,0.,0.,0.,0.,0.,0.,0.,0.,0.,0.,
 0.,0.,0.,0.,0.,0.,0.,0.,0.,0.,0.,0.,0.,0.,0.,0.,0.,0.,0.,0.,0.,0.,0.,0
 .,0.,-0.39893005,0.43870078,0.,0.,0.,0.,0.,0.,0.,0.,0.,0.,0.,0.,0.,0.,
 0.,0.,0.,0.,0.,0.,0.,0.,0.,0.,0.,0.,0.,0.,0.,0.,0.,0.,0.,0.,0.,0.,0.,0
 .,0.,0.,0.,0.,0.,0.,0.,0.,0.,0.,0.,0.,0.,0.,0.,0.,0.,0.,0.,0.,0.,0.,0.
 ,0.,0.,0.,0.,0.,0.,0.,0.,0.,0.,0.,0.,0.,0.,0.,0.,0.,0.,0.,0.,0.,0.,0.,
 0.,0.,0.,0.,0.,0.,0.,0.,0.,0.,0.,0.,0.,0.,0.,0.,0.,0.,0.,0.,0.,0.,0.,0
 .,0.,0.,0.,0.,0.,0.,0.,0.,0.,0.,0.,0.,0.,0.,0.,0.,0.,0.,0.,0.,0.,0.,0.
 ,0.,0.,0.,0.,0.,0.,0.,0.,0.,0.,0.,0.,0.,-0.13593726,-0.08435419,-0.004
 70610,0.,0.,0.,0.,0.,0.,0.,0.,0.,0.,0.,0.,0.,0.,0.,0.,0.,0.,0.,0.,0.,0
 .,0.,0.,0.,0.,0.,0.,0.,0.,0.,0.,0.,0.,0.,0.,0.,0.,0.,0.,0.,0.,0.,0.,0.
 ,0.,0.,0.,0.,0.,0.,0.,0.,0.,0.,0.,0.,0.,0.,0.,0.,0.,0.,0.,0.,0.,0.,0.,
 0.,0.,0.,0.,0.,0.,0.,0.,0.,0.,0.,0.,0.,0.,0.,0.,0.,0.,0.,0.,0.,0.,0.,0
 .,0.,0.,0.,0.,0.,0.,0.,0.,0.,0.,0.,0.,0.,0.,0.,0.,0.,0.,0.,0.,0.,0.,0.
 ,0.,0.,0.,0.,0.,0.,0.,0.,0.,0.,0.,0.,0.,0.,0.,0.,0.,0.,0.,0.,0.,0.,0.,
 0.,0.,0.,0.,0.,0.,-0.24116879,-0.00053390,0.05951964,0.31968858,0.,0.,
 0.,0.,0.,0.,0.,0.,0.,0.,0.,0.,0.,0.,0.,0.,0.,0.,0.,0.,0.,0.,0.,0.,0.,0
 .,0.,0.,0.,0.,0.,0.,0.,0.,0.,0.,0.,0.,0.,0.,0.,0.,0.,0.,0.,0.,0.,0.,0.
 ,0.,0.,0.,0.,0.,0.,0.,0.,0.,0.,0.,0.,0.,0.,0.,0.,0.,0.,0.,0.,0.,0.,0.,
 0.,0.,0.,0.,0.,0.,0.,0.,0.,0.,0.,0.,0.,0.,0.,0.,0.,0.,0.,0.,0.,0.,0.,0
 .,0.,0.,0.,0.,0.,0.,0.,0.,0.,0.,0.,0.,0.,0.,0.,0.,0.,0.,0.,0.,0.,0.,0.
 ,0.,0.,0.,0.,0.,0.,0.,0.,0.,0.,0.,0.,0.,0.,0.,0.,0.,0.,0.,0.,0.,0.,0.,
 0.,0.,0.01394285,-0.03988915,0.05918126,-0.04602022,0.05484981,0.,0.,0
 .,0.,0.,0.,0.,0.,0.,0.,0.,0.,0.,0.,0.,0.,0.,0.,0.,0.,0.,0.,0.,0.,0.,0.
 ,0.,0.,0.,0.,0.,0.,0.,0.,0.,0.,0.,0.,0.,0.,0.,0.,0.,0.,0.,0.,0.,0.,0.,
 0.,0.,0.,0.,0.,0.,0.,0.,0.,0.,0.,0.,0.,0.,0.,0.,0.,0.,0.,0.,0.,0.,0.,0
 .,0.,0.,0.,0.,0.,0.,0.,0.,0.,0.,0.,0.,0.,0.,0.,0.,0.,0.,0.,0.,0.,0.,0.
 ,0.,0.,0.,0.,0.,0.,0.,0.,0.,0.,0.,0.,0.,0.,0.,0.,0.,0.,0.,0.,0.,0.,0.,
 0.,0.,0.,0.,0.,0.,0.,0.,0.,0.,0.,0.,0.,0.,0.,0.,0.,0.,0.,0.,0.,0.,0.,0
 .,0.,0.16155472,0.03909107,0.00500915,-0.14234922,-0.00088267,0.086226
 34,0.,0.,0.,0.,0.,0.,0.,0.,0.,0.,0.,0.,0.,0.,0.,0.,0.,0.,0.,0.,0.,0.,0
 .,0.,0.,0.,0.,0.,0.,0.,0.,0.,0.,0.,0.,0.,0.,0.,0.,0.,0.,0.,0.,0.,0.,0.
 ,0.,0.,0.,0.,0.,0.,0.,0.,0.,0.,0.,0.,0.,0.,0.,0.,0.,0.,0.,0.,0.,0.,0.,
 0.,0.,0.,0.,0.,0.,0.,0.,0.,0.,0.,0.,0.,0.,0.,0.,0.,0.,0.,0.,0.,0.,0.,0
 .,0.,0.,0.,0.,0.,0.,0.,0.,0.,0.,0.,0.,0.,0.,0.,0.,0.,0.,0.,0.,0.,0.,0.
 ,0.,0.,0.,0.,0.,0.,0.,0.,0.,0.,0.,0.,0.,0.,0.,0.,0.,0.,0.,0.,0.,0.,0.,
 0.,0.,0.,0.,0.,-0.30995154,0.42457467,0.10230441,-0.06218962,0.0406112
 2,-0.01737914,0.41605352,0.,0.,0.,0.,0.,0.,0.,0.,0.,0.,0.,0.,0.,0.,0.,
 0.,0.,0.,0.,0.,0.,0.,0.,0.,0.,0.,0.,0.,0.,0.,0.,0.,0.,0.,0.,0.,0.,0.,0
 .,0.,0.,0.,0.,0.,0.,0.,0.,0.,0.,0.,0.,0.,0.,0.,0.,0.,0.,0.,0.,0.,0.,0.
 ,0.,0.,0.,0.,0.,0.,0.,0.,0.,0.,0.,0.,0.,0.,0.,0.,0.,0.,0.,0.,0.,0.,0.,
 0.,0.,0.,0.,0.,0.,0.,0.,0.,0.,0.,0.,0.,0.,0.,0.,0.,0.,0.,0.,0.,0.,0.,0
 .,0.,0.,0.,0.,0.,0.,0.,0.,0.,0.,0.,0.,0.,0.,0.,0.,0.,0.,0.,0.,0.,0.,0.
 ,0.,0.,0.,0.,0.,0.,0.,0.,0.,0.,0.,0.,0.40006896,-0.44657412,0.01198385
 ,0.02993278,-0.00875382,-0.01701068,-0.47362342,0.46524196,0.,0.,0.,0.
 ,0.,0.,0.,0.,0.,0.,0.,0.,0.,0.,0.,0.,0.,0.,0.,0.,0.,0.,0.,0.,0.,0.,0.,
 0.,0.,0.,0.,0.,0.,0.,0.,0.,0.,0.,0.,0.,0.,0.,0.,0.,0.,0.,0.,0.,0.,0.,0
 .,0.,0.,0.,0.,0.,0.,0.,0.,0.,0.,0.,0.,0.,0.,0.,0.,0.,0.,0.,0.,0.,0.,0.
 ,0.,0.,0.,0.,0.,0.,0.,0.,0.,0.,0.,0.,0.,0.,0.,0.,0.,0.,0.,0.,0.,0.,0.,
 0.,0.,0.,0.,0.,0.,0.,0.,0.,0.,0.,0.,0.,0.,0.,0.,0.,0.,0.,0.,0.,0.,0.,0
 .,0.,0.,0.,0.,0.,0.,0.,0.,0.,0.,0.,0.,0.,0.,0.,0.,0.,0.,0.,0.,0.,0.,0.
 ,0.01254613,0.08883449,0.11427273,0.01140904,-0.03377243,-0.01083200,0
 .01286364,-0.05672876,-0.01901322||0.,0.,0.,0.,0.,0.,0.,0.,0.,0.,0.,0.
 ,0.,0.,0.,0.,0.,0.,0.,0.,0.,0.,0.,0.,0.,0.,0.,0.,0.,0.,0.,0.,0.,0.,0.,
 0.,0.,0.,0.,0.,0.,0.,0.,0.,0.,0.,0.,0.,0.,0.,0.,0.,0.,0.,0.,0.,0.,0.,0
 .,0.,0.,0.,0.,0.,0.,0.,0.,0.,0.,0.,0.,0.,0.,0.,0.,0.,0.,0.,0.,0.,0.,0.
 ,0.,0.,0.,0.,0.,0.,0.,0.,0.,0.,0.,0.,0.,0.,0.,0.,0.,0.,0.,0.,0.,0.,0.,
 0.,0.,0.,0.,0.,0.,0.,0.,0.,0.,0.,0.,0.,0.,0.,0.,0.,0.,0.,0.,0.,0.,0.,0
 .,0.,0.,0.,0.,0.,0.,0.,0.,0.,0.,0.,0.,0.,0.,0.,0.10362515,-0.12590681,
 -0.02595160,-0.05705399,0.02982931,-0.02391685,-0.07174074,0.11190198,
 -0.06756498|||@


 TWO ROADS DIVERGED IN A WOOD, AND I--
 I TOOK THE ONE LESS TRAVELED BY,
 AND THAT HAS MADE ALL THE DIFFERENCE.

                       -- ROBERT FROST
 Job cpu time:       0 days  0 hours  3 minutes 53.0 seconds.
 File lengths (MBytes):  RWF=   1438 Int=      0 D2E=      0 Chk=     12 Scr=      1
 Normal termination of Gaussian 09 at Mon Dec 23 20:07:24 2024.
