 Entering Link 1 = C:\G09W\l1.exe PID=     13364.
  
 Copyright (c) 1988,1990,1992,1993,1995,1998,2003,2009,2013,
            Gaussian, Inc.  All Rights Reserved.
  
 This is part of the Gaussian(R) 09 program.  It is based on
 the Gaussian(R) 03 system (copyright 2003, Gaussian, Inc.),
 the Gaussian(R) 98 system (copyright 1998, Gaussian, Inc.),
 the Gaussian(R) 94 system (copyright 1995, Gaussian, Inc.),
 the Gaussian 92(TM) system (copyright 1992, Gaussian, Inc.),
 the Gaussian 90(TM) system (copyright 1990, Gaussian, Inc.),
 the Gaussian 88(TM) system (copyright 1988, Gaussian, Inc.),
 the Gaussian 86(TM) system (copyright 1986, Carnegie Mellon
 University), and the Gaussian 82(TM) system (copyright 1983,
 Carnegie Mellon University). Gaussian is a federally registered
 trademark of Gaussian, Inc.
  
 This software contains proprietary and confidential information,
 including trade secrets, belonging to Gaussian, Inc.
  
 This software is provided under written license and may be
 used, copied, transmitted, or stored only in accord with that
 written license.
  
 The following legend is applicable only to US Government
 contracts under FAR:
  
                    RESTRICTED RIGHTS LEGEND
  
 Use, reproduction and disclosure by the US Government is
 subject to restrictions as set forth in subparagraphs (a)
 and (c) of the Commercial Computer Software - Restricted
 Rights clause in FAR 52.227-19.
  
 Gaussian, Inc.
 340 Quinnipiac St., Bldg. 40, Wallingford CT 06492
  
  
 ---------------------------------------------------------------
 Warning -- This program may not be used in any manner that
 competes with the business of Gaussian, Inc. or will provide
 assistance to any competitor of Gaussian, Inc.  The licensee
 of this program is prohibited from giving any competitor of
 Gaussian, Inc. access to this program.  By using this program,
 the user acknowledges that Gaussian, Inc. is engaged in the
 business of creating and licensing software in the field of
 computational chemistry and represents and warrants to the
 licensee that it is not a competitor of Gaussian, Inc. and that
 it will not use this program in any manner prohibited above.
 ---------------------------------------------------------------
  

 Cite this work as:
 Gaussian 09, Revision D.01,
 M. J. Frisch, G. W. Trucks, H. B. Schlegel, G. E. Scuseria, 
 M. A. Robb, J. R. Cheeseman, G. Scalmani, V. Barone, B. Mennucci, 
 G. A. Petersson, H. Nakatsuji, M. Caricato, X. Li, H. P. Hratchian, 
 A. F. Izmaylov, J. Bloino, G. Zheng, J. L. Sonnenberg, M. Hada, 
 M. Ehara, K. Toyota, R. Fukuda, J. Hasegawa, M. Ishida, T. Nakajima, 
 Y. Honda, O. Kitao, H. Nakai, T. Vreven, J. A. Montgomery, Jr., 
 J. E. Peralta, F. Ogliaro, M. Bearpark, J. J. Heyd, E. Brothers, 
 K. N. Kudin, V. N. Staroverov, T. Keith, R. Kobayashi, J. Normand, 
 K. Raghavachari, A. Rendell, J. C. Burant, S. S. Iyengar, J. Tomasi, 
 M. Cossi, N. Rega, J. M. Millam, M. Klene, J. E. Knox, J. B. Cross, 
 V. Bakken, C. Adamo, J. Jaramillo, R. Gomperts, R. E. Stratmann, 
 O. Yazyev, A. J. Austin, R. Cammi, C. Pomelli, J. W. Ochterski, 
 R. L. Martin, K. Morokuma, V. G. Zakrzewski, G. A. Voth, 
 P. Salvador, J. J. Dannenberg, S. Dapprich, A. D. Daniels, 
 O. Farkas, J. B. Foresman, J. V. Ortiz, J. Cioslowski, 
 and D. J. Fox, Gaussian, Inc., Wallingford CT, 2013.
 
 ******************************************
 Gaussian 09:  IA32W-G09RevD.01 24-Apr-2013
                23-Dec-2024 
 ******************************************
 %nprocshared=2
 Will use up to    2 processors via shared memory.
 %mem=1GB
 %chk=C:\Users\Yash Shaw\Desktop\GaussView Work\New work\Rh doped MoS2+NH3\Rh dop
 ed MoS2+NH3 gas_Freq opt.chk
 ------------------------------------------------
 # freq pm6 guess=huckel scf=qc geom=connectivity
 ------------------------------------------------
 1/10=4,30=1,38=1,57=2/1,3;
 2/12=2,17=6,18=5,40=1/2;
 3/5=2,16=1,25=1,41=3900000,71=2,140=1/1,2,3;
 4/11=4,35=1/1;
 5/5=2,8=3,35=1,38=5,98=1/8;
 8/6=4,10=90,11=11/1;
 11/6=1,8=1,9=11,15=111,16=1/1,2,10;
 10/6=1/2;
 6/7=2,8=2,9=2,10=2,18=1,28=1/1;
 7/8=1,10=1,25=1/1,2,3,16;
 1/10=4,30=1/3;
 99//99;
 ---------------------
 Rh-doped MoS2+NH3 gas
 ---------------------
 Symbolic Z-matrix:
 Charge =  0 Multiplicity = 2
 Mo                   -1   -0.58871  -0.54927   0.10177 
 S                    -1   -1.86185   0.53271   1.8482 
 S                    -1   -2.59505  -0.03027  -1.14193 
 Mo                   -1    2.49405  -0.3423   -0.69311 
 Mo                   -1    5.57682  -0.13534  -1.488 
 Mo                   -1    8.65958   0.07163  -2.28289 
 S                    -1    1.22092   0.73968   1.05331 
 S                    -1    4.30368   0.94664   0.25843 
 S                    -1    7.38645   1.15361  -0.53646 
 S                    -1    0.48771   0.17669  -1.93682 
 S                    -1    3.57048   0.38366  -2.73171 
 S                    -1    6.65324   0.59062  -3.52659 
 Mo                   -1   -2.42516   2.05916   0.06097 
 Mo                   -1   -4.26161   4.66759   0.02016 
 Mo                   -1   -6.09806   7.27602  -0.02064 
 S                    -1   -3.6983    3.14114   1.8074 
 S                    -1   -5.53475   5.74957   1.76659 
 S                    -1   -7.3712    8.358     1.72579 
 S                    -1   -4.4315    2.57815  -1.18274 
 S                    -1   -6.26795   5.18658  -1.22354 
 S                    -1   -8.1044    7.79501  -1.26435 
 Mo                   -1    0.6576    2.26612  -0.73392 
 Mo                   -1   -1.17885   4.87455  -0.77472 
 Mo                   -1   -3.0153    7.48298  -0.81553 
 Mo                   -1    3.74037   2.47309  -1.52881 
 Mo                   -1    0.06746   7.68995  -1.61041 
 Mo                   -1    6.82313   2.68005  -2.32369 
 Mo                   -1    4.98668   5.28848  -2.3645 
 Mo                   -1    3.15023   7.89691  -2.4053 
 S                    -1   -0.61553   3.3481    1.01251 
 S                    -1   -2.45198   5.95653   0.97171 
 S                    -1   -4.28843   8.56496   0.9309 
 S                    -1    2.46723   3.55507   0.21762 
 S                    -1    0.63078   6.1635    0.17682 
 S                    -1   -1.20567   8.77193   0.13601 
 S                    -1    5.55      3.76203  -0.57726 
 S                    -1    3.71354   6.37046  -0.61807 
 S                    -1    1.87709   8.97889  -0.65887 
 S                    -1   -1.34874   2.78512  -1.97762 
 S                    -1   -3.18519   5.39355  -2.01843 
 S                    -1   -5.02164   8.00198  -2.05923 
 S                    -1    1.73403   2.99208  -2.77251 
 S                    -1   -0.10243   5.60051  -2.81332 
 S                    -1   -1.93888   8.20894  -2.85412 
 S                    -1    4.81679   3.19905  -3.5674 
 S                    -1    2.98034   5.80748  -3.6082 
 S                    -1    1.14389   8.41591  -3.64901 
 Rh                   -1    1.90392   5.08152  -1.56961 
 N                    0     2.89534   3.85297   1.94041 
 H                    0     2.62952   3.05398   2.4798 
 H                    0     2.42404   4.66281   2.28976 
 H                    0     3.88393   3.98729   2.00857 
 

 GradGradGradGradGradGradGradGradGradGradGradGradGradGradGradGradGradGrad
 Berny optimization.
 Initialization pass.
 Trust Radius=3.00D-01 FncErr=1.00D-07 GrdErr=1.00D-07
 Number of steps in this run=      2 maximum allowed number of steps=      2.
 GradGradGradGradGradGradGradGradGradGradGradGradGradGradGradGradGradGrad

 Stoichiometry    H3Mo15NRhS32(2)
 Framework group  C1[X(H3Mo15NRhS32)]
 Deg. of freedom   150
 Full point group                 C1      NOp   1
 Largest Abelian subgroup         C1      NOp   1
 Largest concise Abelian subgroup C1      NOp   1
                         Standard orientation:                         
 ---------------------------------------------------------------------
 Center     Atomic      Atomic             Coordinates (Angstroms)
 Number     Number       Type             X           Y           Z
 ---------------------------------------------------------------------
      1         42           0       -0.778931    4.789431   -0.031756
      2         16           0        1.058800    4.789288    1.538057
      3         16           0        1.067184    4.788814   -1.591701
      4         42           0       -3.542146    3.194844   -0.038916
      5         42           0       -6.305360    1.600256   -0.046076
      6         42           0       -9.068575    0.005669   -0.053236
      7         16           0       -1.704414    3.194700    1.530897
      8         16           0       -4.467629    1.600113    1.523736
      9         16           0       -7.230843    0.005526    1.516576
     10         16           0       -1.696031    3.194226   -1.598861
     11         16           0       -4.459245    1.599639   -1.606021
     12         16           0       -7.222460    0.005052   -1.613181
     13         42           0        1.983623    3.193703   -0.024114
     14         42           0        4.746178    1.597974   -0.016473
     15         42           0        7.508732    0.002246   -0.008832
     16         16           0        3.821355    3.193559    1.545698
     17         16           0        6.583909    1.597831    1.553340
     18         16           0        9.346464    0.002103    1.560981
     19         16           0        3.829738    3.193085   -1.584059
     20         16           0        6.592293    1.597357   -1.576418
     21         16           0        9.354847    0.001629   -1.568776
     22         42           0       -0.779591    1.599115   -0.031275
     23         42           0        1.982963    0.003387   -0.023633
     24         42           0        4.745518   -1.592341   -0.015992
     25         42           0       -3.542806    0.004528   -0.038435
     26         42           0        1.982303   -3.186928   -0.023152
     27         42           0       -6.306020   -1.590059   -0.045595
     28         42           0       -3.543466   -3.185787   -0.037953
     29         42           0       -0.780911   -4.781516   -0.030312
     30         16           0        1.058140    1.598972    1.538538
     31         16           0        3.820695    0.003244    1.546179
     32         16           0        6.583249   -1.592484    1.553821
     33         16           0       -1.705074    0.004385    1.531378
     34         16           0        1.057480   -1.591344    1.539019
     35         16           0        3.820035   -3.187072    1.546661
     36         16           0       -4.468289   -1.590203    1.524218
     37         16           0       -1.705734   -3.185931    1.531859
     38         16           0        1.056820   -4.781659    1.539501
     39         16           0        1.066524    1.598498   -1.591219
     40         16           0        3.829078    0.002770   -1.583578
     41         16           0        6.591632   -1.592958   -1.575937
     42         16           0       -1.696691    0.003911   -1.598380
     43         16           0        1.065864   -1.591817   -1.590738
     44         16           0        3.828418   -3.187546   -1.583097
     45         16           0       -4.459905   -1.590677   -1.605540
     46         16           0       -1.697351   -3.186405   -1.597898
     47         16           0        1.065204   -4.782133   -1.590257
     48         45           0       -0.780251   -1.591200   -0.030793
     49          7           0       -1.726433    0.025802    3.331124
     50          1           0       -1.764055    0.976090    3.640216
     51          1           0       -0.908332   -0.413347    3.702417
     52          1           0       -2.539789   -0.460855    3.649898
 ---------------------------------------------------------------------
 Rotational constants (GHZ):      0.0263340      0.0093116      0.0074257
 Standard basis: VSTO-6G (5D, 7F)
 There are   487 symmetry adapted cartesian basis functions of A   symmetry.
 There are   439 symmetry adapted basis functions of A   symmetry.
   439 basis functions,  2922 primitive gaussians,   487 cartesian basis functions
   150 alpha electrons      149 beta electrons
       nuclear repulsion energy      4256.9741591410 Hartrees.
 Integral buffers will be    262144 words long.
 Regular integral format.
 Two-electron integral symmetry is turned off.
 Do NDO integrals.
 One-electron integrals computed using PRISM.
 NBasis=   439 RedAO= F EigKep=  0.00D+00  NBF=   439
 NBsUse=   439 1.00D-04 EigRej=  0.00D+00 NBFU=   439
 Projected New-EHT guess.
 Enter ItEHT:  IZDO=4 IZDPar=0 Conv= 1.00D-06 N=  279
 It=   1                  EEH=  17.4322474767     EQH= 0.000000000000E+00 EH=  17.4322474767    
 Initial guess <Sx>= 0.0000 <Sy>= 0.0000 <Sz>= 0.5000 <S**2>= 0.7500 S= 0.5000
 Keep J ints in memory in canonical form, NReq=6389266.
 Gradient too large for Newton-Raphson or scaled steepest descent --
 use steepest descent instead.
     Accept linear search using points  2 and  3.
 Gradient too large for Newton-Raphson or scaled steepest descent --
 use steepest descent instead.
     Accept linear search using points  1 and  2.
 Gradient too large for Newton-Raphson or scaled steepest descent --
 use steepest descent instead.
     Minimum is close to point  2 DX=  1.33D-02 DF= -1.07D+00 DXR=  6.23D-02 DFR=  3.89D-03 which will be used.
 Gradient too large for Newton-Raphson or scaled steepest descent --
 use steepest descent instead.
     Minimum is close to point  2 DX=  1.69D-02 DF= -1.24D+00 DXR=  7.81D-02 DFR=  6.13D-03 which will be used.
 Gradient too large for Newton-Raphson or scaled steepest descent --
 use steepest descent instead.
 Gradient too large for Newton-Raphson or scaled steepest descent --
 use steepest descent instead.
     Minimum is close to point  3 DX= -2.13D-02 DF= -4.13D-01 DXR=  7.63D-02 DFR=  4.60D-03 which will be used.
 Gradient too large for Newton-Raphson or scaled steepest descent --
 use steepest descent instead.
 Gradient too large for Newton-Raphson -- use scaled steepest descent instead.
     Minimum is close to point  3 DX=  2.30D-02 DF= -5.74D-02 DXR=  5.44D-02 DFR=  1.73D-03 which will be used.
 Gradient too large for Newton-Raphson -- use scaled steepest descent instead.
     Note:  rotation exceeds Pi/2.
     Minimum is close to point  3 DX=  1.14D-02 DF= -1.63D-02 DXR=  3.65D-02 DFR=  8.61D-04 which will be used.
 Gradient too large for Newton-Raphson -- use scaled steepest descent instead.
     Accept linear search using points  1 and  2.
 Gradient too large for Newton-Raphson -- use scaled steepest descent instead.
     Minimum is close to point  2 DX= -3.71D-04 DF= -1.32D-05 DXR=  1.24D-03 DFR=  1.54D-06 which will be used.
 Gradient too large for Newton-Raphson -- use scaled steepest descent instead.
 Gradient too large for Newton-Raphson -- use scaled steepest descent instead.
     Accept linear search using points  1 and  2.
 Gradient too large for Newton-Raphson -- use scaled steepest descent instead.
     Accept linear search using points  6 and  7.
 Gradient too large for Newton-Raphson -- use scaled steepest descent instead.
 Gradient too large for Newton-Raphson -- use scaled steepest descent instead.
     Accept linear search using points  2 and  3.
 Gradient too large for Newton-Raphson -- use scaled steepest descent instead.
     Minimum is close to point  3 DX= -1.54D-02 DF= -8.95D-03 DXR=  8.33D-02 DFR=  6.98D-03 which will be used.
 Gradient too large for Newton-Raphson -- use scaled steepest descent instead.
     Accept linear search using points  1 and  2.
 Gradient too large for Newton-Raphson -- use scaled steepest descent instead.
     Minimum is close to point  2 DX= -4.69D-03 DF= -1.59D-04 DXR=  1.59D-02 DFR=  2.52D-04 which will be used.
 Gradient too large for Newton-Raphson -- use scaled steepest descent instead.
     Minimum is close to point  2 DX=  2.93D-02 DF= -1.14D-03 DXR=  4.65D-02 DFR=  2.17D-03 which will be used.
 Gradient too large for Newton-Raphson -- use scaled steepest descent instead.
     Accept linear search using points  1 and  2.
 Gradient too large for Newton-Raphson -- use scaled steepest descent instead.
     Accept linear search using points  4 and  5.
     Minimum is close to point  5 DX= -1.53D-01 DF= -4.51D-03 DXR=  4.18D-02 DFR=  2.99D-03 which will be used.
 Gradient too large for Newton-Raphson -- use scaled steepest descent instead.
     Accept linear search using points  1 and  2.
 Gradient too large for Newton-Raphson -- use scaled steepest descent instead.
 Gradient too large for Newton-Raphson -- use scaled steepest descent instead.
     Accept linear search using points  1 and  2.
 Gradient too large for Newton-Raphson -- use scaled steepest descent instead.
 Gradient too large for Newton-Raphson -- use scaled steepest descent instead.
     Accept linear search using points  1 and  2.
 Gradient too large for Newton-Raphson -- use scaled steepest descent instead.
 Gradient too large for Newton-Raphson -- use scaled steepest descent instead.
     Accept linear search using points  1 and  2.
 Gradient too large for Newton-Raphson -- use scaled steepest descent instead.
 Gradient too large for Newton-Raphson -- use scaled steepest descent instead.
     Minimum is close to point  3 DX=  3.31D-02 DF= -5.74D-04 DXR=  7.64D-02 DFR=  5.88D-03 which will be used.
 Gradient too large for Newton-Raphson -- use scaled steepest descent instead.
     Minimum is close to point  4 DX=  2.14D-01 DF= -5.22D-04 DXR=  5.62D-02 DFR=  3.34D-03 which will be used.
 Gradient too large for Newton-Raphson -- use scaled steepest descent instead.
 Gradient too large for Newton-Raphson -- use scaled steepest descent instead.
     Minimum is close to point  3 DX=  2.14D-01 DF= -4.33D-04 DXR=  7.90D-02 DFR=  6.43D-03 which will be used.
 Gradient too large for Newton-Raphson -- use scaled steepest descent instead.
 Gradient too large for Newton-Raphson -- use scaled steepest descent instead.
     Accept linear search using points  2 and  3.
     Minimum is close to point  3 DX= -8.54D-02 DF= -7.79D-05 DXR=  4.04D-02 DFR=  1.88D-03 which will be used.
 Gradient too large for Newton-Raphson -- use scaled steepest descent instead.
 Gradient too large for Newton-Raphson -- use scaled steepest descent instead.
     Minimum is close to point  3 DX=  1.99D-01 DF= -2.96D-04 DXR=  9.46D-02 DFR=  9.16D-03 which will be used.
 Gradient too large for Newton-Raphson -- use scaled steepest descent instead.
     Minimum is close to point  3 DX= -2.57D-02 DF= -7.20D-05 DXR=  5.42D-02 DFR=  2.94D-03 which will be used.
 Gradient too large for Newton-Raphson -- use scaled steepest descent instead.
 Gradient too large for Newton-Raphson -- use scaled steepest descent instead.
     Accept linear search using points  1 and  2.
 Gradient too large for Newton-Raphson -- use scaled steepest descent instead.
     Accept linear search using points  3 and  4.
     Minimum is close to point  4 DX= -1.80D-01 DF= -1.49D-04 DXR=  6.40D-02 DFR=  5.59D-03 which will be used.
 Gradient too large for Newton-Raphson -- use scaled steepest descent instead.
     Minimum is close to point  3 DX=  1.13D-02 DF= -2.11D-05 DXR=  2.75D-02 DFR=  7.59D-04 which will be used.
 Gradient too large for Newton-Raphson -- use scaled steepest descent instead.
     Minimum is close to point  4 DX=  2.20D-01 DF= -7.79D-05 DXR=  4.86D-02 DFR=  2.47D-03 which will be used.
 Gradient too large for Newton-Raphson -- use scaled steepest descent instead.
 Gradient too large for Newton-Raphson -- use scaled steepest descent instead.
 Gradient too large for Newton-Raphson -- use scaled steepest descent instead.
     Minimum is close to point  3 DX=  6.53D-03 DF= -4.03D-06 DXR=  1.61D-02 DFR=  2.58D-04 which will be used.
 Gradient too large for Newton-Raphson -- use scaled steepest descent instead.
 Gradient too large for Newton-Raphson -- use scaled steepest descent instead.
 Gradient too large for Newton-Raphson -- use scaled steepest descent instead.
 Gradient too large for Newton-Raphson -- use scaled steepest descent instead.
     Minimum is close to point  3 DX=  1.11D-02 DF= -7.37D-06 DXR=  2.70D-02 DFR=  7.31D-04 which will be used.
 Gradient too large for Newton-Raphson -- use scaled steepest descent instead.
     Accept linear search using points  3 and  4.
     Minimum is close to point  4 DX= -3.20D-01 DF= -6.92D-05 DXR=  7.13D-02 DFR=  6.70D-03 which will be used.
 Gradient too large for Newton-Raphson -- use scaled steepest descent instead.
 Gradient too large for Newton-Raphson -- use scaled steepest descent instead.
 Gradient too large for Newton-Raphson -- use scaled steepest descent instead.
     Accept linear search using points  1 and  2.
 Gradient too large for Newton-Raphson -- use scaled steepest descent instead.
     Accept linear search using points  2 and  3.
 Gradient too large for Newton-Raphson -- use scaled steepest descent instead.
     Accept linear search using points  1 and  2.
 Gradient too large for Newton-Raphson -- use scaled steepest descent instead.
     Accept linear search using points  2 and  3.
 Gradient too large for Newton-Raphson -- use scaled steepest descent instead.
     Accept linear search using points  1 and  2.
 Gradient too large for Newton-Raphson -- use scaled steepest descent instead.
 Gradient too large for Newton-Raphson -- use scaled steepest descent instead.
     Minimum is close to point  3 DX=  4.42D-02 DF= -3.36D-05 DXR=  9.95D-02 DFR=  1.00D-02 which will be used.
 Gradient too large for Newton-Raphson -- use scaled steepest descent instead.
     Minimum is close to point  5 DX=  5.47D-02 DF= -5.78D-07 DXR=  7.15D-03 DFR=  5.36D-05 which will be used.
 Gradient too large for Newton-Raphson -- use scaled steepest descent instead.
 Gradient too large for Newton-Raphson -- use scaled steepest descent instead.
 Gradient too large for Newton-Raphson -- use scaled steepest descent instead.
 Gradient too large for Newton-Raphson -- use scaled steepest descent instead.
     Accept linear search using points  2 and  3.
 Gradient too large for Newton-Raphson -- use scaled steepest descent instead.
     Minimum is close to point  3 DX= -3.20D-02 DF= -9.88D-06 DXR=  6.83D-02 DFR=  4.69D-03 which will be used.
 Gradient too large for Newton-Raphson -- use scaled steepest descent instead.
     Accept linear search using points  1 and  2.
 Gradient too large for Newton-Raphson -- use scaled steepest descent instead.
     Accept linear search using points  1 and  2.
 Gradient too large for Newton-Raphson -- use scaled steepest descent instead.
 Gradient too large for Newton-Raphson -- use scaled steepest descent instead.
 Gradient too large for Newton-Raphson -- use scaled steepest descent instead.
     Minimum is close to point  3 DX=  9.00D-02 DF= -3.29D-06 DXR=  4.52D-02 DFR=  2.06D-03 which will be used.
 Gradient too large for Newton-Raphson -- use scaled steepest descent instead.
     Accept linear search using points  1 and  2.
 Gradient too large for Newton-Raphson -- use scaled steepest descent instead.
     Accept linear search using points  2 and  3.
     Minimum is close to point  3 DX= -9.11D-02 DF= -3.06D-06 DXR=  5.03D-02 DFR=  2.18D-03 which will be used.
 Gradient too large for Newton-Raphson -- use scaled steepest descent instead.
 Gradient too large for Newton-Raphson -- use scaled steepest descent instead.
     Minimum is close to point  3 DX=  1.52D-01 DF= -8.35D-06 DXR=  7.78D-02 DFR=  6.11D-03 which will be used.
 Gradient too large for Newton-Raphson -- use scaled steepest descent instead.
     Accept linear search using points  1 and  2.
 Gradient too large for Newton-Raphson -- use scaled steepest descent instead.
     Accept linear search using points  2 and  3.
 Gradient too large for Newton-Raphson -- use scaled steepest descent instead.
     Accept linear search using points  1 and  2.
 Gradient too large for Newton-Raphson -- use scaled steepest descent instead.
     Accept linear search using points  2 and  3.
     Minimum is close to point  3 DX= -1.08D-01 DF= -3.84D-06 DXR=  6.39D-02 DFR=  3.56D-03 which will be used.
 Gradient too large for Newton-Raphson -- use scaled steepest descent instead.
     Accept linear search using points  1 and  2.
 Gradient too large for Newton-Raphson -- use scaled steepest descent instead.
     Minimum is close to point  3 DX=  1.84D-01 DF= -1.02D-05 DXR=  9.75D-02 DFR=  9.62D-03 which will be used.
 Gradient too large for Newton-Raphson -- use scaled steepest descent instead.
     Accept linear search using points  1 and  2.
 Gradient too large for Newton-Raphson -- use scaled steepest descent instead.
     Accept linear search using points  2 and  3.
 Gradient too large for Newton-Raphson -- use scaled steepest descent instead.
     Accept linear search using points  1 and  2.
 Gradient too large for Newton-Raphson -- use scaled steepest descent instead.
     Accept linear search using points  2 and  3.
     Minimum is close to point  3 DX= -3.71D-02 DF= -2.61D-07 DXR=  2.23D-02 DFR=  3.10D-04 which will be used.
 Gradient too large for Newton-Raphson -- use scaled steepest descent instead.
     Accept linear search using points  1 and  2.
 Gradient too large for Newton-Raphson -- use scaled steepest descent instead.
     Minimum is close to point  3 DX=  5.97D-02 DF= -9.28D-07 DXR=  3.39D-02 DFR=  1.16D-03 which will be used.
 Gradient too large for Newton-Raphson -- use scaled steepest descent instead.
     Accept linear search using points  1 and  2.
 Gradient too large for Newton-Raphson -- use scaled steepest descent instead.
     Accept linear search using points  2 and  3.
     Minimum is close to point  3 DX= -1.22D-01 DF= -3.36D-06 DXR=  7.28D-02 DFR=  4.68D-03 which will be used.
 Gradient too large for Newton-Raphson -- use scaled steepest descent instead.
     Accept linear search using points  1 and  2.
 Gradient too large for Newton-Raphson -- use scaled steepest descent instead.
 Gradient too large for Newton-Raphson -- use scaled steepest descent instead.
     Accept linear search using points  1 and  2.
 Gradient too large for Newton-Raphson -- use scaled steepest descent instead.
     Minimum is close to point  3 DX=  9.05D-02 DF= -1.50D-06 DXR=  4.79D-02 DFR=  2.30D-03 which will be used.
 Gradient too large for Newton-Raphson -- use scaled steepest descent instead.
     Accept linear search using points  1 and  2.
 Gradient too large for Newton-Raphson -- use scaled steepest descent instead.
     Accept linear search using points  2 and  3.
     Minimum is close to point  3 DX= -1.40D-01 DF= -3.60D-06 DXR=  7.93D-02 DFR=  6.34D-03 which will be used.
 Gradient too large for Newton-Raphson -- use scaled steepest descent instead.
     Minimum is close to point  3 DX=  4.34D-02 DF= -5.90D-06 DXR=  9.78D-02 DFR=  9.66D-03 which will be used.
 Gradient too large for Newton-Raphson -- use scaled steepest descent instead.
 Gradient too large for Newton-Raphson -- use scaled steepest descent instead.
 Gradient too large for Newton-Raphson -- use scaled steepest descent instead.
     Minimum is close to point  4 DX=  1.38D-01 DF= -5.09D-07 DXR=  1.93D-02 DFR=  3.78D-04 which will be used.
 Gradient too large for Newton-Raphson -- use scaled steepest descent instead.
 LinEq1:  Iter=  0 NonCon=     1 RMS=1.69D-04 Max=1.86D-02 NDo=     1
 AX will form     1 AO Fock derivatives at one time.
 LinEq1:  Iter=  1 NonCon=     1 RMS=6.27D-05 Max=1.32D-03 NDo=     1
 LinEq1:  Iter=  2 NonCon=     1 RMS=5.61D-05 Max=3.73D-03 NDo=     1
 LinEq1:  Iter=  3 NonCon=     1 RMS=2.80D-05 Max=1.44D-03 NDo=     1
 LinEq1:  Iter=  4 NonCon=     1 RMS=2.62D-05 Max=1.22D-03 NDo=     1
 LinEq1:  Iter=  5 NonCon=     1 RMS=1.78D-05 Max=4.53D-04 NDo=     1
 LinEq1:  Iter=  6 NonCon=     1 RMS=1.67D-05 Max=4.00D-04 NDo=     1
 LinEq1:  Iter=  7 NonCon=     1 RMS=1.42D-05 Max=4.32D-04 NDo=     1
 LinEq1:  Iter=  8 NonCon=     1 RMS=1.26D-05 Max=3.67D-04 NDo=     1
 LinEq1:  Iter=  9 NonCon=     1 RMS=1.04D-05 Max=3.07D-04 NDo=     1
 LinEq1:  Iter= 10 NonCon=     1 RMS=9.21D-06 Max=3.66D-04 NDo=     1
 LinEq1:  Iter= 11 NonCon=     1 RMS=7.22D-06 Max=3.37D-04 NDo=     1
 LinEq1:  Iter= 12 NonCon=     1 RMS=7.48D-06 Max=4.01D-04 NDo=     1
 LinEq1:  Iter= 13 NonCon=     1 RMS=5.71D-06 Max=1.73D-04 NDo=     1
 LinEq1:  Iter= 14 NonCon=     1 RMS=5.11D-06 Max=1.73D-04 NDo=     1
 LinEq1:  Iter= 15 NonCon=     1 RMS=3.97D-06 Max=2.85D-04 NDo=     1
 LinEq1:  Iter= 16 NonCon=     1 RMS=3.22D-06 Max=1.54D-04 NDo=     1
 LinEq1:  Iter= 17 NonCon=     1 RMS=2.90D-06 Max=1.99D-04 NDo=     1
 LinEq1:  Iter= 18 NonCon=     1 RMS=2.41D-06 Max=1.53D-04 NDo=     1
 LinEq1:  Iter= 19 NonCon=     1 RMS=1.70D-06 Max=1.07D-04 NDo=     1
 LinEq1:  Iter= 20 NonCon=     1 RMS=1.59D-06 Max=1.06D-04 NDo=     1
 LinEq1:  Iter= 21 NonCon=     1 RMS=1.12D-06 Max=6.29D-05 NDo=     1
 LinEq1:  Iter= 22 NonCon=     1 RMS=8.96D-07 Max=5.38D-05 NDo=     1
 LinEq1:  Iter= 23 NonCon=     1 RMS=6.21D-07 Max=3.19D-05 NDo=     1
 LinEq1:  Iter= 24 NonCon=     1 RMS=3.60D-07 Max=1.41D-05 NDo=     1
 LinEq1:  Iter= 25 NonCon=     1 RMS=2.97D-07 Max=1.06D-05 NDo=     1
 LinEq1:  Iter= 26 NonCon=     1 RMS=1.73D-07 Max=7.50D-06 NDo=     1
 LinEq1:  Iter= 27 NonCon=     1 RMS=9.01D-08 Max=3.07D-06 NDo=     1
 LinEq1:  Iter= 28 NonCon=     1 RMS=6.69D-08 Max=2.75D-06 NDo=     1
 LinEq1:  Iter= 29 NonCon=     1 RMS=4.10D-08 Max=1.49D-06 NDo=     1
 LinEq1:  Iter= 30 NonCon=     1 RMS=2.36D-08 Max=9.63D-07 NDo=     1
 LinEq1:  Iter= 31 NonCon=     1 RMS=1.43D-08 Max=3.75D-07 NDo=     1
 LinEq1:  Iter= 32 NonCon=     1 RMS=9.85D-09 Max=4.39D-07 NDo=     1
 LinEq1:  Iter= 33 NonCon=     0 RMS=4.94D-09 Max=1.79D-07 NDo=     1
 Linear equations converged to 2.942D-08 2.942D-07 after    33 iterations.
 Incorrect curvature in search direction -- initial direction reversed.
 Gradient too large for Newton-Raphson -- use scaled steepest descent instead.
     Accept linear search using points  2 and  3.
     Minimum is close to point  3 DX= -2.46D-01 DF= -1.86D-05 DXR=  8.05D-02 DFR=  8.11D-03 which will be used.
 Gradient too large for Newton-Raphson -- use scaled steepest descent instead.
 Gradient too large for Newton-Raphson -- use scaled steepest descent instead.
     Accept linear search using points  1 and  2.
 Gradient too large for Newton-Raphson -- use scaled steepest descent instead.
     Accept linear search using points  1 and  2.
 Gradient too large for Newton-Raphson -- use scaled steepest descent instead.
 Gradient too large for Newton-Raphson -- use scaled steepest descent instead.
 Gradient too large for Newton-Raphson -- use scaled steepest descent instead.
 Gradient too large for Newton-Raphson -- use scaled steepest descent instead.
 Gradient too large for Newton-Raphson -- use scaled steepest descent instead.
 Gradient too large for Newton-Raphson -- use scaled steepest descent instead.
 Gradient too large for Newton-Raphson -- use scaled steepest descent instead.
 Gradient too large for Newton-Raphson -- use scaled steepest descent instead.
 Gradient too large for Newton-Raphson -- use scaled steepest descent instead.
 Gradient too large for Newton-Raphson -- use scaled steepest descent instead.
 Gradient too large for Newton-Raphson -- use scaled steepest descent instead.
 Gradient too large for Newton-Raphson -- use scaled steepest descent instead.
 Gradient too large for Newton-Raphson -- use scaled steepest descent instead.
 Gradient too large for Newton-Raphson -- use scaled steepest descent instead.
 Gradient too large for Newton-Raphson -- use scaled steepest descent instead.
 Gradient too large for Newton-Raphson -- use scaled steepest descent instead.
 Gradient too large for Newton-Raphson -- use scaled steepest descent instead.
 Gradient too large for Newton-Raphson -- use scaled steepest descent instead.
 Gradient too large for Newton-Raphson -- use scaled steepest descent instead.
 Gradient too large for Newton-Raphson -- use scaled steepest descent instead.
 Gradient too large for Newton-Raphson -- use scaled steepest descent instead.
 Gradient too large for Newton-Raphson -- use scaled steepest descent instead.
 Gradient too large for Newton-Raphson -- use scaled steepest descent instead.
 Gradient too large for Newton-Raphson -- use scaled steepest descent instead.
 Gradient too large for Newton-Raphson -- use scaled steepest descent instead.
 Gradient too large for Newton-Raphson -- use scaled steepest descent instead.
 Gradient too large for Newton-Raphson -- use scaled steepest descent instead.
 Gradient too large for Newton-Raphson -- use scaled steepest descent instead.
 LinEq1:  Iter=  0 NonCon=     1 RMS=1.21D-04 Max=1.09D-02 NDo=     1
 LinEq1:  Iter=  1 NonCon=     1 RMS=1.24D-04 Max=4.25D-03 NDo=     1
 LinEq1:  Iter=  2 NonCon=     1 RMS=2.67D-05 Max=1.74D-03 NDo=     1
 LinEq1:  Iter=  3 NonCon=     1 RMS=1.35D-05 Max=8.91D-04 NDo=     1
 LinEq1:  Iter=  4 NonCon=     1 RMS=1.29D-05 Max=8.18D-04 NDo=     1
 LinEq1:  Iter=  5 NonCon=     1 RMS=1.33D-05 Max=7.37D-04 NDo=     1
 LinEq1:  Iter=  6 NonCon=     1 RMS=8.14D-06 Max=5.34D-04 NDo=     1
 LinEq1:  Iter=  7 NonCon=     1 RMS=8.09D-06 Max=6.06D-04 NDo=     1
 LinEq1:  Iter=  8 NonCon=     1 RMS=5.04D-06 Max=1.76D-04 NDo=     1
 LinEq1:  Iter=  9 NonCon=     1 RMS=4.50D-06 Max=1.75D-04 NDo=     1
 LinEq1:  Iter= 10 NonCon=     1 RMS=2.66D-06 Max=6.54D-05 NDo=     1
 LinEq1:  Iter= 11 NonCon=     1 RMS=2.31D-06 Max=1.11D-04 NDo=     1
 LinEq1:  Iter= 12 NonCon=     1 RMS=1.87D-06 Max=5.92D-05 NDo=     1
 LinEq1:  Iter= 13 NonCon=     1 RMS=1.55D-06 Max=4.31D-05 NDo=     1
 LinEq1:  Iter= 14 NonCon=     1 RMS=1.38D-06 Max=3.12D-05 NDo=     1
 LinEq1:  Iter= 15 NonCon=     1 RMS=1.11D-06 Max=3.85D-05 NDo=     1
 LinEq1:  Iter= 16 NonCon=     1 RMS=8.67D-07 Max=2.72D-05 NDo=     1
 LinEq1:  Iter= 17 NonCon=     1 RMS=6.90D-07 Max=2.54D-05 NDo=     1
 LinEq1:  Iter= 18 NonCon=     1 RMS=5.50D-07 Max=2.24D-05 NDo=     1
 LinEq1:  Iter= 19 NonCon=     1 RMS=4.33D-07 Max=2.23D-05 NDo=     1
 LinEq1:  Iter= 20 NonCon=     1 RMS=3.41D-07 Max=2.06D-05 NDo=     1
 LinEq1:  Iter= 21 NonCon=     1 RMS=2.71D-07 Max=1.36D-05 NDo=     1
 LinEq1:  Iter= 22 NonCon=     1 RMS=2.14D-07 Max=1.44D-05 NDo=     1
 LinEq1:  Iter= 23 NonCon=     1 RMS=1.37D-07 Max=8.09D-06 NDo=     1
 LinEq1:  Iter= 24 NonCon=     1 RMS=9.49D-08 Max=5.91D-06 NDo=     1
 LinEq1:  Iter= 25 NonCon=     1 RMS=4.46D-08 Max=2.25D-06 NDo=     1
 LinEq1:  Iter= 26 NonCon=     1 RMS=2.42D-08 Max=8.46D-07 NDo=     1
 LinEq1:  Iter= 27 NonCon=     1 RMS=1.85D-08 Max=5.23D-07 NDo=     1
 LinEq1:  Iter= 28 NonCon=     0 RMS=1.10D-08 Max=2.84D-07 NDo=     1
 Linear equations converged to 2.942D-08 2.942D-07 after    28 iterations.
 LinEq1:  Iter=  0 NonCon=     1 RMS=1.12D-04 Max=9.96D-03 NDo=     1
 LinEq1:  Iter=  1 NonCon=     1 RMS=1.18D-04 Max=4.44D-03 NDo=     1
 LinEq1:  Iter=  2 NonCon=     1 RMS=5.39D-05 Max=2.36D-03 NDo=     1
 LinEq1:  Iter=  3 NonCon=     1 RMS=4.25D-05 Max=3.12D-03 NDo=     1
 LinEq1:  Iter=  4 NonCon=     1 RMS=3.26D-05 Max=2.27D-03 NDo=     1
 LinEq1:  Iter=  5 NonCon=     1 RMS=2.38D-05 Max=1.68D-03 NDo=     1
 LinEq1:  Iter=  6 NonCon=     1 RMS=2.43D-05 Max=1.38D-03 NDo=     1
 LinEq1:  Iter=  7 NonCon=     1 RMS=2.03D-05 Max=1.42D-03 NDo=     1
 LinEq1:  Iter=  8 NonCon=     1 RMS=1.51D-05 Max=9.50D-04 NDo=     1
 LinEq1:  Iter=  9 NonCon=     1 RMS=1.10D-05 Max=7.09D-04 NDo=     1
 LinEq1:  Iter= 10 NonCon=     1 RMS=8.30D-06 Max=3.26D-04 NDo=     1
 LinEq1:  Iter= 11 NonCon=     1 RMS=7.05D-06 Max=1.91D-04 NDo=     1
 LinEq1:  Iter= 12 NonCon=     1 RMS=4.45D-06 Max=1.21D-04 NDo=     1
 LinEq1:  Iter= 13 NonCon=     1 RMS=3.28D-06 Max=1.05D-04 NDo=     1
 LinEq1:  Iter= 14 NonCon=     1 RMS=2.71D-06 Max=7.85D-05 NDo=     1
 LinEq1:  Iter= 15 NonCon=     1 RMS=1.79D-06 Max=5.44D-05 NDo=     1
 LinEq1:  Iter= 16 NonCon=     1 RMS=1.44D-06 Max=4.32D-05 NDo=     1
 LinEq1:  Iter= 17 NonCon=     1 RMS=1.12D-06 Max=3.59D-05 NDo=     1
 LinEq1:  Iter= 18 NonCon=     1 RMS=1.05D-06 Max=2.99D-05 NDo=     1
 LinEq1:  Iter= 19 NonCon=     1 RMS=7.64D-07 Max=2.61D-05 NDo=     1
 LinEq1:  Iter= 20 NonCon=     1 RMS=6.76D-07 Max=1.85D-05 NDo=     1
 LinEq1:  Iter= 21 NonCon=     1 RMS=4.68D-07 Max=1.76D-05 NDo=     1
 LinEq1:  Iter= 22 NonCon=     1 RMS=3.57D-07 Max=1.31D-05 NDo=     1
 LinEq1:  Iter= 23 NonCon=     1 RMS=3.04D-07 Max=1.13D-05 NDo=     1
 LinEq1:  Iter= 24 NonCon=     1 RMS=2.39D-07 Max=8.94D-06 NDo=     1
 LinEq1:  Iter= 25 NonCon=     1 RMS=2.01D-07 Max=7.11D-06 NDo=     1
 LinEq1:  Iter= 26 NonCon=     1 RMS=1.45D-07 Max=4.91D-06 NDo=     1
 LinEq1:  Iter= 27 NonCon=     1 RMS=8.68D-08 Max=2.42D-06 NDo=     1
 LinEq1:  Iter= 28 NonCon=     1 RMS=4.52D-08 Max=1.93D-06 NDo=     1
 LinEq1:  Iter= 29 NonCon=     1 RMS=3.28D-08 Max=1.07D-06 NDo=     1
 LinEq1:  Iter= 30 NonCon=     1 RMS=1.85D-08 Max=5.84D-07 NDo=     1
 LinEq1:  Iter= 31 NonCon=     1 RMS=1.19D-08 Max=4.04D-07 NDo=     1
 LinEq1:  Iter= 32 NonCon=     0 RMS=7.53D-09 Max=2.44D-07 NDo=     1
 Linear equations converged to 2.942D-08 2.942D-07 after    32 iterations.
 Gradient too large for Newton-Raphson -- use scaled steepest descent instead.
     Accept linear search using points  2 and  3.
 Gradient too large for Newton-Raphson -- use scaled steepest descent instead.
     Accept linear search using points  1 and  2.
 LinEq1:  Iter=  0 NonCon=     1 RMS=1.02D-04 Max=7.88D-03 NDo=     1
 LinEq1:  Iter=  1 NonCon=     1 RMS=1.18D-04 Max=4.43D-03 NDo=     1
 LinEq1:  Iter=  2 NonCon=     1 RMS=4.31D-05 Max=1.67D-03 NDo=     1
 LinEq1:  Iter=  3 NonCon=     1 RMS=3.71D-05 Max=1.97D-03 NDo=     1
 LinEq1:  Iter=  4 NonCon=     1 RMS=3.56D-05 Max=1.32D-03 NDo=     1
 LinEq1:  Iter=  5 NonCon=     1 RMS=2.48D-05 Max=1.44D-03 NDo=     1
 LinEq1:  Iter=  6 NonCon=     1 RMS=2.15D-05 Max=1.34D-03 NDo=     1
 LinEq1:  Iter=  7 NonCon=     1 RMS=2.07D-05 Max=1.13D-03 NDo=     1
 LinEq1:  Iter=  8 NonCon=     1 RMS=1.55D-05 Max=1.03D-03 NDo=     1
 LinEq1:  Iter=  9 NonCon=     1 RMS=1.22D-05 Max=6.35D-04 NDo=     1
 LinEq1:  Iter= 10 NonCon=     1 RMS=1.29D-05 Max=6.61D-04 NDo=     1
 LinEq1:  Iter= 11 NonCon=     1 RMS=1.03D-05 Max=3.47D-04 NDo=     1
 LinEq1:  Iter= 12 NonCon=     1 RMS=8.67D-06 Max=2.83D-04 NDo=     1
 LinEq1:  Iter= 13 NonCon=     1 RMS=7.42D-06 Max=2.35D-04 NDo=     1
 LinEq1:  Iter= 14 NonCon=     1 RMS=5.21D-06 Max=1.22D-04 NDo=     1
 LinEq1:  Iter= 15 NonCon=     1 RMS=4.39D-06 Max=1.37D-04 NDo=     1
 LinEq1:  Iter= 16 NonCon=     1 RMS=3.09D-06 Max=6.86D-05 NDo=     1
 LinEq1:  Iter= 17 NonCon=     1 RMS=2.74D-06 Max=9.67D-05 NDo=     1
 LinEq1:  Iter= 18 NonCon=     1 RMS=1.66D-06 Max=5.03D-05 NDo=     1
 LinEq1:  Iter= 19 NonCon=     1 RMS=1.45D-06 Max=4.25D-05 NDo=     1
 LinEq1:  Iter= 20 NonCon=     1 RMS=1.10D-06 Max=2.58D-05 NDo=     1
 LinEq1:  Iter= 21 NonCon=     1 RMS=6.70D-07 Max=1.94D-05 NDo=     1
 LinEq1:  Iter= 22 NonCon=     1 RMS=4.65D-07 Max=1.35D-05 NDo=     1
 LinEq1:  Iter= 23 NonCon=     1 RMS=2.92D-07 Max=8.10D-06 NDo=     1
 LinEq1:  Iter= 24 NonCon=     1 RMS=1.96D-07 Max=6.76D-06 NDo=     1
 LinEq1:  Iter= 25 NonCon=     1 RMS=9.94D-08 Max=2.95D-06 NDo=     1
 LinEq1:  Iter= 26 NonCon=     1 RMS=6.48D-08 Max=1.53D-06 NDo=     1
 LinEq1:  Iter= 27 NonCon=     1 RMS=4.39D-08 Max=1.14D-06 NDo=     1
 LinEq1:  Iter= 28 NonCon=     1 RMS=2.41D-08 Max=5.90D-07 NDo=     1
 LinEq1:  Iter= 29 NonCon=     1 RMS=1.68D-08 Max=4.42D-07 NDo=     1
 LinEq1:  Iter= 30 NonCon=     1 RMS=1.14D-08 Max=4.56D-07 NDo=     1
 LinEq1:  Iter= 31 NonCon=     0 RMS=5.73D-09 Max=1.85D-07 NDo=     1
 Linear equations converged to 2.942D-08 2.942D-07 after    31 iterations.
 LinEq1:  Iter=  0 NonCon=     1 RMS=1.01D-04 Max=7.90D-03 NDo=     1
 LinEq1:  Iter=  1 NonCon=     1 RMS=1.16D-04 Max=4.70D-03 NDo=     1
 LinEq1:  Iter=  2 NonCon=     1 RMS=6.08D-05 Max=2.66D-03 NDo=     1
 LinEq1:  Iter=  3 NonCon=     1 RMS=5.12D-05 Max=2.80D-03 NDo=     1
 LinEq1:  Iter=  4 NonCon=     1 RMS=4.35D-05 Max=1.77D-03 NDo=     1
 LinEq1:  Iter=  5 NonCon=     1 RMS=4.14D-05 Max=3.13D-03 NDo=     1
 LinEq1:  Iter=  6 NonCon=     1 RMS=3.38D-05 Max=1.81D-03 NDo=     1
 LinEq1:  Iter=  7 NonCon=     1 RMS=2.65D-05 Max=1.65D-03 NDo=     1
 LinEq1:  Iter=  8 NonCon=     1 RMS=2.49D-05 Max=1.63D-03 NDo=     1
 LinEq1:  Iter=  9 NonCon=     1 RMS=2.10D-05 Max=9.33D-04 NDo=     1
 LinEq1:  Iter= 10 NonCon=     1 RMS=1.86D-05 Max=1.21D-03 NDo=     1
 LinEq1:  Iter= 11 NonCon=     1 RMS=1.58D-05 Max=5.34D-04 NDo=     1
 LinEq1:  Iter= 12 NonCon=     1 RMS=1.51D-05 Max=5.26D-04 NDo=     1
 LinEq1:  Iter= 13 NonCon=     1 RMS=1.10D-05 Max=4.33D-04 NDo=     1
 LinEq1:  Iter= 14 NonCon=     1 RMS=9.00D-06 Max=2.52D-04 NDo=     1
 LinEq1:  Iter= 15 NonCon=     1 RMS=7.75D-06 Max=3.17D-04 NDo=     1
 LinEq1:  Iter= 16 NonCon=     1 RMS=5.75D-06 Max=1.42D-04 NDo=     1
 LinEq1:  Iter= 17 NonCon=     1 RMS=4.59D-06 Max=8.66D-05 NDo=     1
 LinEq1:  Iter= 18 NonCon=     1 RMS=2.57D-06 Max=8.15D-05 NDo=     1
 LinEq1:  Iter= 19 NonCon=     1 RMS=2.15D-06 Max=7.62D-05 NDo=     1
 LinEq1:  Iter= 20 NonCon=     1 RMS=1.49D-06 Max=7.30D-05 NDo=     1
 LinEq1:  Iter= 21 NonCon=     1 RMS=1.10D-06 Max=5.90D-05 NDo=     1
 LinEq1:  Iter= 22 NonCon=     1 RMS=8.01D-07 Max=3.68D-05 NDo=     1
 LinEq1:  Iter= 23 NonCon=     1 RMS=5.66D-07 Max=3.34D-05 NDo=     1
 LinEq1:  Iter= 24 NonCon=     1 RMS=3.89D-07 Max=2.09D-05 NDo=     1
 LinEq1:  Iter= 25 NonCon=     1 RMS=2.62D-07 Max=1.12D-05 NDo=     1
 LinEq1:  Iter= 26 NonCon=     1 RMS=1.82D-07 Max=8.15D-06 NDo=     1
 LinEq1:  Iter= 27 NonCon=     1 RMS=1.06D-07 Max=2.89D-06 NDo=     1
 LinEq1:  Iter= 28 NonCon=     1 RMS=6.62D-08 Max=1.78D-06 NDo=     1
 LinEq1:  Iter= 29 NonCon=     1 RMS=3.89D-08 Max=1.05D-06 NDo=     1
 LinEq1:  Iter= 30 NonCon=     1 RMS=2.25D-08 Max=5.80D-07 NDo=     1
 LinEq1:  Iter= 31 NonCon=     1 RMS=1.61D-08 Max=4.91D-07 NDo=     1
 LinEq1:  Iter= 32 NonCon=     0 RMS=1.02D-08 Max=2.66D-07 NDo=     1
 Linear equations converged to 2.942D-08 2.942D-07 after    32 iterations.
 Incorrect curvature in search direction -- initial direction reversed.
 Gradient too large for Newton-Raphson -- use scaled steepest descent instead.
     Accept linear search using points  2 and  3.
 Gradient too large for Newton-Raphson -- use scaled steepest descent instead.
     Accept linear search using points  1 and  2.
 LinEq1:  Iter=  0 NonCon=     1 RMS=1.25D-04 Max=9.42D-03 NDo=     1
 LinEq1:  Iter=  1 NonCon=     1 RMS=1.42D-04 Max=6.99D-03 NDo=     1
 LinEq1:  Iter=  2 NonCon=     1 RMS=4.97D-05 Max=4.40D-03 NDo=     1
 LinEq1:  Iter=  3 NonCon=     1 RMS=5.71D-05 Max=5.68D-03 NDo=     1
 LinEq1:  Iter=  4 NonCon=     1 RMS=4.66D-05 Max=2.34D-03 NDo=     1
 LinEq1:  Iter=  5 NonCon=     1 RMS=3.06D-05 Max=1.56D-03 NDo=     1
 LinEq1:  Iter=  6 NonCon=     1 RMS=3.39D-05 Max=2.09D-03 NDo=     1
 LinEq1:  Iter=  7 NonCon=     1 RMS=2.13D-05 Max=7.77D-04 NDo=     1
 LinEq1:  Iter=  8 NonCon=     1 RMS=1.76D-05 Max=1.56D-03 NDo=     1
 LinEq1:  Iter=  9 NonCon=     1 RMS=1.45D-05 Max=1.05D-03 NDo=     1
 LinEq1:  Iter= 10 NonCon=     1 RMS=1.10D-05 Max=7.65D-04 NDo=     1
 LinEq1:  Iter= 11 NonCon=     1 RMS=9.42D-06 Max=6.45D-04 NDo=     1
 LinEq1:  Iter= 12 NonCon=     1 RMS=1.04D-05 Max=6.92D-04 NDo=     1
 LinEq1:  Iter= 13 NonCon=     1 RMS=7.18D-06 Max=3.12D-04 NDo=     1
 LinEq1:  Iter= 14 NonCon=     1 RMS=6.04D-06 Max=1.82D-04 NDo=     1
 LinEq1:  Iter= 15 NonCon=     1 RMS=5.20D-06 Max=1.93D-04 NDo=     1
 LinEq1:  Iter= 16 NonCon=     1 RMS=4.02D-06 Max=9.31D-05 NDo=     1
 LinEq1:  Iter= 17 NonCon=     1 RMS=2.99D-06 Max=1.12D-04 NDo=     1
 LinEq1:  Iter= 18 NonCon=     1 RMS=2.40D-06 Max=7.40D-05 NDo=     1
 LinEq1:  Iter= 19 NonCon=     1 RMS=1.59D-06 Max=4.99D-05 NDo=     1
 LinEq1:  Iter= 20 NonCon=     1 RMS=1.33D-06 Max=3.60D-05 NDo=     1
 LinEq1:  Iter= 21 NonCon=     1 RMS=7.40D-07 Max=1.33D-05 NDo=     1
 LinEq1:  Iter= 22 NonCon=     1 RMS=4.24D-07 Max=1.22D-05 NDo=     1
 LinEq1:  Iter= 23 NonCon=     1 RMS=2.48D-07 Max=4.94D-06 NDo=     1
 LinEq1:  Iter= 24 NonCon=     1 RMS=1.71D-07 Max=3.94D-06 NDo=     1
 LinEq1:  Iter= 25 NonCon=     1 RMS=9.50D-08 Max=2.36D-06 NDo=     1
 LinEq1:  Iter= 26 NonCon=     1 RMS=5.89D-08 Max=1.49D-06 NDo=     1
 LinEq1:  Iter= 27 NonCon=     1 RMS=4.11D-08 Max=1.32D-06 NDo=     1
 LinEq1:  Iter= 28 NonCon=     1 RMS=2.18D-08 Max=5.57D-07 NDo=     1
 LinEq1:  Iter= 29 NonCon=     1 RMS=1.44D-08 Max=3.21D-07 NDo=     1
 LinEq1:  Iter= 30 NonCon=     0 RMS=9.46D-09 Max=2.23D-07 NDo=     1
 Linear equations converged to 2.942D-08 2.942D-07 after    30 iterations.
 Incorrect curvature in search direction -- initial direction reversed.
 Gradient too large for Newton-Raphson -- use scaled steepest descent instead.
 Gradient too large for Newton-Raphson -- use scaled steepest descent instead.
     Accept linear search using points  1 and  2.
 LinEq1:  Iter=  0 NonCon=     1 RMS=1.19D-04 Max=1.00D-02 NDo=     1
 LinEq1:  Iter=  1 NonCon=     1 RMS=1.22D-04 Max=5.00D-03 NDo=     1
 LinEq1:  Iter=  2 NonCon=     1 RMS=5.91D-05 Max=4.28D-03 NDo=     1
 LinEq1:  Iter=  3 NonCon=     1 RMS=5.79D-05 Max=2.83D-03 NDo=     1
 LinEq1:  Iter=  4 NonCon=     1 RMS=3.32D-05 Max=1.34D-03 NDo=     1
 LinEq1:  Iter=  5 NonCon=     1 RMS=3.12D-05 Max=1.04D-03 NDo=     1
 LinEq1:  Iter=  6 NonCon=     1 RMS=2.77D-05 Max=8.69D-04 NDo=     1
 LinEq1:  Iter=  7 NonCon=     1 RMS=1.82D-05 Max=7.07D-04 NDo=     1
 LinEq1:  Iter=  8 NonCon=     1 RMS=1.58D-05 Max=3.76D-04 NDo=     1
 LinEq1:  Iter=  9 NonCon=     1 RMS=1.21D-05 Max=7.19D-04 NDo=     1
 LinEq1:  Iter= 10 NonCon=     1 RMS=1.21D-05 Max=5.51D-04 NDo=     1
 LinEq1:  Iter= 11 NonCon=     1 RMS=1.02D-05 Max=4.11D-04 NDo=     1
 LinEq1:  Iter= 12 NonCon=     1 RMS=7.87D-06 Max=3.05D-04 NDo=     1
 LinEq1:  Iter= 13 NonCon=     1 RMS=7.04D-06 Max=1.84D-04 NDo=     1
 LinEq1:  Iter= 14 NonCon=     1 RMS=4.75D-06 Max=1.37D-04 NDo=     1
 LinEq1:  Iter= 15 NonCon=     1 RMS=3.87D-06 Max=1.10D-04 NDo=     1
 LinEq1:  Iter= 16 NonCon=     1 RMS=2.31D-06 Max=5.47D-05 NDo=     1
 LinEq1:  Iter= 17 NonCon=     1 RMS=1.21D-06 Max=3.36D-05 NDo=     1
 LinEq1:  Iter= 18 NonCon=     1 RMS=8.65D-07 Max=3.35D-05 NDo=     1
 LinEq1:  Iter= 19 NonCon=     1 RMS=4.91D-07 Max=1.57D-05 NDo=     1
 LinEq1:  Iter= 20 NonCon=     1 RMS=3.25D-07 Max=1.16D-05 NDo=     1
 LinEq1:  Iter= 21 NonCon=     1 RMS=2.15D-07 Max=7.26D-06 NDo=     1
 LinEq1:  Iter= 22 NonCon=     1 RMS=1.60D-07 Max=3.72D-06 NDo=     1
 LinEq1:  Iter= 23 NonCon=     1 RMS=1.27D-07 Max=3.15D-06 NDo=     1
 LinEq1:  Iter= 24 NonCon=     1 RMS=8.25D-08 Max=2.22D-06 NDo=     1
 LinEq1:  Iter= 25 NonCon=     1 RMS=5.24D-08 Max=1.98D-06 NDo=     1
 LinEq1:  Iter= 26 NonCon=     1 RMS=2.56D-08 Max=6.51D-07 NDo=     1
 LinEq1:  Iter= 27 NonCon=     1 RMS=1.88D-08 Max=5.61D-07 NDo=     1
 LinEq1:  Iter= 28 NonCon=     1 RMS=1.24D-08 Max=3.25D-07 NDo=     1
 LinEq1:  Iter= 29 NonCon=     0 RMS=7.03D-09 Max=1.85D-07 NDo=     1
 Linear equations converged to 2.942D-08 2.942D-07 after    29 iterations.
 LinEq1:  Iter=  0 NonCon=     1 RMS=1.06D-04 Max=6.79D-03 NDo=     1
 LinEq1:  Iter=  1 NonCon=     1 RMS=1.09D-04 Max=4.66D-03 NDo=     1
 LinEq1:  Iter=  2 NonCon=     1 RMS=6.13D-05 Max=3.98D-03 NDo=     1
 LinEq1:  Iter=  3 NonCon=     1 RMS=5.53D-05 Max=2.34D-03 NDo=     1
 LinEq1:  Iter=  4 NonCon=     1 RMS=4.44D-05 Max=2.30D-03 NDo=     1
 LinEq1:  Iter=  5 NonCon=     1 RMS=3.49D-05 Max=1.47D-03 NDo=     1
 LinEq1:  Iter=  6 NonCon=     1 RMS=3.32D-05 Max=1.32D-03 NDo=     1
 LinEq1:  Iter=  7 NonCon=     1 RMS=2.41D-05 Max=1.01D-03 NDo=     1
 LinEq1:  Iter=  8 NonCon=     1 RMS=2.13D-05 Max=6.26D-04 NDo=     1
 LinEq1:  Iter=  9 NonCon=     1 RMS=1.74D-05 Max=4.96D-04 NDo=     1
 LinEq1:  Iter= 10 NonCon=     1 RMS=1.44D-05 Max=4.95D-04 NDo=     1
 LinEq1:  Iter= 11 NonCon=     1 RMS=1.44D-05 Max=4.54D-04 NDo=     1
 LinEq1:  Iter= 12 NonCon=     1 RMS=1.13D-05 Max=3.16D-04 NDo=     1
 LinEq1:  Iter= 13 NonCon=     1 RMS=8.80D-06 Max=2.47D-04 NDo=     1
 LinEq1:  Iter= 14 NonCon=     1 RMS=6.79D-06 Max=1.47D-04 NDo=     1
 LinEq1:  Iter= 15 NonCon=     1 RMS=5.38D-06 Max=1.50D-04 NDo=     1
 LinEq1:  Iter= 16 NonCon=     1 RMS=3.48D-06 Max=6.93D-05 NDo=     1
 LinEq1:  Iter= 17 NonCon=     1 RMS=2.23D-06 Max=5.72D-05 NDo=     1
 LinEq1:  Iter= 18 NonCon=     1 RMS=1.69D-06 Max=3.46D-05 NDo=     1
 LinEq1:  Iter= 19 NonCon=     1 RMS=1.27D-06 Max=3.60D-05 NDo=     1
 LinEq1:  Iter= 20 NonCon=     1 RMS=9.79D-07 Max=2.42D-05 NDo=     1
 LinEq1:  Iter= 21 NonCon=     1 RMS=6.31D-07 Max=1.49D-05 NDo=     1
 LinEq1:  Iter= 22 NonCon=     1 RMS=3.52D-07 Max=8.13D-06 NDo=     1
 LinEq1:  Iter= 23 NonCon=     1 RMS=2.14D-07 Max=7.09D-06 NDo=     1
 LinEq1:  Iter= 24 NonCon=     1 RMS=1.45D-07 Max=3.69D-06 NDo=     1
 LinEq1:  Iter= 25 NonCon=     1 RMS=8.66D-08 Max=3.82D-06 NDo=     1
 LinEq1:  Iter= 26 NonCon=     1 RMS=5.05D-08 Max=1.47D-06 NDo=     1
 LinEq1:  Iter= 27 NonCon=     1 RMS=3.11D-08 Max=1.50D-06 NDo=     1
 LinEq1:  Iter= 28 NonCon=     1 RMS=1.68D-08 Max=6.76D-07 NDo=     1
 LinEq1:  Iter= 29 NonCon=     1 RMS=1.01D-08 Max=3.98D-07 NDo=     1
 LinEq1:  Iter= 30 NonCon=     0 RMS=6.63D-09 Max=2.71D-07 NDo=     1
 Linear equations converged to 2.942D-08 2.942D-07 after    30 iterations.
 LinEq1:  Iter=  0 NonCon=     1 RMS=9.60D-05 Max=6.17D-03 NDo=     1
 LinEq1:  Iter=  1 NonCon=     1 RMS=1.08D-04 Max=5.95D-03 NDo=     1
 LinEq1:  Iter=  2 NonCon=     1 RMS=6.75D-05 Max=3.69D-03 NDo=     1
 LinEq1:  Iter=  3 NonCon=     1 RMS=6.54D-05 Max=3.40D-03 NDo=     1
 LinEq1:  Iter=  4 NonCon=     1 RMS=4.83D-05 Max=2.41D-03 NDo=     1
 LinEq1:  Iter=  5 NonCon=     1 RMS=4.62D-05 Max=1.66D-03 NDo=     1
 LinEq1:  Iter=  6 NonCon=     1 RMS=3.74D-05 Max=1.81D-03 NDo=     1
 LinEq1:  Iter=  7 NonCon=     1 RMS=2.99D-05 Max=1.08D-03 NDo=     1
 LinEq1:  Iter=  8 NonCon=     1 RMS=2.64D-05 Max=9.95D-04 NDo=     1
 LinEq1:  Iter=  9 NonCon=     1 RMS=1.95D-05 Max=7.34D-04 NDo=     1
 LinEq1:  Iter= 10 NonCon=     1 RMS=1.67D-05 Max=5.31D-04 NDo=     1
 LinEq1:  Iter= 11 NonCon=     1 RMS=1.64D-05 Max=8.49D-04 NDo=     1
 LinEq1:  Iter= 12 NonCon=     1 RMS=1.37D-05 Max=5.49D-04 NDo=     1
 LinEq1:  Iter= 13 NonCon=     1 RMS=1.06D-05 Max=2.84D-04 NDo=     1
 LinEq1:  Iter= 14 NonCon=     1 RMS=8.62D-06 Max=2.01D-04 NDo=     1
 LinEq1:  Iter= 15 NonCon=     1 RMS=6.71D-06 Max=1.60D-04 NDo=     1
 LinEq1:  Iter= 16 NonCon=     1 RMS=3.76D-06 Max=9.32D-05 NDo=     1
 LinEq1:  Iter= 17 NonCon=     1 RMS=3.10D-06 Max=7.96D-05 NDo=     1
 LinEq1:  Iter= 18 NonCon=     1 RMS=2.26D-06 Max=8.15D-05 NDo=     1
 LinEq1:  Iter= 19 NonCon=     1 RMS=1.72D-06 Max=4.28D-05 NDo=     1
 LinEq1:  Iter= 20 NonCon=     1 RMS=1.33D-06 Max=4.34D-05 NDo=     1
 LinEq1:  Iter= 21 NonCon=     1 RMS=8.22D-07 Max=1.52D-05 NDo=     1
 LinEq1:  Iter= 22 NonCon=     1 RMS=5.37D-07 Max=1.17D-05 NDo=     1
 LinEq1:  Iter= 23 NonCon=     1 RMS=3.20D-07 Max=6.23D-06 NDo=     1
 LinEq1:  Iter= 24 NonCon=     1 RMS=1.79D-07 Max=2.96D-06 NDo=     1
 LinEq1:  Iter= 25 NonCon=     1 RMS=1.12D-07 Max=2.81D-06 NDo=     1
 LinEq1:  Iter= 26 NonCon=     1 RMS=7.91D-08 Max=1.63D-06 NDo=     1
 LinEq1:  Iter= 27 NonCon=     1 RMS=4.39D-08 Max=8.97D-07 NDo=     1
 LinEq1:  Iter= 28 NonCon=     1 RMS=2.39D-08 Max=5.04D-07 NDo=     1
 LinEq1:  Iter= 29 NonCon=     1 RMS=1.67D-08 Max=3.26D-07 NDo=     1
 LinEq1:  Iter= 30 NonCon=     0 RMS=9.59D-09 Max=2.16D-07 NDo=     1
 Linear equations converged to 2.942D-08 2.942D-07 after    30 iterations.
 Gradient too large for Newton-Raphson -- use scaled steepest descent instead.
 LinEq1:  Iter=  0 NonCon=     1 RMS=9.18D-05 Max=5.25D-03 NDo=     1
 LinEq1:  Iter=  1 NonCon=     1 RMS=1.27D-04 Max=5.46D-03 NDo=     1
 LinEq1:  Iter=  2 NonCon=     1 RMS=5.79D-05 Max=3.05D-03 NDo=     1
 LinEq1:  Iter=  3 NonCon=     1 RMS=6.24D-05 Max=2.06D-03 NDo=     1
 LinEq1:  Iter=  4 NonCon=     1 RMS=3.74D-05 Max=8.65D-04 NDo=     1
 LinEq1:  Iter=  5 NonCon=     1 RMS=3.62D-05 Max=1.15D-03 NDo=     1
 LinEq1:  Iter=  6 NonCon=     1 RMS=2.90D-05 Max=5.53D-04 NDo=     1
 LinEq1:  Iter=  7 NonCon=     1 RMS=2.15D-05 Max=4.05D-04 NDo=     1
 LinEq1:  Iter=  8 NonCon=     1 RMS=2.12D-05 Max=7.16D-04 NDo=     1
 LinEq1:  Iter=  9 NonCon=     1 RMS=1.48D-05 Max=3.52D-04 NDo=     1
 LinEq1:  Iter= 10 NonCon=     1 RMS=1.20D-05 Max=5.49D-04 NDo=     1
 LinEq1:  Iter= 11 NonCon=     1 RMS=1.06D-05 Max=3.62D-04 NDo=     1
 LinEq1:  Iter= 12 NonCon=     1 RMS=1.01D-05 Max=6.30D-04 NDo=     1
 LinEq1:  Iter= 13 NonCon=     1 RMS=7.07D-06 Max=2.90D-04 NDo=     1
 LinEq1:  Iter= 14 NonCon=     1 RMS=5.93D-06 Max=2.74D-04 NDo=     1
 LinEq1:  Iter= 15 NonCon=     1 RMS=4.20D-06 Max=2.24D-04 NDo=     1
 LinEq1:  Iter= 16 NonCon=     1 RMS=3.52D-06 Max=1.27D-04 NDo=     1
 LinEq1:  Iter= 17 NonCon=     1 RMS=2.45D-06 Max=9.12D-05 NDo=     1
 LinEq1:  Iter= 18 NonCon=     1 RMS=1.41D-06 Max=3.27D-05 NDo=     1
 LinEq1:  Iter= 19 NonCon=     1 RMS=9.81D-07 Max=2.62D-05 NDo=     1
 LinEq1:  Iter= 20 NonCon=     1 RMS=6.22D-07 Max=1.38D-05 NDo=     1
 LinEq1:  Iter= 21 NonCon=     1 RMS=4.12D-07 Max=9.09D-06 NDo=     1
 LinEq1:  Iter= 22 NonCon=     1 RMS=3.14D-07 Max=6.08D-06 NDo=     1
 LinEq1:  Iter= 23 NonCon=     1 RMS=2.33D-07 Max=6.49D-06 NDo=     1
 LinEq1:  Iter= 24 NonCon=     1 RMS=1.44D-07 Max=2.75D-06 NDo=     1
 LinEq1:  Iter= 25 NonCon=     1 RMS=9.85D-08 Max=2.53D-06 NDo=     1
 LinEq1:  Iter= 26 NonCon=     1 RMS=5.17D-08 Max=1.19D-06 NDo=     1
 LinEq1:  Iter= 27 NonCon=     1 RMS=3.23D-08 Max=5.76D-07 NDo=     1
 LinEq1:  Iter= 28 NonCon=     1 RMS=1.95D-08 Max=5.37D-07 NDo=     1
 LinEq1:  Iter= 29 NonCon=     0 RMS=1.20D-08 Max=2.55D-07 NDo=     1
 Linear equations converged to 2.942D-08 2.942D-07 after    29 iterations.
 Gradient too large for Newton-Raphson -- use scaled steepest descent instead.
 Gradient too large for Newton-Raphson -- use scaled steepest descent instead.
     Accept linear search using points  1 and  2.
 LinEq1:  Iter=  0 NonCon=     1 RMS=7.42D-05 Max=2.40D-03 NDo=     1
 LinEq1:  Iter=  1 NonCon=     1 RMS=9.34D-05 Max=2.98D-03 NDo=     1
 LinEq1:  Iter=  2 NonCon=     1 RMS=3.99D-05 Max=1.50D-03 NDo=     1
 LinEq1:  Iter=  3 NonCon=     1 RMS=2.74D-05 Max=7.46D-04 NDo=     1
 LinEq1:  Iter=  4 NonCon=     1 RMS=2.16D-05 Max=8.75D-04 NDo=     1
 LinEq1:  Iter=  5 NonCon=     1 RMS=1.42D-05 Max=2.94D-04 NDo=     1
 LinEq1:  Iter=  6 NonCon=     1 RMS=9.87D-06 Max=2.64D-04 NDo=     1
 LinEq1:  Iter=  7 NonCon=     1 RMS=6.68D-06 Max=2.05D-04 NDo=     1
 LinEq1:  Iter=  8 NonCon=     1 RMS=5.10D-06 Max=2.09D-04 NDo=     1
 LinEq1:  Iter=  9 NonCon=     1 RMS=5.66D-06 Max=2.40D-04 NDo=     1
 LinEq1:  Iter= 10 NonCon=     1 RMS=4.26D-06 Max=1.51D-04 NDo=     1
 LinEq1:  Iter= 11 NonCon=     1 RMS=3.78D-06 Max=1.46D-04 NDo=     1
 LinEq1:  Iter= 12 NonCon=     1 RMS=2.02D-06 Max=4.37D-05 NDo=     1
 LinEq1:  Iter= 13 NonCon=     1 RMS=1.53D-06 Max=4.25D-05 NDo=     1
 LinEq1:  Iter= 14 NonCon=     1 RMS=1.15D-06 Max=3.74D-05 NDo=     1
 LinEq1:  Iter= 15 NonCon=     1 RMS=9.40D-07 Max=3.58D-05 NDo=     1
 LinEq1:  Iter= 16 NonCon=     1 RMS=7.07D-07 Max=1.87D-05 NDo=     1
 LinEq1:  Iter= 17 NonCon=     1 RMS=4.38D-07 Max=1.06D-05 NDo=     1
 LinEq1:  Iter= 18 NonCon=     1 RMS=3.00D-07 Max=7.69D-06 NDo=     1
 LinEq1:  Iter= 19 NonCon=     1 RMS=1.91D-07 Max=6.75D-06 NDo=     1
 LinEq1:  Iter= 20 NonCon=     1 RMS=1.35D-07 Max=3.28D-06 NDo=     1
 LinEq1:  Iter= 21 NonCon=     1 RMS=1.19D-07 Max=3.84D-06 NDo=     1
 LinEq1:  Iter= 22 NonCon=     1 RMS=8.35D-08 Max=2.79D-06 NDo=     1
 LinEq1:  Iter= 23 NonCon=     1 RMS=5.47D-08 Max=1.82D-06 NDo=     1
 LinEq1:  Iter= 24 NonCon=     1 RMS=3.64D-08 Max=1.07D-06 NDo=     1
 LinEq1:  Iter= 25 NonCon=     1 RMS=2.16D-08 Max=6.38D-07 NDo=     1
 LinEq1:  Iter= 26 NonCon=     1 RMS=1.27D-08 Max=5.28D-07 NDo=     1
 LinEq1:  Iter= 27 NonCon=     1 RMS=8.09D-09 Max=3.24D-07 NDo=     1
 LinEq1:  Iter= 28 NonCon=     1 RMS=4.76D-09 Max=2.96D-07 NDo=     1
 LinEq1:  Iter= 29 NonCon=     0 RMS=2.70D-09 Max=1.43D-07 NDo=     1
 Linear equations converged to 2.942D-08 2.942D-07 after    29 iterations.
 LinEq1:  Iter=  0 NonCon=     1 RMS=6.76D-05 Max=2.28D-03 NDo=     1
 LinEq1:  Iter=  1 NonCon=     1 RMS=7.61D-05 Max=2.41D-03 NDo=     1
 LinEq1:  Iter=  2 NonCon=     1 RMS=4.59D-05 Max=1.50D-03 NDo=     1
 LinEq1:  Iter=  3 NonCon=     1 RMS=4.13D-05 Max=1.07D-03 NDo=     1
 LinEq1:  Iter=  4 NonCon=     1 RMS=2.95D-05 Max=9.25D-04 NDo=     1
 LinEq1:  Iter=  5 NonCon=     1 RMS=3.07D-05 Max=1.08D-03 NDo=     1
 LinEq1:  Iter=  6 NonCon=     1 RMS=2.61D-05 Max=5.70D-04 NDo=     1
 LinEq1:  Iter=  7 NonCon=     1 RMS=1.57D-05 Max=4.33D-04 NDo=     1
 LinEq1:  Iter=  8 NonCon=     1 RMS=1.27D-05 Max=4.63D-04 NDo=     1
 LinEq1:  Iter=  9 NonCon=     1 RMS=1.06D-05 Max=4.19D-04 NDo=     1
 LinEq1:  Iter= 10 NonCon=     1 RMS=8.80D-06 Max=2.83D-04 NDo=     1
 LinEq1:  Iter= 11 NonCon=     1 RMS=7.81D-06 Max=2.03D-04 NDo=     1
 LinEq1:  Iter= 12 NonCon=     1 RMS=7.70D-06 Max=1.68D-04 NDo=     1
 LinEq1:  Iter= 13 NonCon=     1 RMS=5.84D-06 Max=1.44D-04 NDo=     1
 LinEq1:  Iter= 14 NonCon=     1 RMS=4.03D-06 Max=8.52D-05 NDo=     1
 LinEq1:  Iter= 15 NonCon=     1 RMS=2.86D-06 Max=9.69D-05 NDo=     1
 LinEq1:  Iter= 16 NonCon=     1 RMS=1.92D-06 Max=5.86D-05 NDo=     1
 LinEq1:  Iter= 17 NonCon=     1 RMS=1.66D-06 Max=4.70D-05 NDo=     1
 LinEq1:  Iter= 18 NonCon=     1 RMS=1.14D-06 Max=3.05D-05 NDo=     1
 LinEq1:  Iter= 19 NonCon=     1 RMS=8.49D-07 Max=2.08D-05 NDo=     1
 LinEq1:  Iter= 20 NonCon=     1 RMS=6.75D-07 Max=2.14D-05 NDo=     1
 LinEq1:  Iter= 21 NonCon=     1 RMS=4.73D-07 Max=1.78D-05 NDo=     1
 LinEq1:  Iter= 22 NonCon=     1 RMS=3.63D-07 Max=1.33D-05 NDo=     1
 LinEq1:  Iter= 23 NonCon=     1 RMS=2.81D-07 Max=1.04D-05 NDo=     1
 LinEq1:  Iter= 24 NonCon=     1 RMS=1.71D-07 Max=6.91D-06 NDo=     1
 LinEq1:  Iter= 25 NonCon=     1 RMS=1.25D-07 Max=5.41D-06 NDo=     1
 LinEq1:  Iter= 26 NonCon=     1 RMS=7.24D-08 Max=2.82D-06 NDo=     1
 LinEq1:  Iter= 27 NonCon=     1 RMS=4.18D-08 Max=1.75D-06 NDo=     1
 LinEq1:  Iter= 28 NonCon=     1 RMS=3.16D-08 Max=1.36D-06 NDo=     1
 LinEq1:  Iter= 29 NonCon=     1 RMS=1.77D-08 Max=7.38D-07 NDo=     1
 LinEq1:  Iter= 30 NonCon=     1 RMS=9.60D-09 Max=3.48D-07 NDo=     1
 LinEq1:  Iter= 31 NonCon=     0 RMS=7.06D-09 Max=2.77D-07 NDo=     1
 Linear equations converged to 2.942D-08 2.942D-07 after    31 iterations.
 LinEq1:  Iter=  0 NonCon=     1 RMS=5.43D-05 Max=1.97D-03 NDo=     1
 LinEq1:  Iter=  1 NonCon=     1 RMS=5.49D-05 Max=2.76D-03 NDo=     1
 LinEq1:  Iter=  2 NonCon=     1 RMS=4.30D-05 Max=1.09D-03 NDo=     1
 LinEq1:  Iter=  3 NonCon=     1 RMS=4.27D-05 Max=1.61D-03 NDo=     1
 LinEq1:  Iter=  4 NonCon=     1 RMS=2.75D-05 Max=6.77D-04 NDo=     1
 LinEq1:  Iter=  5 NonCon=     1 RMS=2.47D-05 Max=6.40D-04 NDo=     1
 LinEq1:  Iter=  6 NonCon=     1 RMS=2.34D-05 Max=7.32D-04 NDo=     1
 LinEq1:  Iter=  7 NonCon=     1 RMS=1.76D-05 Max=4.06D-04 NDo=     1
 LinEq1:  Iter=  8 NonCon=     1 RMS=1.33D-05 Max=5.45D-04 NDo=     1
 LinEq1:  Iter=  9 NonCon=     1 RMS=1.05D-05 Max=2.83D-04 NDo=     1
 LinEq1:  Iter= 10 NonCon=     1 RMS=9.23D-06 Max=4.04D-04 NDo=     1
 LinEq1:  Iter= 11 NonCon=     1 RMS=6.29D-06 Max=1.66D-04 NDo=     1
 LinEq1:  Iter= 12 NonCon=     1 RMS=4.84D-06 Max=1.67D-04 NDo=     1
 LinEq1:  Iter= 13 NonCon=     1 RMS=4.32D-06 Max=9.03D-05 NDo=     1
 LinEq1:  Iter= 14 NonCon=     1 RMS=4.18D-06 Max=8.84D-05 NDo=     1
 LinEq1:  Iter= 15 NonCon=     1 RMS=3.52D-06 Max=1.42D-04 NDo=     1
 LinEq1:  Iter= 16 NonCon=     1 RMS=2.90D-06 Max=9.18D-05 NDo=     1
 LinEq1:  Iter= 17 NonCon=     1 RMS=2.34D-06 Max=4.43D-05 NDo=     1
 LinEq1:  Iter= 18 NonCon=     1 RMS=1.46D-06 Max=4.12D-05 NDo=     1
 LinEq1:  Iter= 19 NonCon=     1 RMS=9.82D-07 Max=1.91D-05 NDo=     1
 LinEq1:  Iter= 20 NonCon=     1 RMS=7.65D-07 Max=2.03D-05 NDo=     1
 LinEq1:  Iter= 21 NonCon=     1 RMS=5.34D-07 Max=1.21D-05 NDo=     1
 LinEq1:  Iter= 22 NonCon=     1 RMS=4.21D-07 Max=1.05D-05 NDo=     1
 LinEq1:  Iter= 23 NonCon=     1 RMS=2.78D-07 Max=5.47D-06 NDo=     1
 LinEq1:  Iter= 24 NonCon=     1 RMS=1.70D-07 Max=4.15D-06 NDo=     1
 LinEq1:  Iter= 25 NonCon=     1 RMS=1.21D-07 Max=2.83D-06 NDo=     1
 LinEq1:  Iter= 26 NonCon=     1 RMS=7.59D-08 Max=3.38D-06 NDo=     1
 LinEq1:  Iter= 27 NonCon=     1 RMS=4.57D-08 Max=2.35D-06 NDo=     1
 LinEq1:  Iter= 28 NonCon=     1 RMS=3.21D-08 Max=1.59D-06 NDo=     1
 LinEq1:  Iter= 29 NonCon=     1 RMS=2.09D-08 Max=1.18D-06 NDo=     1
 LinEq1:  Iter= 30 NonCon=     1 RMS=1.37D-08 Max=7.24D-07 NDo=     1
 LinEq1:  Iter= 31 NonCon=     1 RMS=8.58D-09 Max=2.98D-07 NDo=     1
 LinEq1:  Iter= 32 NonCon=     0 RMS=4.92D-09 Max=1.62D-07 NDo=     1
 Linear equations converged to 2.942D-08 2.942D-07 after    32 iterations.
 Incorrect curvature in search direction -- initial direction reversed.
 Gradient too large for Newton-Raphson -- use scaled steepest descent instead.
     Accept linear search using points  2 and  3.
     Minimum is close to point  3 DX= -8.23D-02 DF= -4.45D-07 DXR=  7.36D-02 DFR=  1.53D-03 which will be used.
 LinEq1:  Iter=  0 NonCon=     1 RMS=8.38D-05 Max=3.52D-03 NDo=     1
 LinEq1:  Iter=  1 NonCon=     1 RMS=1.01D-04 Max=4.46D-03 NDo=     1
 LinEq1:  Iter=  2 NonCon=     1 RMS=7.58D-05 Max=3.88D-03 NDo=     1
 LinEq1:  Iter=  3 NonCon=     1 RMS=5.52D-05 Max=2.74D-03 NDo=     1
 LinEq1:  Iter=  4 NonCon=     1 RMS=4.85D-05 Max=1.52D-03 NDo=     1
 LinEq1:  Iter=  5 NonCon=     1 RMS=4.02D-05 Max=1.04D-03 NDo=     1
 LinEq1:  Iter=  6 NonCon=     1 RMS=3.39D-05 Max=1.03D-03 NDo=     1
 LinEq1:  Iter=  7 NonCon=     1 RMS=3.13D-05 Max=1.04D-03 NDo=     1
 LinEq1:  Iter=  8 NonCon=     1 RMS=2.43D-05 Max=5.19D-04 NDo=     1
 LinEq1:  Iter=  9 NonCon=     1 RMS=2.13D-05 Max=1.06D-03 NDo=     1
 LinEq1:  Iter= 10 NonCon=     1 RMS=1.81D-05 Max=5.90D-04 NDo=     1
 LinEq1:  Iter= 11 NonCon=     1 RMS=1.34D-05 Max=2.94D-04 NDo=     1
 LinEq1:  Iter= 12 NonCon=     1 RMS=1.46D-05 Max=4.33D-04 NDo=     1
 LinEq1:  Iter= 13 NonCon=     1 RMS=1.13D-05 Max=2.07D-04 NDo=     1
 LinEq1:  Iter= 14 NonCon=     1 RMS=7.07D-06 Max=1.79D-04 NDo=     1
 LinEq1:  Iter= 15 NonCon=     1 RMS=5.84D-06 Max=1.30D-04 NDo=     1
 LinEq1:  Iter= 16 NonCon=     1 RMS=3.77D-06 Max=1.02D-04 NDo=     1
 LinEq1:  Iter= 17 NonCon=     1 RMS=3.23D-06 Max=7.07D-05 NDo=     1
 LinEq1:  Iter= 18 NonCon=     1 RMS=1.93D-06 Max=5.01D-05 NDo=     1
 LinEq1:  Iter= 19 NonCon=     1 RMS=9.38D-07 Max=2.02D-05 NDo=     1
 LinEq1:  Iter= 20 NonCon=     1 RMS=7.28D-07 Max=2.78D-05 NDo=     1
 LinEq1:  Iter= 21 NonCon=     1 RMS=4.17D-07 Max=1.07D-05 NDo=     1
 LinEq1:  Iter= 22 NonCon=     1 RMS=2.81D-07 Max=9.88D-06 NDo=     1
 LinEq1:  Iter= 23 NonCon=     1 RMS=2.24D-07 Max=6.50D-06 NDo=     1
 LinEq1:  Iter= 24 NonCon=     1 RMS=1.55D-07 Max=5.12D-06 NDo=     1
 LinEq1:  Iter= 25 NonCon=     1 RMS=1.20D-07 Max=4.72D-06 NDo=     1
 LinEq1:  Iter= 26 NonCon=     1 RMS=8.71D-08 Max=3.50D-06 NDo=     1
 LinEq1:  Iter= 27 NonCon=     1 RMS=5.56D-08 Max=2.53D-06 NDo=     1
 LinEq1:  Iter= 28 NonCon=     1 RMS=4.17D-08 Max=1.74D-06 NDo=     1
 LinEq1:  Iter= 29 NonCon=     1 RMS=2.50D-08 Max=1.07D-06 NDo=     1
 LinEq1:  Iter= 30 NonCon=     1 RMS=1.37D-08 Max=4.06D-07 NDo=     1
 LinEq1:  Iter= 31 NonCon=     0 RMS=8.20D-09 Max=2.65D-07 NDo=     1
 Linear equations converged to 2.942D-08 2.942D-07 after    31 iterations.
 Incorrect curvature in search direction -- initial direction reversed.
 Gradient too large for Newton-Raphson -- use scaled steepest descent instead.
     Accept linear search using points  1 and  2.
 LinEq1:  Iter=  0 NonCon=     1 RMS=7.86D-05 Max=4.12D-03 NDo=     1
 LinEq1:  Iter=  1 NonCon=     1 RMS=9.00D-05 Max=4.36D-03 NDo=     1
 LinEq1:  Iter=  2 NonCon=     1 RMS=4.57D-05 Max=2.49D-03 NDo=     1
 LinEq1:  Iter=  3 NonCon=     1 RMS=4.41D-05 Max=1.83D-03 NDo=     1
 LinEq1:  Iter=  4 NonCon=     1 RMS=2.95D-05 Max=9.13D-04 NDo=     1
 LinEq1:  Iter=  5 NonCon=     1 RMS=3.00D-05 Max=1.58D-03 NDo=     1
 LinEq1:  Iter=  6 NonCon=     1 RMS=2.39D-05 Max=1.18D-03 NDo=     1
 LinEq1:  Iter=  7 NonCon=     1 RMS=2.03D-05 Max=9.18D-04 NDo=     1
 LinEq1:  Iter=  8 NonCon=     1 RMS=1.85D-05 Max=8.13D-04 NDo=     1
 LinEq1:  Iter=  9 NonCon=     1 RMS=1.36D-05 Max=4.88D-04 NDo=     1
 LinEq1:  Iter= 10 NonCon=     1 RMS=1.17D-05 Max=5.66D-04 NDo=     1
 LinEq1:  Iter= 11 NonCon=     1 RMS=1.08D-05 Max=5.26D-04 NDo=     1
 LinEq1:  Iter= 12 NonCon=     1 RMS=1.01D-05 Max=3.34D-04 NDo=     1
 LinEq1:  Iter= 13 NonCon=     1 RMS=6.34D-06 Max=2.33D-04 NDo=     1
 LinEq1:  Iter= 14 NonCon=     1 RMS=4.94D-06 Max=1.23D-04 NDo=     1
 LinEq1:  Iter= 15 NonCon=     1 RMS=3.56D-06 Max=7.39D-05 NDo=     1
 LinEq1:  Iter= 16 NonCon=     1 RMS=2.50D-06 Max=6.11D-05 NDo=     1
 LinEq1:  Iter= 17 NonCon=     1 RMS=1.85D-06 Max=3.38D-05 NDo=     1
 LinEq1:  Iter= 18 NonCon=     1 RMS=1.12D-06 Max=2.90D-05 NDo=     1
 LinEq1:  Iter= 19 NonCon=     1 RMS=7.73D-07 Max=2.48D-05 NDo=     1
 LinEq1:  Iter= 20 NonCon=     1 RMS=5.77D-07 Max=1.53D-05 NDo=     1
 LinEq1:  Iter= 21 NonCon=     1 RMS=4.27D-07 Max=8.74D-06 NDo=     1
 LinEq1:  Iter= 22 NonCon=     1 RMS=3.28D-07 Max=1.01D-05 NDo=     1
 LinEq1:  Iter= 23 NonCon=     1 RMS=2.34D-07 Max=6.20D-06 NDo=     1
 LinEq1:  Iter= 24 NonCon=     1 RMS=1.25D-07 Max=3.29D-06 NDo=     1
 LinEq1:  Iter= 25 NonCon=     1 RMS=8.52D-08 Max=2.46D-06 NDo=     1
 LinEq1:  Iter= 26 NonCon=     1 RMS=5.67D-08 Max=1.92D-06 NDo=     1
 LinEq1:  Iter= 27 NonCon=     1 RMS=3.49D-08 Max=1.36D-06 NDo=     1
 LinEq1:  Iter= 28 NonCon=     1 RMS=2.51D-08 Max=9.96D-07 NDo=     1
 LinEq1:  Iter= 29 NonCon=     1 RMS=1.60D-08 Max=5.10D-07 NDo=     1
 LinEq1:  Iter= 30 NonCon=     1 RMS=1.04D-08 Max=4.74D-07 NDo=     1
 LinEq1:  Iter= 31 NonCon=     0 RMS=6.71D-09 Max=2.47D-07 NDo=     1
 Linear equations converged to 2.942D-08 2.942D-07 after    31 iterations.
 LinEq1:  Iter=  0 NonCon=     1 RMS=6.88D-05 Max=2.52D-03 NDo=     1
 LinEq1:  Iter=  1 NonCon=     1 RMS=7.07D-05 Max=3.84D-03 NDo=     1
 LinEq1:  Iter=  2 NonCon=     1 RMS=5.52D-05 Max=1.70D-03 NDo=     1
 LinEq1:  Iter=  3 NonCon=     1 RMS=5.08D-05 Max=2.11D-03 NDo=     1
 LinEq1:  Iter=  4 NonCon=     1 RMS=4.10D-05 Max=1.68D-03 NDo=     1
 LinEq1:  Iter=  5 NonCon=     1 RMS=3.20D-05 Max=5.41D-04 NDo=     1
 LinEq1:  Iter=  6 NonCon=     1 RMS=2.95D-05 Max=7.29D-04 NDo=     1
 LinEq1:  Iter=  7 NonCon=     1 RMS=2.41D-05 Max=5.76D-04 NDo=     1
 LinEq1:  Iter=  8 NonCon=     1 RMS=1.92D-05 Max=6.50D-04 NDo=     1
 LinEq1:  Iter=  9 NonCon=     1 RMS=1.71D-05 Max=3.77D-04 NDo=     1
 LinEq1:  Iter= 10 NonCon=     1 RMS=1.53D-05 Max=2.80D-04 NDo=     1
 LinEq1:  Iter= 11 NonCon=     1 RMS=1.23D-05 Max=3.24D-04 NDo=     1
 LinEq1:  Iter= 12 NonCon=     1 RMS=1.24D-05 Max=2.43D-04 NDo=     1
 LinEq1:  Iter= 13 NonCon=     1 RMS=9.49D-06 Max=2.29D-04 NDo=     1
 LinEq1:  Iter= 14 NonCon=     1 RMS=7.76D-06 Max=1.48D-04 NDo=     1
 LinEq1:  Iter= 15 NonCon=     1 RMS=4.27D-06 Max=1.12D-04 NDo=     1
 LinEq1:  Iter= 16 NonCon=     1 RMS=3.78D-06 Max=9.44D-05 NDo=     1
 LinEq1:  Iter= 17 NonCon=     1 RMS=2.66D-06 Max=6.17D-05 NDo=     1
 LinEq1:  Iter= 18 NonCon=     1 RMS=1.85D-06 Max=7.12D-05 NDo=     1
 LinEq1:  Iter= 19 NonCon=     1 RMS=1.32D-06 Max=2.99D-05 NDo=     1
 LinEq1:  Iter= 20 NonCon=     1 RMS=9.16D-07 Max=2.43D-05 NDo=     1
 LinEq1:  Iter= 21 NonCon=     1 RMS=6.70D-07 Max=1.95D-05 NDo=     1
 LinEq1:  Iter= 22 NonCon=     1 RMS=5.26D-07 Max=1.88D-05 NDo=     1
 LinEq1:  Iter= 23 NonCon=     1 RMS=3.50D-07 Max=9.28D-06 NDo=     1
 LinEq1:  Iter= 24 NonCon=     1 RMS=2.67D-07 Max=9.43D-06 NDo=     1
 LinEq1:  Iter= 25 NonCon=     1 RMS=1.76D-07 Max=5.55D-06 NDo=     1
 LinEq1:  Iter= 26 NonCon=     1 RMS=1.06D-07 Max=3.54D-06 NDo=     1
 LinEq1:  Iter= 27 NonCon=     1 RMS=6.22D-08 Max=1.53D-06 NDo=     1
 LinEq1:  Iter= 28 NonCon=     1 RMS=4.50D-08 Max=1.02D-06 NDo=     1
 LinEq1:  Iter= 29 NonCon=     1 RMS=2.40D-08 Max=6.05D-07 NDo=     1
 LinEq1:  Iter= 30 NonCon=     0 RMS=1.35D-08 Max=2.69D-07 NDo=     1
 Linear equations converged to 2.942D-08 2.942D-07 after    30 iterations.
 Incorrect curvature in search direction -- initial direction reversed.
 LinEq1:  Iter=  0 NonCon=     1 RMS=8.41D-05 Max=3.46D-03 NDo=     1
 LinEq1:  Iter=  1 NonCon=     1 RMS=8.46D-05 Max=4.29D-03 NDo=     1
 LinEq1:  Iter=  2 NonCon=     1 RMS=6.81D-05 Max=2.78D-03 NDo=     1
 LinEq1:  Iter=  3 NonCon=     1 RMS=6.32D-05 Max=3.35D-03 NDo=     1
 LinEq1:  Iter=  4 NonCon=     1 RMS=5.06D-05 Max=2.37D-03 NDo=     1
 LinEq1:  Iter=  5 NonCon=     1 RMS=3.75D-05 Max=8.16D-04 NDo=     1
 LinEq1:  Iter=  6 NonCon=     1 RMS=3.50D-05 Max=1.02D-03 NDo=     1
 LinEq1:  Iter=  7 NonCon=     1 RMS=2.88D-05 Max=1.03D-03 NDo=     1
 LinEq1:  Iter=  8 NonCon=     1 RMS=2.20D-05 Max=6.65D-04 NDo=     1
 LinEq1:  Iter=  9 NonCon=     1 RMS=1.84D-05 Max=3.97D-04 NDo=     1
 LinEq1:  Iter= 10 NonCon=     1 RMS=1.71D-05 Max=3.36D-04 NDo=     1
 LinEq1:  Iter= 11 NonCon=     1 RMS=1.32D-05 Max=2.36D-04 NDo=     1
 LinEq1:  Iter= 12 NonCon=     1 RMS=1.33D-05 Max=2.34D-04 NDo=     1
 LinEq1:  Iter= 13 NonCon=     1 RMS=1.12D-05 Max=3.05D-04 NDo=     1
 LinEq1:  Iter= 14 NonCon=     1 RMS=9.29D-06 Max=2.22D-04 NDo=     1
 LinEq1:  Iter= 15 NonCon=     1 RMS=5.62D-06 Max=1.31D-04 NDo=     1
 LinEq1:  Iter= 16 NonCon=     1 RMS=4.35D-06 Max=1.12D-04 NDo=     1
 LinEq1:  Iter= 17 NonCon=     1 RMS=3.71D-06 Max=9.16D-05 NDo=     1
 LinEq1:  Iter= 18 NonCon=     1 RMS=2.06D-06 Max=9.23D-05 NDo=     1
 LinEq1:  Iter= 19 NonCon=     1 RMS=1.49D-06 Max=4.41D-05 NDo=     1
 LinEq1:  Iter= 20 NonCon=     1 RMS=1.02D-06 Max=4.54D-05 NDo=     1
 LinEq1:  Iter= 21 NonCon=     1 RMS=7.08D-07 Max=2.80D-05 NDo=     1
 LinEq1:  Iter= 22 NonCon=     1 RMS=5.79D-07 Max=2.56D-05 NDo=     1
 LinEq1:  Iter= 23 NonCon=     1 RMS=4.05D-07 Max=1.93D-05 NDo=     1
 LinEq1:  Iter= 24 NonCon=     1 RMS=3.16D-07 Max=1.35D-05 NDo=     1
 LinEq1:  Iter= 25 NonCon=     1 RMS=2.14D-07 Max=1.09D-05 NDo=     1
 LinEq1:  Iter= 26 NonCon=     1 RMS=1.29D-07 Max=6.92D-06 NDo=     1
 LinEq1:  Iter= 27 NonCon=     1 RMS=7.45D-08 Max=3.50D-06 NDo=     1
 LinEq1:  Iter= 28 NonCon=     1 RMS=5.40D-08 Max=2.02D-06 NDo=     1
 LinEq1:  Iter= 29 NonCon=     1 RMS=2.76D-08 Max=1.12D-06 NDo=     1
 LinEq1:  Iter= 30 NonCon=     1 RMS=1.61D-08 Max=6.28D-07 NDo=     1
 LinEq1:  Iter= 31 NonCon=     1 RMS=1.10D-08 Max=4.06D-07 NDo=     1
 LinEq1:  Iter= 32 NonCon=     0 RMS=5.37D-09 Max=2.35D-07 NDo=     1
 Linear equations converged to 2.942D-08 2.942D-07 after    32 iterations.
 LinEq1:  Iter=  0 NonCon=     1 RMS=7.68D-05 Max=2.68D-03 NDo=     1
 LinEq1:  Iter=  1 NonCon=     1 RMS=7.64D-05 Max=3.74D-03 NDo=     1
 LinEq1:  Iter=  2 NonCon=     1 RMS=6.24D-05 Max=2.63D-03 NDo=     1
 LinEq1:  Iter=  3 NonCon=     1 RMS=5.77D-05 Max=3.01D-03 NDo=     1
 LinEq1:  Iter=  4 NonCon=     1 RMS=4.66D-05 Max=2.16D-03 NDo=     1
 LinEq1:  Iter=  5 NonCon=     1 RMS=3.37D-05 Max=5.49D-04 NDo=     1
 LinEq1:  Iter=  6 NonCon=     1 RMS=3.16D-05 Max=8.78D-04 NDo=     1
 LinEq1:  Iter=  7 NonCon=     1 RMS=2.61D-05 Max=6.03D-04 NDo=     1
 LinEq1:  Iter=  8 NonCon=     1 RMS=1.99D-05 Max=5.71D-04 NDo=     1
 LinEq1:  Iter=  9 NonCon=     1 RMS=1.60D-05 Max=3.21D-04 NDo=     1
 LinEq1:  Iter= 10 NonCon=     1 RMS=1.51D-05 Max=3.08D-04 NDo=     1
 LinEq1:  Iter= 11 NonCon=     1 RMS=1.16D-05 Max=2.07D-04 NDo=     1
 LinEq1:  Iter= 12 NonCon=     1 RMS=1.17D-05 Max=2.13D-04 NDo=     1
 LinEq1:  Iter= 13 NonCon=     1 RMS=9.92D-06 Max=2.68D-04 NDo=     1
 LinEq1:  Iter= 14 NonCon=     1 RMS=8.50D-06 Max=2.07D-04 NDo=     1
 LinEq1:  Iter= 15 NonCon=     1 RMS=5.29D-06 Max=1.28D-04 NDo=     1
 LinEq1:  Iter= 16 NonCon=     1 RMS=4.09D-06 Max=1.12D-04 NDo=     1
 LinEq1:  Iter= 17 NonCon=     1 RMS=3.58D-06 Max=7.97D-05 NDo=     1
 LinEq1:  Iter= 18 NonCon=     1 RMS=1.76D-06 Max=6.27D-05 NDo=     1
 LinEq1:  Iter= 19 NonCon=     1 RMS=1.37D-06 Max=4.67D-05 NDo=     1
 LinEq1:  Iter= 20 NonCon=     1 RMS=8.75D-07 Max=2.75D-05 NDo=     1
 LinEq1:  Iter= 21 NonCon=     1 RMS=6.22D-07 Max=2.08D-05 NDo=     1
 LinEq1:  Iter= 22 NonCon=     1 RMS=5.11D-07 Max=1.73D-05 NDo=     1
 LinEq1:  Iter= 23 NonCon=     1 RMS=3.56D-07 Max=9.24D-06 NDo=     1
 LinEq1:  Iter= 24 NonCon=     1 RMS=2.77D-07 Max=1.00D-05 NDo=     1
 LinEq1:  Iter= 25 NonCon=     1 RMS=1.92D-07 Max=4.61D-06 NDo=     1
 LinEq1:  Iter= 26 NonCon=     1 RMS=1.14D-07 Max=2.65D-06 NDo=     1
 LinEq1:  Iter= 27 NonCon=     1 RMS=6.51D-08 Max=1.34D-06 NDo=     1
 LinEq1:  Iter= 28 NonCon=     1 RMS=4.71D-08 Max=8.81D-07 NDo=     1
 LinEq1:  Iter= 29 NonCon=     1 RMS=2.44D-08 Max=5.01D-07 NDo=     1
 LinEq1:  Iter= 30 NonCon=     1 RMS=1.39D-08 Max=4.98D-07 NDo=     1
 LinEq1:  Iter= 31 NonCon=     1 RMS=1.02D-08 Max=3.29D-07 NDo=     1
 LinEq1:  Iter= 32 NonCon=     0 RMS=4.49D-09 Max=1.35D-07 NDo=     1
 Linear equations converged to 2.942D-08 2.942D-07 after    32 iterations.
 Incorrect curvature in search direction -- initial direction reversed.
 LinEq1:  Iter=  0 NonCon=     1 RMS=8.83D-05 Max=3.15D-03 NDo=     1
 LinEq1:  Iter=  1 NonCon=     1 RMS=8.75D-05 Max=4.28D-03 NDo=     1
 LinEq1:  Iter=  2 NonCon=     1 RMS=7.24D-05 Max=3.21D-03 NDo=     1
 LinEq1:  Iter=  3 NonCon=     1 RMS=6.70D-05 Max=3.61D-03 NDo=     1
 LinEq1:  Iter=  4 NonCon=     1 RMS=5.45D-05 Max=2.63D-03 NDo=     1
 LinEq1:  Iter=  5 NonCon=     1 RMS=3.84D-05 Max=6.32D-04 NDo=     1
 LinEq1:  Iter=  6 NonCon=     1 RMS=3.59D-05 Max=1.07D-03 NDo=     1
 LinEq1:  Iter=  7 NonCon=     1 RMS=2.97D-05 Max=9.01D-04 NDo=     1
 LinEq1:  Iter=  8 NonCon=     1 RMS=2.24D-05 Max=6.75D-04 NDo=     1
 LinEq1:  Iter=  9 NonCon=     1 RMS=1.74D-05 Max=3.61D-04 NDo=     1
 LinEq1:  Iter= 10 NonCon=     1 RMS=1.62D-05 Max=3.20D-04 NDo=     1
 LinEq1:  Iter= 11 NonCon=     1 RMS=1.19D-05 Max=2.18D-04 NDo=     1
 LinEq1:  Iter= 12 NonCon=     1 RMS=1.13D-05 Max=2.30D-04 NDo=     1
 LinEq1:  Iter= 13 NonCon=     1 RMS=1.03D-05 Max=2.69D-04 NDo=     1
 LinEq1:  Iter= 14 NonCon=     1 RMS=9.43D-06 Max=2.35D-04 NDo=     1
 LinEq1:  Iter= 15 NonCon=     1 RMS=6.13D-06 Max=1.49D-04 NDo=     1
 LinEq1:  Iter= 16 NonCon=     1 RMS=4.75D-06 Max=1.23D-04 NDo=     1
 LinEq1:  Iter= 17 NonCon=     1 RMS=4.12D-06 Max=9.93D-05 NDo=     1
 LinEq1:  Iter= 18 NonCon=     1 RMS=2.21D-06 Max=9.50D-05 NDo=     1
 LinEq1:  Iter= 19 NonCon=     1 RMS=1.63D-06 Max=5.08D-05 NDo=     1
 LinEq1:  Iter= 20 NonCon=     1 RMS=1.07D-06 Max=4.10D-05 NDo=     1
 LinEq1:  Iter= 21 NonCon=     1 RMS=7.49D-07 Max=2.72D-05 NDo=     1
 LinEq1:  Iter= 22 NonCon=     1 RMS=6.17D-07 Max=2.49D-05 NDo=     1
 LinEq1:  Iter= 23 NonCon=     1 RMS=4.26D-07 Max=1.80D-05 NDo=     1
 LinEq1:  Iter= 24 NonCon=     1 RMS=3.32D-07 Max=1.36D-05 NDo=     1
 LinEq1:  Iter= 25 NonCon=     1 RMS=2.30D-07 Max=1.14D-05 NDo=     1
 LinEq1:  Iter= 26 NonCon=     1 RMS=1.40D-07 Max=7.42D-06 NDo=     1
 LinEq1:  Iter= 27 NonCon=     1 RMS=7.52D-08 Max=3.75D-06 NDo=     1
 LinEq1:  Iter= 28 NonCon=     1 RMS=5.56D-08 Max=2.12D-06 NDo=     1
 LinEq1:  Iter= 29 NonCon=     1 RMS=2.94D-08 Max=1.13D-06 NDo=     1
 LinEq1:  Iter= 30 NonCon=     1 RMS=1.65D-08 Max=6.73D-07 NDo=     1
 LinEq1:  Iter= 31 NonCon=     1 RMS=1.14D-08 Max=3.75D-07 NDo=     1
 LinEq1:  Iter= 32 NonCon=     0 RMS=5.51D-09 Max=2.14D-07 NDo=     1
 Linear equations converged to 2.942D-08 2.942D-07 after    32 iterations.
 Incorrect curvature in search direction -- initial direction reversed.
 Gradient too large for Newton-Raphson -- use scaled steepest descent instead.
 Gradient too large for Newton-Raphson -- use scaled steepest descent instead.
     Accept linear search using points  1 and  2.
 LinEq1:  Iter=  0 NonCon=     1 RMS=8.13D-05 Max=5.74D-03 NDo=     1
 LinEq1:  Iter=  1 NonCon=     1 RMS=9.75D-05 Max=4.00D-03 NDo=     1
 LinEq1:  Iter=  2 NonCon=     1 RMS=4.02D-05 Max=2.35D-03 NDo=     1
 LinEq1:  Iter=  3 NonCon=     1 RMS=3.70D-05 Max=1.62D-03 NDo=     1
 LinEq1:  Iter=  4 NonCon=     1 RMS=2.39D-05 Max=1.43D-03 NDo=     1
 LinEq1:  Iter=  5 NonCon=     1 RMS=2.16D-05 Max=1.26D-03 NDo=     1
 LinEq1:  Iter=  6 NonCon=     1 RMS=2.04D-05 Max=8.24D-04 NDo=     1
 LinEq1:  Iter=  7 NonCon=     1 RMS=1.08D-05 Max=5.46D-04 NDo=     1
 LinEq1:  Iter=  8 NonCon=     1 RMS=1.24D-05 Max=6.73D-04 NDo=     1
 LinEq1:  Iter=  9 NonCon=     1 RMS=8.82D-06 Max=3.63D-04 NDo=     1
 LinEq1:  Iter= 10 NonCon=     1 RMS=8.29D-06 Max=3.88D-04 NDo=     1
 LinEq1:  Iter= 11 NonCon=     1 RMS=7.70D-06 Max=2.52D-04 NDo=     1
 LinEq1:  Iter= 12 NonCon=     1 RMS=5.62D-06 Max=1.66D-04 NDo=     1
 LinEq1:  Iter= 13 NonCon=     1 RMS=4.32D-06 Max=1.55D-04 NDo=     1
 LinEq1:  Iter= 14 NonCon=     1 RMS=3.18D-06 Max=7.82D-05 NDo=     1
 LinEq1:  Iter= 15 NonCon=     1 RMS=2.48D-06 Max=5.76D-05 NDo=     1
 LinEq1:  Iter= 16 NonCon=     1 RMS=1.91D-06 Max=3.92D-05 NDo=     1
 LinEq1:  Iter= 17 NonCon=     1 RMS=1.10D-06 Max=2.42D-05 NDo=     1
 LinEq1:  Iter= 18 NonCon=     1 RMS=8.46D-07 Max=1.96D-05 NDo=     1
 LinEq1:  Iter= 19 NonCon=     1 RMS=5.82D-07 Max=1.51D-05 NDo=     1
 LinEq1:  Iter= 20 NonCon=     1 RMS=4.62D-07 Max=1.23D-05 NDo=     1
 LinEq1:  Iter= 21 NonCon=     1 RMS=3.33D-07 Max=6.25D-06 NDo=     1
 LinEq1:  Iter= 22 NonCon=     1 RMS=2.55D-07 Max=8.40D-06 NDo=     1
 LinEq1:  Iter= 23 NonCon=     1 RMS=1.84D-07 Max=4.96D-06 NDo=     1
 LinEq1:  Iter= 24 NonCon=     1 RMS=1.10D-07 Max=2.27D-06 NDo=     1
 LinEq1:  Iter= 25 NonCon=     1 RMS=6.54D-08 Max=1.22D-06 NDo=     1
 LinEq1:  Iter= 26 NonCon=     1 RMS=4.38D-08 Max=9.94D-07 NDo=     1
 LinEq1:  Iter= 27 NonCon=     1 RMS=2.41D-08 Max=6.57D-07 NDo=     1
 LinEq1:  Iter= 28 NonCon=     0 RMS=1.30D-08 Max=2.59D-07 NDo=     1
 Linear equations converged to 2.942D-08 2.942D-07 after    28 iterations.
 LinEq1:  Iter=  0 NonCon=     1 RMS=7.28D-05 Max=3.08D-03 NDo=     1
 LinEq1:  Iter=  1 NonCon=     1 RMS=8.60D-05 Max=2.73D-03 NDo=     1
 LinEq1:  Iter=  2 NonCon=     1 RMS=6.01D-05 Max=3.37D-03 NDo=     1
 LinEq1:  Iter=  3 NonCon=     1 RMS=5.63D-05 Max=2.80D-03 NDo=     1
 LinEq1:  Iter=  4 NonCon=     1 RMS=3.28D-05 Max=8.95D-04 NDo=     1
 LinEq1:  Iter=  5 NonCon=     1 RMS=2.74D-05 Max=6.32D-04 NDo=     1
 LinEq1:  Iter=  6 NonCon=     1 RMS=2.77D-05 Max=1.06D-03 NDo=     1
 LinEq1:  Iter=  7 NonCon=     1 RMS=2.16D-05 Max=7.71D-04 NDo=     1
 LinEq1:  Iter=  8 NonCon=     1 RMS=1.80D-05 Max=7.04D-04 NDo=     1
 LinEq1:  Iter=  9 NonCon=     1 RMS=1.77D-05 Max=4.68D-04 NDo=     1
 LinEq1:  Iter= 10 NonCon=     1 RMS=1.47D-05 Max=4.50D-04 NDo=     1
 LinEq1:  Iter= 11 NonCon=     1 RMS=1.16D-05 Max=3.64D-04 NDo=     1
 LinEq1:  Iter= 12 NonCon=     1 RMS=9.52D-06 Max=2.55D-04 NDo=     1
 LinEq1:  Iter= 13 NonCon=     1 RMS=6.88D-06 Max=1.98D-04 NDo=     1
 LinEq1:  Iter= 14 NonCon=     1 RMS=5.20D-06 Max=1.39D-04 NDo=     1
 LinEq1:  Iter= 15 NonCon=     1 RMS=3.85D-06 Max=9.92D-05 NDo=     1
 LinEq1:  Iter= 16 NonCon=     1 RMS=2.42D-06 Max=5.05D-05 NDo=     1
 LinEq1:  Iter= 17 NonCon=     1 RMS=1.97D-06 Max=4.32D-05 NDo=     1
 LinEq1:  Iter= 18 NonCon=     1 RMS=1.59D-06 Max=3.61D-05 NDo=     1
 LinEq1:  Iter= 19 NonCon=     1 RMS=1.09D-06 Max=2.28D-05 NDo=     1
 LinEq1:  Iter= 20 NonCon=     1 RMS=7.44D-07 Max=1.34D-05 NDo=     1
 LinEq1:  Iter= 21 NonCon=     1 RMS=4.86D-07 Max=9.92D-06 NDo=     1
 LinEq1:  Iter= 22 NonCon=     1 RMS=3.86D-07 Max=1.03D-05 NDo=     1
 LinEq1:  Iter= 23 NonCon=     1 RMS=2.61D-07 Max=6.62D-06 NDo=     1
 LinEq1:  Iter= 24 NonCon=     1 RMS=1.90D-07 Max=4.74D-06 NDo=     1
 LinEq1:  Iter= 25 NonCon=     1 RMS=1.43D-07 Max=4.32D-06 NDo=     1
[...]
 ,0.,0.,0.,0.,0.,0.,0.,0.,0.,0.,0.,0.,0.,0.,0.,0.,0.,0.,0.,0.,0.,0.,0.,
 0.,0.,0.,0.,0.,0.,0.,0.,0.,0.,0.,0.,0.,0.,0.,0.,0.,0.,0.,0.,0.,0.,0.,0
 .,0.,0.,0.,0.,0.,0.,0.,0.,0.,0.,0.,0.,0.,0.,0.,0.,0.,0.,0.,0.,0.,0.,0.
 ,0.,0.,0.,0.,0.,0.,0.,0.,0.,0.,0.,0.,0.,0.,0.,0.,0.,0.,0.,0.,0.,0.,0.,
 0.,0.,0.,0.,0.,0.,0.,0.,0.,0.,0.,0.,0.,0.,0.,0.,0.,0.,0.,0.,0.,0.,0.,0
 .,0.,0.,0.,0.,0.,0.,0.,0.,0.,0.,0.,0.,0.,0.,0.,0.,0.,0.,0.,0.,0.,0.,0.
 ,0.,0.,0.,0.,0.,0.,0.,0.,0.,0.,0.,0.,0.,0.,0.,0.,0.,0.,0.,0.,0.,0.,0.,
 0.,0.,0.,0.,0.,0.,0.,0.,0.,0.,0.,0.,0.,0.,0.,0.,0.,0.,0.,0.,0.,0.,0.,0
 .,0.,0.,0.,0.,0.,0.,0.,0.,0.,0.,0.,0.,0.,0.,0.,0.,0.,0.,0.,0.,0.,0.,0.
 ,0.,0.,0.,0.,0.,0.,0.,0.,0.,0.,0.,0.,0.,0.,0.,0.,0.,0.,0.,0.,0.,0.,0.,
 0.,0.,0.,0.,0.,0.,0.,0.,0.,0.,0.,0.,0.,0.,0.,0.,0.,0.,0.,0.,0.,0.,0.,0
 .,0.,0.,0.,0.,0.,0.,0.,0.,0.,0.,0.,0.,0.,0.,0.,0.,0.,0.,0.,0.,0.,0.,0.
 ,0.,0.,0.,0.,0.,0.,0.,0.,0.,0.,0.,0.,0.,0.,0.,0.,0.,0.,0.,0.,0.,0.,0.,
 0.,0.,0.,0.,0.,0.,0.,0.,0.,0.,0.,0.,0.,0.,0.,0.,0.,0.,0.,0.,0.,0.,0.,0
 .,0.,0.,0.,0.,0.,0.,0.,0.,0.,0.,0.,0.,0.,0.,0.,0.,0.,0.,0.,0.,0.,0.,0.
 ,0.,0.,0.,0.,0.,0.,0.,0.,0.,0.,0.,0.,0.,0.,0.,0.,0.,0.,0.,0.,0.,0.,0.,
 0.,0.,0.,0.,0.,0.,0.,0.,0.,0.,0.,0.,0.,0.,0.,0.,0.,0.,0.,0.,0.,0.,0.,0
 .,0.,0.,0.,0.,0.,0.,0.,0.,0.,0.,0.,0.,0.,0.,0.,0.,0.,0.,0.,0.,0.,0.,0.
 ,0.,0.,0.,0.,0.,0.,0.,0.,0.,0.,0.,0.,0.,0.,0.,0.,0.,0.,0.,0.,0.,0.,0.,
 0.,0.,0.,0.,0.,0.,0.,0.,0.,0.,0.,0.,0.,0.,0.,0.,0.,0.,0.,0.,0.,0.,0.,0
 .,0.,0.,0.,0.,0.,0.,0.,0.,0.,0.,0.,0.,0.,0.,0.,0.,0.,0.,0.,0.,0.,0.,0.
 ,0.,0.,0.,0.,0.,0.,0.,0.,0.,0.,0.,0.,0.,0.,0.,0.,0.,0.,0.,0.,0.,0.,0.,
 0.,0.,0.,0.,0.,0.,0.,0.,0.,0.,0.,0.,0.,0.,0.,0.,0.,0.,0.,0.,0.,0.,0.,0
 .,0.,0.,0.,0.,0.,0.,0.,0.,0.,0.,0.,0.,0.,0.,0.,0.,0.,0.,0.,0.,0.,0.,0.
 ,0.,0.,0.,0.,0.,0.,0.,0.,0.,0.,0.,0.,0.,0.,0.,0.,0.,0.,0.,0.,0.,0.,0.,
 0.,0.,0.,0.,0.,0.,0.,0.,0.,0.,0.,0.,0.,0.,0.,0.,0.,0.,0.,0.,0.,0.,0.,0
 .,0.,0.,0.,0.,0.,0.,0.,0.,0.,0.,0.,0.,0.,0.,0.,0.,0.,0.,0.,0.,0.,0.,0.
 ,0.,0.,0.,0.,0.,0.,0.,0.,0.,0.,0.,0.,0.,0.,0.,0.,0.,0.,0.,0.,0.,0.,0.,
 0.,0.,0.,0.,0.,0.,0.,0.,0.,0.,0.,0.,0.,0.,0.,0.,0.,0.,0.,0.,0.,0.,0.,0
 .,0.,0.,0.,0.,0.,0.,0.,0.,0.,0.,0.,0.,0.,0.,0.,0.,0.,0.,0.,0.,0.,0.,0.
 ,0.,0.,0.,0.,0.,0.,0.,0.,0.,0.,0.,0.,0.,0.,0.,0.,0.,0.,0.,0.,0.,0.,0.,
 0.,0.,0.,0.,0.,0.,0.,0.,0.,0.,0.,0.,0.,0.,0.,0.,0.,0.,0.,0.,0.,0.,0.,0
 .,0.,0.,0.,0.,0.,0.,0.,0.,0.,0.,0.,0.,0.,0.,0.,0.,0.,0.,0.,0.,0.,0.,0.
 ,0.,0.,0.,0.,0.,0.,0.,0.,0.,0.,0.,0.,0.,0.,0.,0.,0.,0.,0.,0.,0.,0.,0.,
 0.,0.,0.,0.,0.,0.,0.,0.,0.,0.,0.,0.,0.,0.,0.,0.,0.,0.,0.,0.,0.,0.,0.,0
 .,0.,0.,0.,0.,0.,0.,0.,0.,0.,0.,0.,0.,0.,0.,0.,0.,0.,0.,0.,0.,0.,0.,0.
 ,0.,0.,0.,0.,0.,0.,0.,0.,0.,0.,0.,0.,0.,0.,0.,0.,0.,0.,0.,0.,0.,0.,0.,
 0.,0.,0.,0.,0.,0.,0.,0.,0.,0.,0.,0.,0.,0.,0.,0.,0.,0.,0.,0.,0.,0.,0.,0
 .,0.,0.,0.,0.,0.,0.,0.,0.,0.,0.,0.,0.,0.,0.,0.,0.,0.,0.,0.,0.,0.,0.,0.
 ,0.,0.,0.,0.,0.,0.,0.,0.,0.,0.,0.,0.,0.,0.,0.,0.,0.,0.,0.,0.,0.,0.,0.,
 0.,0.,0.,0.,0.,0.,0.,0.,0.,0.,0.,0.,0.,0.,0.,0.,0.,0.,0.,0.,0.,0.,0.,0
 .,0.,0.,0.,0.,0.,0.,0.,0.,0.,0.,0.,0.,0.,0.,0.,0.,0.,0.,0.,0.,0.,0.,0.
 ,0.,0.,0.,0.,0.,0.,0.,0.,0.,0.,0.,0.,0.,0.,0.,0.,0.,0.,0.,0.,0.,0.,0.,
 0.,0.,0.,0.,0.,0.,0.,0.,0.,0.,0.,0.,0.,0.,0.,0.,0.,0.,0.,0.,0.,0.,0.,0
 .,0.,0.,0.,0.,0.,0.,0.,0.,0.,0.,0.,0.,0.,0.,0.,0.,0.,0.,0.,0.,0.,0.,0.
 ,0.,0.,0.,0.,0.,0.,0.,0.,0.,0.,0.,0.,0.,0.,0.,0.,0.,0.,0.,0.,0.,0.,0.,
 0.,0.,0.,0.,0.,0.,0.,0.,0.,0.,0.,0.,0.,0.,0.,0.,0.,0.,0.,0.,0.,0.,0.,0
 .,0.,0.,0.,0.,0.,0.,0.,0.,0.,0.,0.,0.,0.,0.,0.,0.,0.,0.,0.,0.,0.,0.,0.
 ,0.,0.,0.,0.,0.,0.,0.,0.,0.,0.,0.,0.,0.,0.,0.,0.,0.,0.,0.,0.,0.,0.,0.,
 0.,0.,0.,0.,0.,0.,0.,0.,0.,0.,0.,0.,0.,0.,0.,0.,0.,0.,0.,0.,0.,0.,0.,0
 .,0.,0.,0.,0.,0.,0.,0.,0.,0.,0.,0.,0.,0.,0.,0.,0.,0.,0.,0.,0.,0.,0.,0.
 ,0.,0.,0.,0.,0.,0.,0.,0.,0.,0.,0.,0.,0.,0.,0.,0.,0.,0.,0.,0.,0.,0.,0.,
 0.,0.,0.,0.,0.,0.,0.,0.,0.,0.,0.,0.,0.,0.,0.,0.,0.,0.,0.,0.,0.,0.,0.,0
 .,0.,0.,0.,0.,0.,0.,0.,0.,0.,0.,0.,0.,0.,0.,0.,0.,0.,0.,0.,0.,0.,0.,0.
 ,0.,0.,0.,0.,0.,0.,0.,0.,0.,0.,0.,0.,0.,0.,0.,0.,0.,0.,0.,0.,0.,0.,0.,
 0.,0.,0.,0.,0.,0.,0.,0.,0.,0.,0.,0.,0.,0.,0.,0.,0.,0.,0.,0.,0.,0.,0.,0
 .,0.,0.,0.,0.,0.,0.,0.,0.,0.,0.,0.,0.,0.,0.,0.,0.,0.,0.,0.,0.,0.,0.,0.
 ,0.,0.,0.,0.,0.,0.,0.,0.,0.,0.,0.,0.,0.,0.,0.,0.,0.,0.,0.,0.,0.,0.,0.,
 0.,0.,0.,0.,0.,0.,0.,0.,0.,0.,0.,0.,0.,0.,0.,0.,0.,0.,0.,0.,0.,0.,0.,0
 .,0.,0.,0.,0.,0.,0.,0.,0.,0.,0.,0.,0.,0.,0.,0.,0.,0.,0.,0.,0.,0.,0.,0.
 ,0.,0.,0.,0.,0.,0.,0.,0.,0.,0.,0.,0.,0.,0.,0.,0.,0.,0.,0.,0.,0.,0.,0.,
 0.,0.,0.,0.,0.,0.,0.,0.,0.,0.,0.,0.,0.,0.,0.,0.,0.,0.,0.,0.,0.,0.,0.,0
 .,0.,0.,0.,0.,0.,0.,0.,0.,0.,0.,0.,0.,0.,0.,0.,0.,0.,0.,0.,0.,0.,0.,0.
 ,0.,0.,0.,0.,0.,0.,0.,0.,0.,0.,0.,0.,0.,0.,0.,0.,0.,0.,0.,0.,0.,0.,0.,
 0.,0.,0.,0.,0.,0.,0.,0.,0.,0.,0.,0.,0.,0.,0.,0.,0.,0.,0.,0.,0.,0.,0.,0
 .,0.,0.,0.,0.,0.,0.,0.,0.,0.,0.,0.,0.,0.,0.,0.,0.,0.,0.,0.,0.,0.,0.,0.
 ,0.,0.,0.,0.,0.,0.,0.,0.,0.,0.,0.,0.,0.,0.,0.,0.,0.,0.,0.,0.,0.,0.,0.,
 0.,0.,0.,0.,0.,0.,0.,0.,0.,0.,0.,0.,0.,0.,0.,0.,0.,0.,0.,0.,0.,0.,0.,0
 .,0.,0.,0.,0.,0.,0.,0.,0.,0.,0.,0.,0.,0.,0.,0.,0.,0.,0.,0.,0.,0.,0.,0.
 ,0.,0.,0.,0.,0.,0.,0.,0.,0.,0.,0.,0.,0.,0.,0.,0.,0.,0.,0.,0.,0.,0.,0.,
 0.,0.,0.,0.,0.,0.,0.,0.,0.,0.,0.,0.,0.,0.,0.,0.,0.,0.,0.,0.,0.,0.,0.,0
 .,0.,0.,0.,0.,0.,0.,0.,0.,0.,0.,0.,0.,0.,0.,0.,0.,0.,0.,0.,0.,0.,0.,0.
 ,0.,0.,0.,0.,0.,0.,0.,0.,0.,0.,0.,0.,0.,0.,0.,0.,0.,0.,0.,0.,0.,0.,0.,
 0.,0.,0.,0.,0.,0.,0.,0.,0.,0.,0.,0.,0.,0.,0.,0.,0.,0.,0.,0.,0.,0.,0.,0
 .,0.,0.,0.,0.,0.,0.,0.,0.,0.,0.,0.,0.,0.,0.,0.,0.,0.,0.,0.,0.,0.,0.,0.
 ,0.,0.,0.,0.,0.,0.,0.,0.,0.,0.,0.,0.,0.,0.,0.,0.,0.,0.,0.,0.,0.,0.,0.,
 0.,0.,0.,0.,0.,0.,0.,0.,0.,0.,0.,0.,0.,0.,0.,0.,0.,0.,0.,0.,0.,0.,0.,0
 .,0.,0.,0.,0.,0.,0.,0.,0.,0.,0.,0.,0.,0.,0.,0.,0.,0.,0.,0.,0.,0.,0.,0.
 ,0.,0.,0.,0.,0.,0.,0.,0.,0.,0.,0.,0.,0.,0.,0.,0.,0.,0.,0.,0.,0.,0.,0.,
 0.,0.,0.,0.,0.,0.,0.,0.,0.,0.,0.,0.,0.,0.,0.,0.,0.,0.,0.,0.,0.,0.,0.,0
 .,0.,0.,0.,0.,0.,0.,0.,0.,0.,0.,0.,0.,0.,0.,0.,0.,0.,0.,0.,0.,0.,0.,0.
 ,0.,0.,0.,0.,0.,0.,0.,0.,0.,0.,0.,0.,0.,0.,0.,0.,0.,0.,0.,0.,0.,0.,0.,
 0.,0.,0.,0.,0.,0.,0.,0.,0.,0.,0.,0.,0.,0.,0.,0.,0.,0.,0.,0.,0.,0.,0.,0
 .,0.,0.,0.,0.,0.,0.,0.,0.,0.,0.,0.,0.,0.,0.,0.,0.,0.,0.,0.,0.,0.,0.,0.
 ,0.,0.,0.,0.,0.,0.,0.,0.,0.,0.,0.,0.,0.,0.,0.,0.,0.,0.,0.,0.,0.,0.,0.,
 0.,0.,0.,0.,0.,0.,0.,0.,0.,0.,0.,0.,0.,0.,0.,0.,0.,0.,0.,0.,0.,0.,0.,0
 .,0.,0.,0.,0.,0.,0.,0.,0.,0.,0.,0.,0.,0.,0.,0.,0.,0.,0.,0.,0.,0.,0.,0.
 ,0.,0.,0.,0.,0.,0.,0.,0.,0.,0.,0.,0.,0.,0.,0.,0.,0.,0.,0.,0.,0.,0.,0.,
 0.,0.,0.,0.,0.,0.,0.,0.,0.,0.,0.,0.,0.,0.,0.,0.,0.,0.,0.,0.,0.,0.,0.,0
 .,0.,0.,0.,0.,0.,0.,0.,0.,0.,0.,0.,0.,0.,0.,0.,0.,0.,0.,0.,0.,0.,0.,0.
 ,0.,0.,0.,0.,0.,0.,0.,0.,0.,0.,0.,0.,0.,0.,0.,0.,0.,0.,0.,0.,0.,0.,0.,
 0.,0.,0.,0.,0.,0.,0.,0.,0.,0.,0.,0.,0.,0.,0.,0.,0.,0.,0.,0.,0.,0.,0.,0
 .,0.,0.,0.,0.,0.,0.,0.,0.,0.,0.,0.,0.,0.,0.,0.,0.,0.,0.,0.,0.,0.,0.,0.
 ,0.,0.,0.,0.,0.,0.,0.,0.,0.,0.,0.,0.,0.,0.,0.,0.,0.,0.,0.,0.,0.,0.,0.,
 0.,0.,0.,0.,0.,0.,0.,0.,0.,0.,0.,0.,0.,0.,0.,0.,0.,0.,0.,0.,0.,0.,0.,0
 .,0.,0.,0.,0.,0.,0.,0.,0.,0.,0.,0.,0.,0.,0.,0.,0.,0.,0.,0.,0.,0.,0.,0.
 ,0.,0.,0.,0.,0.,0.,0.,0.,0.,0.,0.,0.,0.,0.,0.,0.,0.,0.,0.,0.,0.,0.,0.,
 0.,0.,0.,0.,0.,0.,0.,0.,0.,0.,0.,0.,0.,0.,0.,0.,0.,0.,0.,0.,0.,0.,0.,0
 .,0.,0.,0.,0.,0.,0.,0.,0.,0.,0.,0.,0.,0.,0.,0.,0.,0.,0.,0.,0.,0.,0.,0.
 ,0.,0.,0.,0.,0.,0.,0.,0.,0.,0.,0.,0.,0.,0.,0.,0.,0.,0.,0.,0.,0.,0.,0.,
 0.,0.,0.,0.,0.,0.,0.,0.,0.,0.,0.,0.,0.,0.,0.,0.,0.,0.,0.,0.,0.,0.,0.,0
 .,0.,0.,0.,0.,0.,0.,0.,0.,0.,0.,0.,0.,0.,0.,0.,0.,0.,0.,0.,0.,0.,0.,0.
 ,0.,0.,0.,0.,0.,0.,0.,0.,0.,0.,0.,0.,0.,0.,0.,0.,0.,0.,0.,0.,0.,0.,0.,
 0.,0.,0.,0.,0.,0.,0.,0.,0.,0.,0.,0.,0.,0.,0.,0.,0.,0.,0.,0.,0.,0.,0.,0
 .,0.,0.,0.,0.,0.,0.,0.,0.,0.,0.,0.,0.,0.,0.,0.,0.,0.,0.,0.,0.,0.,0.,0.
 ,0.,0.,0.,0.,0.,0.,0.,0.,0.,0.,0.,0.,0.,0.,0.,0.,0.,0.,0.,0.,0.,0.,0.,
 0.,0.,0.,0.,0.,0.,0.,0.,0.,0.,0.,0.,0.,0.,0.,0.,0.,0.,0.,0.,0.,0.,0.,0
 .,0.,0.,0.,0.,0.,0.,0.,0.,0.,0.,0.,0.,0.,0.,0.,0.,0.,0.,0.,0.,0.,0.,0.
 ,0.,0.,0.,0.,0.,0.,0.,0.,0.,0.,0.,0.,0.,0.,0.,0.,0.,0.,0.,0.,0.,0.,0.,
 0.,0.,0.,0.,0.,0.,0.,0.,0.,0.,0.,0.,0.,0.,0.,0.,0.,0.,0.,0.,0.,0.,0.,0
 .,0.,0.,0.,0.,0.,0.,0.,0.,0.,0.,0.,0.,0.,0.,0.,0.,0.,0.,0.,0.,0.,0.,0.
 ,0.,0.,0.,0.,0.,0.,0.,0.,0.,0.,0.,0.,0.,0.,0.,0.,0.,0.,0.,0.,0.,0.,0.,
 0.,0.,0.,0.,0.,0.,0.,0.,0.,0.,0.,0.,0.,0.,0.,0.,0.,0.,0.,0.,0.,0.,0.,0
 .,0.,0.,0.,0.,0.,0.,0.,0.,0.,0.,0.,0.,0.,0.,0.,0.,0.,0.,0.,0.,0.,0.,0.
 ,0.,0.,0.,0.,0.,0.,0.,0.,0.,0.,0.,0.,0.,0.,0.,0.,0.,0.,0.,0.,0.,0.,0.,
 0.,0.,0.,0.,0.,0.,0.,0.,0.,0.,0.,0.,0.,0.,0.,0.,0.,0.,0.,0.,0.,0.,0.,0
 .,0.,0.,0.,0.,0.,0.,0.,0.,0.,0.,0.,0.,0.,0.,0.,0.,0.,0.,0.,0.,0.,0.,0.
 ,0.,0.,0.,0.,0.,0.,0.,0.,0.,0.,0.,0.,0.,0.,0.,0.,0.,0.,0.,0.,0.,0.,0.,
 0.,0.,0.,0.,0.,0.,0.,0.,0.,0.,0.,0.,0.,0.,0.,0.,0.,0.,0.,0.,0.,0.,0.,0
 .,0.,0.,0.,0.,0.,0.,0.,0.,0.,0.,0.,0.,0.,0.,0.,0.,0.,0.,0.,0.,0.,0.,0.
 ,0.,0.,0.,0.,0.,0.,0.,0.,0.,0.,0.,0.,0.,0.,0.,0.,0.,0.,0.,0.,0.,0.,0.,
 0.,0.,0.,0.,0.,0.,0.,0.,0.,0.,0.,0.,0.,0.,0.,0.,0.,0.,0.,0.,0.,0.,0.,0
 .,0.,0.,0.,0.,0.,0.,0.,0.,0.,0.,0.,0.,0.,0.,0.,0.,0.,0.,0.,0.,0.,0.,0.
 ,0.,0.,0.,0.,0.,0.,0.,0.,0.,0.,0.,0.,0.,0.,0.,0.,0.,0.,0.,0.,0.,0.,0.,
 0.,0.,0.,0.,0.,0.,0.,0.,0.,0.,0.,0.,0.,0.,0.,0.,0.,0.,0.,0.,0.,0.,0.,0
 .,0.,0.,0.,0.,0.,0.,0.,0.,0.,0.,0.,0.,0.,0.,0.,0.,0.,0.,0.,0.,0.,0.,0.
 ,0.,0.,0.,0.,0.,0.,0.,0.,0.,0.,0.,0.,0.,0.,0.,0.,0.,0.,0.,0.,0.,0.,0.,
 0.,0.,0.,0.,0.,0.,0.,0.,0.,0.,0.,0.,0.,0.,0.,0.,0.,0.,0.,0.,0.,0.,0.,0
 .,0.,0.,0.,0.,0.,0.,0.,0.,0.,0.,0.,0.,0.,0.,0.,0.,0.,0.,0.,0.,0.,0.,0.
 ,0.,0.,0.,0.,0.,0.,0.,0.,0.,0.,0.,0.,0.,0.,0.,0.,0.,0.,0.,0.,0.,0.,0.,
 0.,0.,0.,0.,0.,0.,0.,0.,0.,0.,0.,0.,0.,0.,0.,0.,0.,0.,0.,0.,0.,0.,0.,0
 .,0.,0.,0.,0.,0.,0.,0.,0.,0.,0.,0.,0.,0.,0.,0.,0.,0.,0.,0.,0.,0.,0.,0.
 ,0.,0.,0.,0.,0.,0.,0.,0.,0.,0.,0.,0.,0.,0.,0.,0.,0.,0.,0.,0.,0.,0.,0.,
 0.,0.,0.,0.,0.,0.,0.,0.,0.,0.,0.,0.,0.,0.,0.,0.,0.,0.,0.,0.,0.,0.,0.,0
 .,0.,0.,0.,0.,0.,0.,0.,0.,0.,0.,0.,0.,0.,0.,0.,0.,0.,0.,0.,0.,0.,0.,0.
 ,0.,0.,0.,0.,0.,0.,0.,0.,0.,0.,0.,0.,0.,0.,0.,0.,0.,0.,0.,0.,0.,0.,0.,
 0.,0.,0.,0.,0.,0.,0.,0.,0.,0.,0.,0.,0.,0.,0.,0.,0.,0.,0.,0.,0.,0.,0.,0
 .,0.,0.,0.,0.,0.,0.,0.,0.,0.,0.,0.,0.,0.,0.,0.,0.,0.,0.,0.,0.,0.,0.,0.
 ,0.,0.,0.,0.,0.,0.,0.,0.,0.,0.,0.,0.,0.,0.,0.,0.,0.,0.,0.,0.,0.,0.,0.,
 0.,0.,0.,0.,0.,0.,0.,0.,0.,0.,0.,0.,0.,0.,0.,0.,0.,0.,0.,0.,0.,0.,0.,0
 .,0.,0.,0.,0.,0.,0.,0.,0.,0.,0.,0.,0.,0.,0.,0.,0.,0.,0.,0.,0.,0.,0.,0.
 ,0.,0.,0.,0.,0.,0.,0.,0.,0.,0.,0.,0.,0.,0.,0.,0.,0.,0.,0.,0.,0.,0.,0.,
 0.,0.,0.,0.,0.,0.,0.,0.,0.,0.,0.,0.,0.,0.,0.,0.,0.,0.,0.,0.,0.,0.,0.,0
 .,0.,0.,0.,0.,0.,0.,0.,0.,0.,0.,0.,0.,0.,0.,0.,0.,0.,0.,0.,0.,0.,0.,0.
 ,0.,0.,0.,0.,0.,0.,0.,0.,0.,0.,0.,0.,0.,0.,0.,0.,0.,0.,0.,0.,0.,0.,0.,
 0.,0.,0.,0.,0.,0.,0.,0.,0.,0.,0.,0.,0.,0.,0.,0.,0.,0.,0.,0.,0.,0.,0.,0
 .,0.,0.,0.,0.,0.,0.,0.,0.,0.,0.,0.,0.,0.,0.,0.,0.,0.,0.,0.,0.,0.,0.,0.
 ,0.,0.,0.,0.,0.,0.,0.,0.,0.,0.,0.,0.,0.,0.,0.,0.,0.,0.,0.,0.,0.,0.,0.,
 0.,0.,0.,0.,0.,0.,0.,0.,0.,0.,0.,0.,0.,0.,0.,0.,0.,0.,0.,0.,0.,0.,0.,0
 .,0.,0.,0.,0.,0.,0.,0.,0.,0.,0.,0.,0.,0.,0.,0.,0.,0.,0.,0.,0.,0.,0.,0.
 ,0.,0.,0.,0.,0.,0.,0.,0.,0.,0.,0.,0.,0.,0.,0.,0.,0.,0.,0.,0.,0.,0.,0.,
 0.,0.,0.,0.,0.,0.,0.,0.,0.,0.,0.,0.,0.,0.,0.,0.,0.,0.,0.,0.,0.,0.,0.,0
 .,0.,0.,0.,0.,0.,0.,0.,0.,0.,0.,0.,0.,0.,0.,0.,0.,0.,0.,0.,0.,0.,0.,0.
 ,0.,0.,0.,0.,0.,0.,0.,0.,0.,0.,0.,0.,0.,0.,0.,0.,0.,0.,0.,0.,0.,0.,0.,
 0.,0.,0.,0.,0.,0.,0.,0.,0.,0.,0.,0.,0.,0.,0.,0.,0.,0.,0.,0.,0.,0.,0.,0
 .,0.,0.,0.,0.,0.,0.,0.,0.,0.,0.,0.,0.,0.,0.,0.,0.,0.,0.,0.,0.,0.,0.,0.
 ,0.,0.,0.,0.,0.,0.,0.,0.,0.,0.,0.,0.,0.,0.,0.,0.,0.,0.,0.,0.,0.,0.,0.,
 0.,0.,0.,0.,0.,0.,0.,0.,0.,0.,0.,0.,0.,0.,0.,0.,0.,0.,0.,0.,0.,0.,0.,0
 .,0.,0.,0.,0.,0.,0.,0.,0.,0.,0.,0.,0.,0.,0.,0.,0.,0.,0.,0.,0.,0.,0.,0.
 ,0.,0.,0.,0.,0.,0.,0.,0.,0.,0.,0.,0.,0.,0.,0.,0.,0.,0.,0.,0.,0.,0.,0.,
 0.,0.,0.,0.,0.,0.,0.,0.,0.,0.,0.,0.,0.,0.,0.,0.,0.,0.,0.,0.,0.,0.,0.,0
 .,0.,0.,0.,0.,0.,0.,0.,0.,0.,0.,0.,0.,0.,0.,0.,0.,0.,0.,0.,0.,0.,0.,0.
 ,0.,0.,0.,0.,0.,0.,0.,0.,0.,0.,0.,0.,0.,0.,0.,0.,0.,0.,0.,0.,0.,0.,0.,
 0.,0.,0.,0.,0.,0.,0.,0.,0.,0.,0.,0.,0.,0.,0.,0.,0.,0.,0.,0.,0.,0.,0.,0
 .,0.,0.,0.,0.,0.,0.,0.,0.,0.,0.,0.,0.,0.,0.,0.,0.,0.,0.,0.,0.,0.,0.,0.
 ,0.,0.,0.,0.,0.,0.,0.,0.,0.,0.,0.,0.,0.,0.,0.,0.,0.,0.,0.,0.,0.,0.,0.,
 0.,0.,0.,0.,0.,0.,0.,0.,0.,0.,0.,0.,0.,0.,0.,0.,0.,0.,0.,0.,0.,0.,0.,0
 .,0.,0.,0.,0.,0.,0.,0.,0.,0.,0.,0.,0.,0.,0.,0.,0.,0.,0.,0.,0.,0.,0.,0.
 ,0.,0.,0.,0.,0.,0.,0.,0.,0.,0.,0.,0.,0.,0.,0.,0.,0.,0.,0.,0.,0.,0.,0.,
 0.,0.,0.,0.,0.,0.,0.,0.,0.,0.,0.,0.,0.,0.,0.,0.,0.,0.,0.,0.,0.,0.,0.,0
 .,0.,0.,0.,0.,0.,0.,0.,0.,0.,0.,0.,0.,0.,0.,0.,0.,0.,0.,0.,0.,0.,0.,0.
 ,0.,0.,0.,0.,0.,0.,0.,0.,0.,0.,0.,0.,0.,0.,0.,0.,0.,0.,0.,0.,0.,0.,0.,
 0.,0.,0.,0.,0.,0.,0.,0.,0.,0.,0.,0.,0.,0.,0.,0.,0.,0.,0.,0.,0.,0.,0.,0
 .,0.,0.,0.,0.,0.,0.,0.,0.,0.,0.,0.,0.,0.,0.,0.,0.,0.,0.,0.,0.,0.,0.,0.
 ,0.,0.,0.,0.,0.,0.,0.,0.,0.,0.,0.,0.,0.,0.,0.,0.,0.,0.,0.,0.,0.,0.,0.,
 0.,0.,0.,0.,0.,0.,0.,0.,0.,0.,0.,0.,0.,0.,0.,0.,0.,0.,0.,0.,0.,0.,0.,0
 .,0.,0.,0.,0.,0.,0.,0.,0.,0.,0.,0.,0.,0.,0.,0.,0.,0.,0.,0.,0.,0.,0.,0.
 ,0.,0.,0.,0.,0.,0.,0.,0.,0.,0.,0.,0.,0.,0.,0.,0.,0.,0.,0.,0.,0.,0.,0.,
 0.,0.,0.,0.,0.,0.,0.,0.,0.,0.,0.,0.,0.,0.,0.,0.,0.,0.,0.,0.,0.,0.,0.,0
 .,0.,0.,0.,0.,0.,0.,0.,0.,0.,0.,0.,0.,0.,0.,0.,0.,0.,0.,0.,0.,0.,0.,0.
 ,0.,0.,0.,0.,0.,0.,0.,0.,0.,0.,0.,0.,0.,0.,0.,0.,0.,0.,0.,0.,0.,0.,0.,
 0.,0.,0.,0.,0.,0.,0.,0.,0.,0.,0.,0.,0.,0.,0.,0.,0.,0.,0.,0.,0.,0.,0.,0
 .,0.,0.,0.,0.,0.,0.,0.,0.,0.,0.,0.,0.,0.,0.,0.,0.,0.,0.,0.,0.,0.,0.,0.
 ,0.,0.,0.,0.,0.,0.,0.,0.,0.,0.,0.,0.,0.,0.,0.,0.,0.,0.,0.,0.,0.,0.,0.,
 0.,0.,0.,0.,0.,0.,0.,0.,0.,0.,0.,0.,0.,0.,0.,0.,0.,0.,0.,0.,0.,0.,0.,0
 .43127035,0.,0.,0.,0.,0.,0.,0.,0.,0.,0.,0.,0.,0.,0.,0.,0.,0.,0.,0.,0.,
 0.,0.,0.,0.,0.,0.,0.,0.,0.,0.,0.,0.,0.,0.,0.,0.,0.,0.,0.,0.,0.,0.,0.,0
 .,0.,0.,0.,0.,0.,0.,0.,0.,0.,0.,0.,0.,0.,0.,0.,0.,0.,0.,0.,0.,0.,0.,0.
 ,0.,0.,0.,0.,0.,0.,0.,0.,0.,0.,0.,0.,0.,0.,0.,0.,0.,0.,0.,0.,0.,0.,0.,
 0.,0.,0.,0.,0.,0.,0.,0.,0.,0.,0.,0.,0.,0.,0.,0.,0.,0.,0.,0.,0.,0.,0.,0
 .,0.,0.,0.,0.,0.,0.,0.,0.,0.,0.,0.,0.,0.,0.,0.,0.,0.,0.,0.,0.,0.,0.,0.
 ,0.,0.,0.,0.,0.,0.,0.,-0.00591038,0.43420426,0.,0.,0.,0.,0.,0.,0.,0.,0
 .,0.,0.,0.,0.,0.,0.,0.,0.,0.,0.,0.,0.,0.,0.,0.,0.,0.,0.,0.,0.,0.,0.,0.
 ,0.,0.,0.,0.,0.,0.,0.,0.,0.,0.,0.,0.,0.,0.,0.,0.,0.,0.,0.,0.,0.,0.,0.,
 0.,0.,0.,0.,0.,0.,0.,0.,0.,0.,0.,0.,0.,0.,0.,0.,0.,0.,0.,0.,0.,0.,0.,0
 .,0.,0.,0.,0.,0.,0.,0.,0.,0.,0.,0.,0.,0.,0.,0.,0.,0.,0.,0.,0.,0.,0.,0.
 ,0.,0.,0.,0.,0.,0.,0.,0.,0.,0.,0.,0.,0.,0.,0.,0.,0.,0.,0.,0.,0.,0.,0.,
 0.,0.,0.,0.,0.,0.,0.,0.,0.,0.,0.,0.,0.,0.,0.,0.,0.,0.,0.,-0.02195188,-
 0.01629535,0.35504720,0.,0.,0.,0.,0.,0.,0.,0.,0.,0.,0.,0.,0.,0.,0.,0.,
 0.,0.,0.,0.,0.,0.,0.,0.,0.,0.,0.,0.,0.,0.,0.,0.,0.,0.,0.,0.,0.,0.,0.,0
 .,0.,0.,0.,0.,0.,0.,0.,0.,0.,0.,0.,0.,0.,0.,0.,0.,0.,0.,0.,0.,0.,0.,0.
 ,0.,0.,0.,0.,0.,0.,0.,0.,0.,0.,0.,0.,0.,0.,0.,0.,0.,0.,0.,0.,0.,0.,0.,
 0.,0.,0.,0.,0.,0.,0.,0.,0.,0.,0.,0.,0.,0.,0.,0.,0.,0.,0.,0.,0.,0.,0.,0
 .,0.,0.,0.,0.,0.,0.,0.,0.,0.,0.,0.,0.,0.,0.,0.,0.,0.,0.,0.,0.,0.,0.,0.
 ,0.,0.,0.,0.,0.,0.,0.,0.,0.,0.,0.,-0.06759463,-0.03346470,0.02983584,0
 .06637915,0.,0.,0.,0.,0.,0.,0.,0.,0.,0.,0.,0.,0.,0.,0.,0.,0.,0.,0.,0.,
 0.,0.,0.,0.,0.,0.,0.,0.,0.,0.,0.,0.,0.,0.,0.,0.,0.,0.,0.,0.,0.,0.,0.,0
 .,0.,0.,0.,0.,0.,0.,0.,0.,0.,0.,0.,0.,0.,0.,0.,0.,0.,0.,0.,0.,0.,0.,0.
 ,0.,0.,0.,0.,0.,0.,0.,0.,0.,0.,0.,0.,0.,0.,0.,0.,0.,0.,0.,0.,0.,0.,0.,
 0.,0.,0.,0.,0.,0.,0.,0.,0.,0.,0.,0.,0.,0.,0.,0.,0.,0.,0.,0.,0.,0.,0.,0
 .,0.,0.,0.,0.,0.,0.,0.,0.,0.,0.,0.,0.,0.,0.,0.,0.,0.,0.,0.,0.,0.,0.,0.
 ,0.,0.,0.,0.,0.,0.,0.,-0.03709467,-0.17294837,0.08255232,0.04813346,0.
 20015739,0.,0.,0.,0.,0.,0.,0.,0.,0.,0.,0.,0.,0.,0.,0.,0.,0.,0.,0.,0.,0
 .,0.,0.,0.,0.,0.,0.,0.,0.,0.,0.,0.,0.,0.,0.,0.,0.,0.,0.,0.,0.,0.,0.,0.
 ,0.,0.,0.,0.,0.,0.,0.,0.,0.,0.,0.,0.,0.,0.,0.,0.,0.,0.,0.,0.,0.,0.,0.,
 0.,0.,0.,0.,0.,0.,0.,0.,0.,0.,0.,0.,0.,0.,0.,0.,0.,0.,0.,0.,0.,0.,0.,0
 .,0.,0.,0.,0.,0.,0.,0.,0.,0.,0.,0.,0.,0.,0.,0.,0.,0.,0.,0.,0.,0.,0.,0.
 ,0.,0.,0.,0.,0.,0.,0.,0.,0.,0.,0.,0.,0.,0.,0.,0.,0.,0.,0.,0.,0.,0.,0.,
 0.,0.,0.,0.,0.,0.,0.,0.03941963,0.10227891,-0.10172015,-0.03724537,-0.
 10767914,0.11865983,0.,0.,0.,0.,0.,0.,0.,0.,0.,0.,0.,0.,0.,0.,0.,0.,0.
 ,0.,0.,0.,0.,0.,0.,0.,0.,0.,0.,0.,0.,0.,0.,0.,0.,0.,0.,0.,0.,0.,0.,0.,
 0.,0.,0.,0.,0.,0.,0.,0.,0.,0.,0.,0.,0.,0.,0.,0.,0.,0.,0.,0.,0.,0.,0.,0
 .,0.,0.,0.,0.,0.,0.,0.,0.,0.,0.,0.,0.,0.,0.,0.,0.,0.,0.,0.,0.,0.,0.,0.
 ,0.,0.,0.,0.,0.,0.,0.,0.,0.,0.,0.,0.,0.,0.,0.,0.,0.,0.,0.,0.,0.,0.,0.,
 0.,0.,0.,0.,0.,0.,0.,0.,0.,0.,0.,0.,0.,0.,0.,0.,0.,0.,0.,0.,0.,0.,0.,0
 .,0.,0.,0.,0.,0.,0.,0.,0.,0.,0.,-0.09547150,0.06750650,0.03365913,0.00
 830086,-0.00713569,-0.00446712,0.10221773,0.,0.,0.,0.,0.,0.,0.,0.,0.,0
 .,0.,0.,0.,0.,0.,0.,0.,0.,0.,0.,0.,0.,0.,0.,0.,0.,0.,0.,0.,0.,0.,0.,0.
 ,0.,0.,0.,0.,0.,0.,0.,0.,0.,0.,0.,0.,0.,0.,0.,0.,0.,0.,0.,0.,0.,0.,0.,
 0.,0.,0.,0.,0.,0.,0.,0.,0.,0.,0.,0.,0.,0.,0.,0.,0.,0.,0.,0.,0.,0.,0.,0
 .,0.,0.,0.,0.,0.,0.,0.,0.,0.,0.,0.,0.,0.,0.,0.,0.,0.,0.,0.,0.,0.,0.,0.
 ,0.,0.,0.,0.,0.,0.,0.,0.,0.,0.,0.,0.,0.,0.,0.,0.,0.,0.,0.,0.,0.,0.,0.,
 0.,0.,0.,0.,0.,0.,0.,0.,0.,0.,0.,0.,0.,0.,0.,0.,0.,0.,0.07386150,-0.18
 292795,-0.05010802,0.01555789,-0.02955120,-0.00773819,-0.09022579,0.20
 826196,0.,0.,0.,0.,0.,0.,0.,0.,0.,0.,0.,0.,0.,0.,0.,0.,0.,0.,0.,0.,0.,
 0.,0.,0.,0.,0.,0.,0.,0.,0.,0.,0.,0.,0.,0.,0.,0.,0.,0.,0.,0.,0.,0.,0.,0
 .,0.,0.,0.,0.,0.,0.,0.,0.,0.,0.,0.,0.,0.,0.,0.,0.,0.,0.,0.,0.,0.,0.,0.
 ,0.,0.,0.,0.,0.,0.,0.,0.,0.,0.,0.,0.,0.,0.,0.,0.,0.,0.,0.,0.,0.,0.,0.,
 0.,0.,0.,0.,0.,0.,0.,0.,0.,0.,0.,0.,0.,0.,0.,0.,0.,0.,0.,0.,0.,0.,0.,0
 .,0.,0.,0.,0.,0.,0.,0.,0.,0.,0.,0.,0.,0.,0.,0.,0.,0.,0.,0.,0.,0.,0.,0.
 ,0.,0.,0.,0.,0.,0.,0.04662637,-0.06761268,-0.06691415,-0.01054311,0.01
 528398,0.00876047,-0.04338006,0.06906575,0.07296259,0.,0.,0.,0.,0.,0.,
 0.,0.,0.,0.,0.,0.,0.,0.,0.,0.,0.,0.,0.,0.,0.,0.,0.,0.,0.,0.,0.,0.,0.,0
 .,0.,0.,0.,0.,0.,0.,0.,0.,0.,0.,0.,0.,0.,0.,0.,0.,0.,0.,0.,0.,0.,0.,0.
 ,0.,0.,0.,0.,0.,0.,0.,0.,0.,0.,0.,0.,0.,0.,0.,0.,0.,0.,0.,0.,0.,0.,0.,
 0.,0.,0.,0.,0.,0.,0.,0.,0.,0.,0.,0.,0.,0.,0.,0.,0.,0.,0.,0.,0.,0.,0.,0
 .,0.,0.,0.,0.,0.,0.,0.,0.,0.,0.,0.,0.,0.,0.,0.,0.,0.,0.,0.,0.,0.,0.,0.
 ,0.,0.,0.,0.,0.,0.,0.,0.,0.,0.,0.,0.,0.,0.,0.,0.,0.,0.,0.,0.,0.,-0.244
 95560,-0.02490232,-0.00708292,-0.01162100,-0.00601349,0.00252075,-0.02
 105134,0.00186053,0.00128644,0.28505983,0.,0.,0.,0.,0.,0.,0.,0.,0.,0.,
 0.,0.,0.,0.,0.,0.,0.,0.,0.,0.,0.,0.,0.,0.,0.,0.,0.,0.,0.,0.,0.,0.,0.,0
 .,0.,0.,0.,0.,0.,0.,0.,0.,0.,0.,0.,0.,0.,0.,0.,0.,0.,0.,0.,0.,0.,0.,0.
 ,0.,0.,0.,0.,0.,0.,0.,0.,0.,0.,0.,0.,0.,0.,0.,0.,0.,0.,0.,0.,0.,0.,0.,
 0.,0.,0.,0.,0.,0.,0.,0.,0.,0.,0.,0.,0.,0.,0.,0.,0.,0.,0.,0.,0.,0.,0.,0
 .,0.,0.,0.,0.,0.,0.,0.,0.,0.,0.,0.,0.,0.,0.,0.,0.,0.,0.,0.,0.,0.,0.,0.
 ,0.,0.,0.,0.,0.,0.,0.,0.,0.,0.,0.,0.,0.,0.,0.,0.,0.,-0.02731811,-0.061
 58484,0.00148090,-0.03365332,-0.00321189,-0.00011239,0.03258951,0.0064
 2859,0.00096730,0.03295748,0.05621822,0.,0.,0.,0.,0.,0.,0.,0.,0.,0.,0.
 ,0.,0.,0.,0.,0.,0.,0.,0.,0.,0.,0.,0.,0.,0.,0.,0.,0.,0.,0.,0.,0.,0.,0.,
 0.,0.,0.,0.,0.,0.,0.,0.,0.,0.,0.,0.,0.,0.,0.,0.,0.,0.,0.,0.,0.,0.,0.,0
 .,0.,0.,0.,0.,0.,0.,0.,0.,0.,0.,0.,0.,0.,0.,0.,0.,0.,0.,0.,0.,0.,0.,0.
 ,0.,0.,0.,0.,0.,0.,0.,0.,0.,0.,0.,0.,0.,0.,0.,0.,0.,0.,0.,0.,0.,0.,0.,
 0.,0.,0.,0.,0.,0.,0.,0.,0.,0.,0.,0.,0.,0.,0.,0.,0.,0.,0.,0.,0.,0.,0.,0
 .,0.,0.,0.,0.,0.,0.,0.,0.,0.,0.,0.,0.,0.,0.,0.,0.,-0.02941903,-0.00166
 230,-0.03715358,0.02032844,0.00267366,0.00260401,0.01191615,0.00145699
 ,0.00225349,0.01964853,0.00198200,0.04415533||0.,0.,0.,0.,0.,0.,0.,0.,
 0.,0.,0.,0.,0.,0.,0.,0.,0.,0.,0.,0.,0.,0.,0.,0.,0.,0.,0.,0.,0.,0.,0.,0
 .,0.,0.,0.,0.,0.,0.,0.,0.,0.,0.,0.,0.,0.,0.,0.,0.,0.,0.,0.,0.,0.,0.,0.
 ,0.,0.,0.,0.,0.,0.,0.,0.,0.,0.,0.,0.,0.,0.,0.,0.,0.,0.,0.,0.,0.,0.,0.,
 0.,0.,0.,0.,0.,0.,0.,0.,0.,0.,0.,0.,0.,0.,0.,0.,0.,0.,0.,0.,0.,0.,0.,0
 .,0.,0.,0.,0.,0.,0.,0.,0.,0.,0.,0.,0.,0.,0.,0.,0.,0.,0.,0.,0.,0.,0.,0.
 ,0.,0.,0.,0.,0.,0.,0.,0.,0.,0.,0.,0.,0.,0.,0.,0.,0.,0.,0.,-0.00634609,
 0.00194693,-0.01938136,0.00349462,0.01030170,-0.00797116,0.00711409,-0
 .00955293,-0.00256531,-0.01248049,-0.00129000,-0.00166766|||@


 COMMON SENSE IS NOT SO COMMON.   -- VOLTAIRE
 Job cpu time:       0 days  0 hours 15 minutes 36.0 seconds.
 File lengths (MBytes):  RWF=   2802 Int=      0 D2E=      0 Chk=     17 Scr=      1
 Normal termination of Gaussian 09 at Mon Dec 23 20:27:17 2024.
