 Entering Link 1 = C:\G09W\l1.exe PID=     26956.
  
 Copyright (c) 1988,1990,1992,1993,1995,1998,2003,2009,2013,
            Gaussian, Inc.  All Rights Reserved.
  
 This is part of the Gaussian(R) 09 program.  It is based on
 the Gaussian(R) 03 system (copyright 2003, Gaussian, Inc.),
 the Gaussian(R) 98 system (copyright 1998, Gaussian, Inc.),
 the Gaussian(R) 94 system (copyright 1995, Gaussian, Inc.),
 the Gaussian 92(TM) system (copyright 1992, Gaussian, Inc.),
 the Gaussian 90(TM) system (copyright 1990, Gaussian, Inc.),
 the Gaussian 88(TM) system (copyright 1988, Gaussian, Inc.),
 the Gaussian 86(TM) system (copyright 1986, Carnegie Mellon
 University), and the Gaussian 82(TM) system (copyright 1983,
 Carnegie Mellon University). Gaussian is a federally registered
 trademark of Gaussian, Inc.
  
 This software contains proprietary and confidential information,
 including trade secrets, belonging to Gaussian, Inc.
  
 This software is provided under written license and may be
 used, copied, transmitted, or stored only in accord with that
 written license.
  
 The following legend is applicable only to US Government
 contracts under FAR:
  
                    RESTRICTED RIGHTS LEGEND
  
 Use, reproduction and disclosure by the US Government is
 subject to restrictions as set forth in subparagraphs (a)
 and (c) of the Commercial Computer Software - Restricted
 Rights clause in FAR 52.227-19.
  
 Gaussian, Inc.
 340 Quinnipiac St., Bldg. 40, Wallingford CT 06492
  
  
 ---------------------------------------------------------------
 Warning -- This program may not be used in any manner that
 competes with the business of Gaussian, Inc. or will provide
 assistance to any competitor of Gaussian, Inc.  The licensee
 of this program is prohibited from giving any competitor of
 Gaussian, Inc. access to this program.  By using this program,
 the user acknowledges that Gaussian, Inc. is engaged in the
 business of creating and licensing software in the field of
 computational chemistry and represents and warrants to the
 licensee that it is not a competitor of Gaussian, Inc. and that
 it will not use this program in any manner prohibited above.
 ---------------------------------------------------------------
  

 Cite this work as:
 Gaussian 09, Revision D.01,
 M. J. Frisch, G. W. Trucks, H. B. Schlegel, G. E. Scuseria, 
 M. A. Robb, J. R. Cheeseman, G. Scalmani, V. Barone, B. Mennucci, 
 G. A. Petersson, H. Nakatsuji, M. Caricato, X. Li, H. P. Hratchian, 
 A. F. Izmaylov, J. Bloino, G. Zheng, J. L. Sonnenberg, M. Hada, 
 M. Ehara, K. Toyota, R. Fukuda, J. Hasegawa, M. Ishida, T. Nakajima, 
 Y. Honda, O. Kitao, H. Nakai, T. Vreven, J. A. Montgomery, Jr., 
 J. E. Peralta, F. Ogliaro, M. Bearpark, J. J. Heyd, E. Brothers, 
 K. N. Kudin, V. N. Staroverov, T. Keith, R. Kobayashi, J. Normand, 
 K. Raghavachari, A. Rendell, J. C. Burant, S. S. Iyengar, J. Tomasi, 
 M. Cossi, N. Rega, J. M. Millam, M. Klene, J. E. Knox, J. B. Cross, 
 V. Bakken, C. Adamo, J. Jaramillo, R. Gomperts, R. E. Stratmann, 
 O. Yazyev, A. J. Austin, R. Cammi, C. Pomelli, J. W. Ochterski, 
 R. L. Martin, K. Morokuma, V. G. Zakrzewski, G. A. Voth, 
 P. Salvador, J. J. Dannenberg, S. Dapprich, A. D. Daniels, 
 O. Farkas, J. B. Foresman, J. V. Ortiz, J. Cioslowski, 
 and D. J. Fox, Gaussian, Inc., Wallingford CT, 2013.
 
 ******************************************
 Gaussian 09:  IA32W-G09RevD.01 24-Apr-2013
                05-Jan-2025 
 ******************************************
 %nprocshared=2
 Will use up to    2 processors via shared memory.
 %mem=1GB
 %chk=G:\My Drive\Boro Kaaz\Rh doped MoS2\CO\Rh doped MoS2+CO_freq.chk
 ------------------------------------------------
 # freq pm6 guess=huckel scf=qc geom=connectivity
 ------------------------------------------------
 1/10=4,30=1,38=1,57=2/1,3;
 2/12=2,17=6,18=5,40=1/2;
 3/5=2,16=1,25=1,41=3900000,71=2,140=1/1,2,3;
 4/11=4,35=1/1;
 5/5=2,8=3,35=1,38=5,98=1/8;
 8/6=4,10=90,11=11/1;
 11/6=1,8=1,9=11,15=111,16=1/1,2,10;
 10/6=1/2;
 6/7=2,8=2,9=2,10=2,18=1,28=1/1;
 7/8=1,10=1,25=1/1,2,3,16;
 1/10=4,30=1/3;
 99//99;
 --------------------
 Rh doped MoS2+CO gas
 --------------------
 Symbolic Z-matrix:
 Charge =  0 Multiplicity = 2
 Mo                   -1    0.59712   1.13776  -0.19179 
 S                    -1   -0.67602   2.21974   1.55464 
 S                    -1   -1.40923   1.65675  -1.43549 
 Mo                   -1    3.67988   1.34472  -0.98667 
 Mo                   -1    6.76264   1.55169  -1.78156 
 Mo                   -1    9.84541   1.75865  -2.57645 
 S                    -1    2.40674   2.4267    0.75975 
 S                    -1    5.48951   2.63367  -0.03513 
 S                    -1    8.57227   2.84063  -0.83002 
 S                    -1    1.67354   1.86372  -2.23038 
 S                    -1    4.7563    2.07068  -3.02527 
 S                    -1    7.83907   2.27765  -3.82015 
 Mo                   -1   -1.23934   3.74619  -0.23259 
 Mo                   -1   -3.07579   6.35461  -0.2734 
 Mo                   -1   -4.91224   8.96304  -0.3142 
 S                    -1   -2.51247   4.82817   1.51384 
 S                    -1   -4.34892   7.43659   1.47303 
 S                    -1   -6.18537   10.04502   1.43223 
 S                    -1   -3.24568   4.26518  -1.4763 
 S                    -1   -5.08213   6.87361  -1.5171 
 S                    -1   -6.91858   9.48204  -1.55791 
 Mo                   -1    1.84343   3.95315  -1.02748 
 Mo                   -1    0.00698   6.56158  -1.06828 
 Mo                   -1   -1.82947   9.17001  -1.10909 
 Mo                   -1    4.92619   4.16011  -1.82237 
 Mo                   -1    1.25329   9.37697  -1.90397 
 Mo                   -1    8.00896   4.36708  -2.61725 
 Mo                   -1    6.17251   6.97551  -2.65806 
 Mo                   -1    4.33605   9.58394  -2.69886 
 S                    -1    0.57029   5.03513   0.71895 
 S                    -1   -1.26616   7.64356   0.67815 
 S                    -1   -3.10261   10.25199   0.63734 
 S                    -1    3.65306   5.2421   -0.07594 
 S                    -1    1.81661   7.85052  -0.11674 
 S                    -1   -0.01984   10.45895  -0.15755 
 S                    -1    6.73582   5.44906  -0.87082 
 S                    -1    4.89937   8.05749  -0.91163 
 S                    -1    3.06292   10.66592  -0.95243 
 S                    -1   -0.16291   4.47215  -2.27118 
 S                    -1   -1.99936   7.08057  -2.31199 
 S                    -1   -3.83581   9.689    -2.35279 
 S                    -1    2.91985   4.67911  -3.06607 
 S                    -1    1.0834    7.28754  -3.10688 
 S                    -1   -0.75305   9.89597  -3.14768 
 S                    -1    6.00262   4.88607  -3.86096 
 S                    -1    4.16616   7.4945   -3.90176 
 S                    -1    2.32971   10.10293  -3.94257 
 Rh                   -1    3.08974   6.76854  -1.86317 
 O                    0     3.97211   5.59962   1.65911 
 C                    0     2.98738   6.10658   1.82555 
 

 GradGradGradGradGradGradGradGradGradGradGradGradGradGradGradGradGradGrad
 Berny optimization.
 Initialization pass.
 Trust Radius=3.00D-01 FncErr=1.00D-07 GrdErr=1.00D-07
 Number of steps in this run=      2 maximum allowed number of steps=      2.
 GradGradGradGradGradGradGradGradGradGradGradGradGradGradGradGradGradGrad

                          Input orientation:                          
 ---------------------------------------------------------------------
 Center     Atomic      Atomic             Coordinates (Angstroms)
 Number     Number       Type             X           Y           Z
 ---------------------------------------------------------------------
      1         42           0        0.597115    1.137757   -0.191787
      2         16           0       -0.676020    2.219738    1.554642
      3         16           0       -1.409226    1.656752   -1.435493
      4         42           0        3.679879    1.344722   -0.986674
      5         42           0        6.762643    1.551687   -1.781561
      6         42           0        9.845408    1.758652   -2.576448
      7         16           0        2.406744    2.426703    0.759755
      8         16           0        5.489508    2.633667   -0.035132
      9         16           0        8.572272    2.840632   -0.830019
     10         16           0        1.673538    1.863717   -2.230380
     11         16           0        4.756302    2.070682   -3.025267
     12         16           0        7.839066    2.277646   -3.820154
     13         42           0       -1.239336    3.746185   -0.232591
     14         42           0       -3.075786    6.354613   -0.273395
     15         42           0       -4.912237    8.963042   -0.314200
     16         16           0       -2.512471    4.828166    1.513838
     17         16           0       -4.348922    7.436594    1.473033
     18         16           0       -6.185373   10.045022    1.432229
     19         16           0       -3.245677    4.265180   -1.476298
     20         16           0       -5.082128    6.873608   -1.517102
     21         16           0       -6.918579    9.482037   -1.557906
     22         42           0        1.843429    3.953150   -1.027478
     23         42           0        0.006978    6.561578   -1.068282
     24         42           0       -1.829473    9.170006   -1.109087
     25         42           0        4.926193    4.160115   -1.822365
     26         42           0        1.253291    9.376971   -1.903974
     27         42           0        8.008957    4.367080   -2.617252
     28         42           0        6.172506    6.975508   -2.658057
     29         42           0        4.336055    9.583936   -2.698861
     30         16           0        0.570293    5.035131    0.718951
     31         16           0       -1.266158    7.643559    0.678146
     32         16           0       -3.102609   10.251987    0.637342
     33         16           0        3.653057    5.242096   -0.075937
     34         16           0        1.816606    7.850524   -0.116741
     35         16           0       -0.019844   10.458952   -0.157545
     36         16           0        6.735821    5.449060   -0.870824
     37         16           0        4.899371    8.057488   -0.911628
     38         16           0        3.062920   10.665917   -0.952432
     39         16           0       -0.162913    4.472145   -2.271185
     40         16           0       -1.999364    7.080573   -2.311989
     41         16           0       -3.835815    9.689001   -2.352793
     42         16           0        2.919851    4.679110   -3.066072
     43         16           0        1.083400    7.287538   -3.106876
     44         16           0       -0.753051    9.895966   -3.147680
     45         16           0        6.002615    4.886075   -3.860959
     46         16           0        4.166164    7.494503   -3.901763
     47         16           0        2.329713   10.102931   -3.942568
     48         45           0        3.089742    6.768543   -1.863169
     49          8           0        3.972111    5.599622    1.659108
     50          6           0        2.987380    6.106576    1.825548
 ---------------------------------------------------------------------
                    Distance matrix (angstroms):
                    1          2          3          4          5
     1  Mo   0.000000
     2  S    2.416934   0.000000
     3  S    2.416934   3.129769   0.000000
     4  Mo   3.190316   5.118378   5.118378   0.000000
     5  Mo   6.380631   8.179869   8.179869   3.190316   0.000000
     6  Mo   9.570947  11.312778  11.312778   6.380631   3.190316
     7  S    2.416934   3.190316   4.469180   2.416934   5.118378
     8  S    5.118378   6.380631   7.106892   2.416934   2.416934
     9  S    8.179869   9.570947  10.069681   5.118378   2.416934
    10  S    2.416934   4.469180   3.190316   2.416934   5.118378
    11  S    5.118378   7.106892   6.380631   2.416934   2.416934
    12  S    8.179869  10.069681   9.570947   5.118378   2.416934
    13  Mo   3.190316   2.416934   2.416934   5.525789   8.440782
    14  Mo   6.380631   5.118378   5.118378   8.440782  11.051578
    15  Mo   9.570947   8.179869   8.179869  11.502847  13.906264
    16  S    5.118378   3.190316   4.469180   7.532074  10.374137
    17  S    8.179869   6.380631   7.106892  10.374137  12.988125
    18  S   11.312778   9.570947  10.069681  13.374211  15.815066
    19  S    5.118378   4.469180   3.190316   7.532074  10.374137
    20  S    8.179869   7.106892   6.380631  10.374137  12.988125
    21  S   11.312778  10.069681   9.570947  13.374211  15.815066
    22  Mo   3.190316   4.002460   4.002460   3.190316   5.525789
    23  Mo   5.525789   5.118378   5.118378   6.380631   8.440782
    24  Mo   8.440782   7.532074   7.532074   9.570947  11.502847
    25  Mo   5.525789   6.823051   6.823051   3.190316   3.190316
    26  Mo   8.440782   8.179869   8.179869   8.440782   9.570947
    27  Mo   8.440782   9.871403   9.871403   5.525789   3.190316
    28  Mo   8.440782   9.341653   9.341653   6.380631   5.525789
    29  Mo   9.570947   9.871403   9.871403   8.440782   8.440782
    30  S    4.002460   3.190316   4.469180   5.118378   7.532074
    31  S    6.823051   5.525789   6.350574   8.179869  10.374137
    32  S    9.871403   8.440782   9.002347  11.312778  13.374211
    33  S    5.118378   5.525789   6.350574   4.002460   5.118378
    34  S    6.823051   6.380631   7.106892   6.823051   8.179869
    35  S    9.341653   8.440782   9.002347   9.871403  11.312778
    36  S    7.532074   8.440782   9.002347   5.118378   4.002460
    37  S    8.179869   8.440782   9.002347   6.823051   6.823051
    38  S    9.871403   9.570947  10.069681   9.341653   9.871403
    39  S    4.002460   4.469180   3.190316   5.118378   7.532074
    40  S    6.823051   6.350574   5.525789   8.179869  10.374137
    41  S    9.871403   9.002347   8.440782  11.312778  13.374211
    42  S    5.118378   6.350574   5.525789   4.002460   5.118378
    43  S    6.823051   7.106892   6.380631   6.823051   8.179869
    44  S    9.341653   9.002347   8.440782   9.871403  11.312778
    45  S    7.532074   9.002347   8.440782   5.118378   4.002460
    46  S    8.179869   9.002347   8.440782   6.823051   6.823051
    47  S    9.871403  10.069681   9.570947   9.341653   9.871403
    48  Rh   6.380631   6.823051   6.823051   5.525789   6.380631
    49  O    5.892762   5.748013   7.354017   5.018937   6.000921
    50  C    5.871300   5.348028   7.054464   5.573455   6.928987
                    6          7          8          9         10
     6  Mo   0.000000
     7  S    8.179869   0.000000
     8  S    5.118378   3.190316   0.000000
     9  S    2.416934   6.380631   3.190316   0.000000
    10  S    8.179869   3.129769   4.469180   7.106892   0.000000
    11  S    5.118378   4.469180   3.129769   4.469180   3.190316
    12  S    2.416934   7.106892   4.469180   3.129769   6.380631
    13  Mo  11.502847   4.002460   6.823051   9.871403   4.002460
    14  Mo  13.906264   6.823051   9.341653  12.179293   6.823051
    15  Mo  16.577367   9.871403  12.179293  14.818298   9.871403
    16  S   13.374211   5.525789   8.440782  11.502847   6.350574
    17  S   15.815066   8.440782  11.051578  13.906264   9.002347
    18  S   18.485652  11.502847  13.906264  16.577367  11.921029
    19  S   13.374211   6.350574   9.002347  11.921029   5.525789
    20  S   15.815066   9.002347  11.486201  14.254109   8.440782
    21  S   18.485652  11.921029  14.254109  16.870226  11.502847
    22  Mo   8.440782   2.416934   4.002460   6.823051   2.416934
    23  Mo  11.051578   5.118378   6.823051   9.341653   5.118378
    24  Mo  13.906264   8.179869   9.871403  12.179293   8.179869
    25  Mo   5.525789   4.002460   2.416934   4.002460   4.002460
    26  Mo  11.502847   7.532074   8.179869   9.871403   7.532074
    27  Mo   3.190316   6.823051   4.002460   2.416934   6.823051
    28  Mo   6.380631   6.823051   5.118378   5.118378   6.823051
    29  Mo   9.570947   8.179869   7.532074   8.179869   8.179869
    30  S   10.374137   3.190316   5.525789   8.440782   4.469180
    31  S   12.988125   6.380631   8.440782  11.051578   7.106892
    32  S   15.815066   9.570947  11.502847  13.906264  10.069681
    33  S    7.532074   3.190316   3.190316   5.525789   4.469180
    34  S   10.374137   5.525789   6.380631   8.440782   6.350574
    35  S   13.374211   8.440782   9.570947  11.502847   9.002347
    36  S    5.118378   5.525789   3.190316   3.190316   6.350574
    37  S    8.179869   6.380631   5.525789   6.380631   7.106892
    38  S   11.312778   8.440782   8.440782   9.570947   9.002347
    39  S   10.374137   4.469180   6.350574   9.002347   3.190316
    40  S   12.988125   7.106892   9.002347  11.486201   6.380631
    41  S   15.815066  10.069681  11.921029  14.254109   9.570947
    42  S    7.532074   4.469180   4.469180   6.350574   3.190316
    43  S   10.374137   6.350574   7.106892   9.002347   5.525789
    44  S   13.374211   9.002347  10.069681  11.921029   8.440782
    45  S    5.118378   6.350574   4.469180   4.469180   5.525789
    46  S    8.179869   7.106892   6.350574   7.106892   6.380631
    47  S   11.312778   9.002347   9.002347  10.069681   8.440782
    48  Rh   8.440782   5.118378   5.118378   6.823051   5.118378
    49  O    8.196865   3.650565   3.737623   5.913481   5.862469
    50  C    9.236588   3.874858   4.667319   6.993529   6.014864
                   11         12         13         14         15
    11  S    0.000000
    12  S    3.190316   0.000000
    13  Mo   6.823051   9.871403   0.000000
    14  Mo   9.341653  12.179293   3.190316   0.000000
    15  Mo  12.179293  14.818298   6.380631   3.190316   0.000000
    16  S    9.002347  11.921029   2.416934   2.416934   5.118378
    17  S   11.486201  14.254109   5.118378   2.416934   2.416934
    18  S   14.254109  16.870226   8.179869   5.118378   2.416934
    19  S    8.440782  11.502847   2.416934   2.416934   5.118378
    20  S   11.051578  13.906264   5.118378   2.416934   2.416934
    21  S   13.906264  16.577367   8.179869   5.118378   2.416934
    22  Mo   4.002460   6.823051   3.190316   5.525789   8.440782
    23  Mo   6.823051   9.341653   3.190316   3.190316   5.525789
    24  Mo   9.871403  12.179293   5.525789   3.190316   3.190316
    25  Mo   2.416934   4.002460   6.380631   8.440782  11.051578
    26  Mo   8.179869   9.871403   6.380631   5.525789   6.380631
    27  Mo   4.002459   2.416934   9.570947  11.502847  13.906264
    28  Mo   5.118378   5.118378   8.440782   9.570947  11.502847
    29  Mo   7.532074   8.179869   8.440782   8.440782   9.570947
    30  S    6.350574   9.002347   2.416934   4.002460   6.823051
    31  S    9.002347  11.486201   4.002460   2.416934   4.002460
    32  S   11.921029  14.254109   6.823051   4.002460   2.416934
    33  S    4.469180   6.350574   5.118378   6.823051   9.341653
    34  S    7.106892   9.002347   5.118378   5.118378   6.823051
    35  S   10.069681  11.921029   6.823051   5.118378   5.118378
    36  S    4.469180   4.469180   8.179869   9.871403  12.179293
    37  S    6.350574   7.106892   7.532074   8.179869   9.871403
    38  S    9.002347  10.069681   8.179869   7.532074   8.179869
    39  S    5.525789   8.440782   2.416934   4.002460   6.823051
    40  S    8.440782  11.051578   4.002460   2.416934   4.002460
    41  S   11.502847  13.906264   6.823051   4.002460   2.416934
    42  S    3.190316   5.525789   5.118378   6.823051   9.341653
    43  S    6.380631   8.440782   5.118378   5.118378   6.823051
    44  S    9.570947  11.502847   6.823051   5.118378   5.118378
    45  S    3.190316   3.190316   8.179869   9.871403  12.179293
    46  S    5.525789   6.380631   7.532074   8.179869   9.871403
    47  S    8.440782   9.570947   8.179869   7.532074   8.179869
    48  Rh   5.118378   6.823051   5.525789   6.380631   8.440782
    49  O    5.917072   7.484062   5.845761   7.346934   9.702483
    50  C    6.553468   8.370992   5.260466   6.420987   8.668441
                   16         17         18         19         20
    16  S    0.000000
    17  S    3.190316   0.000000
    18  S    6.380631   3.190316   0.000000
    19  S    3.129769   4.469180   7.106892   0.000000
    20  S    4.469180   3.129769   4.469180   3.190316   0.000000
    21  S    7.106892   4.469180   3.129769   6.380631   3.190316
    22  Mo   5.118378   7.532074  10.374137   5.118378   7.532074
    23  Mo   4.002460   5.118378   7.532074   4.002460   5.118378
    24  Mo   5.118378   4.002460   5.118378   5.118378   4.002460
    25  Mo   8.179869  10.374137  12.988125   8.179869  10.374137
    26  Mo   6.823051   6.823051   8.179869   6.823051   6.823051
    27  Mo  11.312778  13.374211  15.815066  11.312778  13.374211
    28  Mo   9.871403  11.312778  13.374211   9.871403  11.312778
    29  Mo   9.341653   9.871403  11.312778   9.341653   9.871403
    30  S    3.190316   5.525789   8.440782   4.469180   6.350574
    31  S    3.190316   3.190316   5.525789   4.469180   4.469180
    32  S    5.525789   3.190316   3.190316   6.350574   4.469180
    33  S    6.380631   8.440782  11.051578   7.106892   9.002347
    34  S    5.525789   6.380631   8.440782   6.350574   7.106892
    35  S    6.380631   5.525789   6.380631   7.106892   6.350574
    36  S    9.570947  11.502847  13.906264  10.069681  11.921029
    37  S    8.440782   9.570947  11.502847   9.002347  10.069681
    38  S    8.440782   8.440782   9.570947   9.002347   9.002347
    39  S    4.469180   6.350574   9.002347   3.190316   5.525789
    40  S    4.469180   4.469180   6.350574   3.190316   3.190316
    41  S    6.350574   4.469180   4.469180   5.525789   3.190316
    42  S    7.106892   9.002347  11.486201   6.380631   8.440782
    43  S    6.350574   7.106892   9.002347   5.525789   6.380631
    44  S    7.106892   6.350574   7.106892   6.380631   5.525789
    45  S   10.069681  11.921029  14.254109   9.570947  11.502847
    46  S    9.002347  10.069681  11.921029   8.440782   9.570947
    47  S    9.002347   9.002347  10.069681   8.440782   8.440782
    48  Rh   6.823051   8.179869  10.374137   6.823051   8.179869
    49  O    6.531925   8.523419  11.089974   7.981727   9.679390
    50  C    5.655073   7.464217   9.990268   7.289988   8.768044
                   21         22         23         24         25
    21  S    0.000000
    22  Mo  10.374137   0.000000
    23  Mo   7.532074   3.190316   0.000000
    24  Mo   5.118378   6.380631   3.190316   0.000000
    25  Mo  12.988125   3.190316   5.525789   8.440782   0.000000
    26  Mo   8.179869   5.525789   3.190316   3.190316   6.380631
    27  Mo  15.815066   6.380631   8.440782  11.051578   3.190316
    28  Mo  13.374211   5.525789   6.380631   8.440782   3.190316
    29  Mo  11.312778   6.380631   5.525789   6.380631   5.525789
    30  S    9.002347   2.416934   2.416934   5.118378   5.118378
    31  S    6.350574   5.118378   2.416934   2.416934   7.532074
    32  S    4.469180   8.179869   5.118378   2.416934  10.374137
    33  S   11.486201   2.416934   4.002460   6.823051   2.416934
    34  S    9.002347   4.002460   2.416934   4.002460   5.118378
    35  S    7.106892   6.823051   4.002460   2.416934   8.179869
    36  S   14.254109   5.118378   6.823051   9.341653   2.416934
    37  S   11.921029   5.118378   5.118378   6.823051   4.002460
    38  S   10.069681   6.823051   5.118378   5.118378   6.823051
    39  S    8.440782   2.416934   2.416934   5.118378   5.118378
    40  S    5.525789   5.118378   2.416934   2.416934   7.532074
    41  S    3.190316   8.179869   5.118378   2.416934  10.374137
    42  S   11.051578   2.416934   4.002460   6.823051   2.416934
    43  S    8.440782   4.002460   2.416934   4.002460   5.118378
    44  S    6.380631   6.823051   4.002460   2.416934   8.179869
    45  S   13.906264   5.118378   6.823051   9.341653   2.416934
    46  S   11.502847   5.118378   5.118378   6.823051   4.002460
    47  S    9.570947   6.823051   5.118378   5.118378   6.823051
    48  Rh  10.374137   3.190316   3.190316   5.525789   3.190316
    49  O   12.001227   3.802618   4.907780   7.353158   3.886272
    50  C   10.998614   3.753082   4.179005   6.418626   4.566725
                   26         27         28         29         30
    26  Mo   0.000000
    27  Mo   8.440782   0.000000
    28  Mo   5.525789   3.190316   0.000000
    29  Mo   3.190316   6.380631   3.190316   0.000000
    30  S    5.118378   8.179869   6.823051   6.823051   0.000000
    31  S    4.002460  10.374137   8.179869   6.823051   3.190316
    32  S    5.118378  12.988125  10.374137   8.179869   6.380631
    33  S    5.118378   5.118378   4.002460   5.118378   3.190316
    34  S    2.416934   7.532074   5.118378   4.002460   3.190316
    35  S    2.416934  10.374137   7.532074   5.118378   5.525789
    36  S    6.823051   2.416934   2.416934   5.118378   6.380631
    37  S    4.002460   5.118378   2.416934   2.416934   5.525789
    38  S    2.416934   8.179869   5.118378   2.416934   6.380631
    39  S    5.118378   8.179869   6.823051   6.823051   3.129769
    40  S    4.002460  10.374137   8.179869   6.823051   4.469180
    41  S    5.118378  12.988125  10.374137   8.179869   7.106892
    42  S    5.118378   5.118378   4.002459   5.118378   4.469180
    43  S    2.416934   7.532074   5.118378   4.002460   4.469180
    44  S    2.416934  10.374137   7.532074   5.118378   6.350574
    45  S    6.823051   2.416934   2.416934   5.118378   7.106892
    46  S    4.002460   5.118378   2.416934   2.416934   6.350574
    47  S    2.416934   8.179869   5.118378   2.416934   7.106892
    48  Rh   3.190316   5.525789   3.190316   3.190316   4.002459
    49  O    5.861391   6.008539   5.037133   5.916005   3.574201
    50  C    5.254701   6.926800   5.568014   5.863551   2.866158
                   31         32         33         34         35
    31  S    0.000000
    32  S    3.190316   0.000000
    33  S    5.525789   8.440782   0.000000
    34  S    3.190316   5.525789   3.190316   0.000000
    35  S    3.190316   3.190316   6.380631   3.190316   0.000000
    36  S    8.440782  11.051578   3.190316   5.525789   8.440782
    37  S    6.380631   8.440782   3.190316   3.190316   5.525789
    38  S    5.525789   6.380631   5.525789   3.190316   3.190316
    39  S    4.469180   7.106892   4.469180   4.469180   6.350574
    40  S    3.129769   4.469180   6.350574   4.469180   4.469180
    41  S    4.469180   3.129769   9.002347   6.350574   4.469180
    42  S    6.350574   9.002347   3.129769   4.469180   7.106892
    43  S    4.469180   6.350574   4.469180   3.129769   4.469180
    44  S    4.469180   4.469180   7.106892   4.469180   3.129769
    45  S    9.002347  11.486201   4.469180   6.350574   9.002347
    46  S    7.106892   9.002347   4.469180   4.469180   6.350574
    47  S    6.350574   7.106892   6.350574   4.469180   4.469180
    48  Rh   5.118378   7.532074   2.416934   2.416934   5.118378
    49  O    5.707839   8.528785   1.800000   3.586976   6.545917
    50  C    4.665986   7.462186   2.192281   2.860865   5.649711
                   36         37         38         39         40
    36  S    0.000000
    37  S    3.190316   0.000000
    38  S    6.380631   3.190316   0.000000
    39  S    7.106892   6.350574   7.106892   0.000000
    40  S    9.002347   7.106892   6.350574   3.190316   0.000000
    41  S   11.486201   9.002347   7.106892   6.380631   3.190316
    42  S    4.469180   4.469180   6.350574   3.190316   5.525789
    43  S    6.350574   4.469180   4.469180   3.190316   3.190316
    44  S    9.002347   6.350574   4.469180   5.525789   3.190316
    45  S    3.129769   4.469180   7.106892   6.380631   8.440782
    46  S    4.469180   3.129769   4.469180   5.525789   6.380631
    47  S    7.106892   4.469180   3.129769   6.380631   5.525789
    48  Rh   4.002460   2.416934   4.002460   4.002460   5.118378
    49  O    3.749842   3.675541   5.771838   5.815224   7.322659
    50  C    4.664071   3.867027   5.339519   5.420233   6.552518
                   41         42         43         44         45
    41  S    0.000000
    42  S    8.440782   0.000000
    43  S    5.525789   3.190316   0.000000
    44  S    3.190316   6.380631   3.190316   0.000000
    45  S   11.051578   3.190316   5.525789   8.440782   0.000000
    46  S    8.440782   3.190316   3.190316   5.525789   3.190316
    47  S    6.380631   5.525789   3.190316   3.190316   6.380631
    48  Rh   7.532074   2.416934   2.416934   5.118378   4.002460
    49  O    9.684115   4.927668   5.823085   7.993181   5.924798
    50  C    8.766316   5.096093   5.417436   7.285829   6.551155
                   46         47         48         49         50
    46  S    0.000000
    47  S    3.190316   0.000000
    48  Rh   2.416934   4.002460   0.000000
    49  O    5.878054   7.372655   3.814629   0.000000
    50  C    6.009822   7.048016   3.749042   1.120000   0.000000
 Stoichiometry    CMo15ORhS32(2)
 Framework group  C1[X(CMo15ORhS32)]
 Deg. of freedom   144
 Full point group                 C1      NOp   1
 Largest Abelian subgroup         C1      NOp   1
 Largest concise Abelian subgroup C1      NOp   1
                         Standard orientation:                         
 ---------------------------------------------------------------------
 Center     Atomic      Atomic             Coordinates (Angstroms)
 Number     Number       Type             X           Y           Z
 ---------------------------------------------------------------------
      1         42           0       -0.780195    4.789557   -0.041508
      2         16           0        1.058028    4.789272    1.527729
      3         16           0        1.065431    4.789024   -1.602031
      4         42           0       -3.543436    3.195012   -0.047918
      5         42           0       -6.306677    1.600467   -0.054328
      6         42           0       -9.069918    0.005923   -0.060738
      7         16           0       -1.705213    3.194727    1.521319
      8         16           0       -4.468454    1.600182    1.514909
      9         16           0       -7.231695    0.005638    1.508499
     10         16           0       -1.697810    3.194479   -1.608441
     11         16           0       -4.461051    1.599935   -1.614851
     12         16           0       -7.224292    0.005390   -1.621261
     13         42           0        1.982337    3.193786   -0.034847
     14         42           0        4.744870    1.598014   -0.028186
     15         42           0        7.507402    0.002243   -0.021525
     16         16           0        3.820560    3.193501    1.534390
     17         16           0        6.583092    1.597730    1.541051
     18         16           0        9.345625    0.001959    1.547711
     19         16           0        3.827963    3.193253   -1.595370
     20         16           0        6.590496    1.597482   -1.588709
     21         16           0        9.353028    0.001711   -1.582048
     22         42           0       -0.780904    1.599241   -0.041257
     23         42           0        1.981629    0.003470   -0.034596
     24         42           0        4.744161   -1.592301   -0.027935
     25         42           0       -3.544145    0.004696   -0.047667
     26         42           0        1.980920   -3.186846   -0.034345
     27         42           0       -6.307386   -1.589848   -0.054077
     28         42           0       -3.544853   -3.185619   -0.047416
     29         42           0       -0.782321   -4.781390   -0.040755
     30         16           0        1.057319    1.598956    1.527980
     31         16           0        3.819851    0.003185    1.534641
     32         16           0        6.582384   -1.592586    1.541302
     33         16           0       -1.705922    0.004411    1.521570
     34         16           0        1.056610   -1.591360    1.528231
     35         16           0        3.819143   -3.187131    1.534892
     36         16           0       -4.469163   -1.590133    1.515160
     37         16           0       -1.706630   -3.185904    1.521821
     38         16           0        1.055902   -4.781675    1.528482
     39         16           0        1.064722    1.598708   -1.601780
     40         16           0        3.827255    0.002937   -1.595119
     41         16           0        6.589787   -1.592834   -1.588458
     42         16           0       -1.698519    0.004164   -1.608190
     43         16           0        1.064014   -1.591607   -1.601529
     44         16           0        3.826546   -3.187378   -1.594868
     45         16           0       -4.461760   -1.590381   -1.614600
     46         16           0       -1.699227   -3.186152   -1.607939
     47         16           0        1.063305   -4.781923   -1.601278
     48         45           0       -0.781612   -1.591075   -0.041006
     49          8           0       -1.602047    0.018868    3.318512
     50          6           0       -0.482433   -0.000468    3.340676
 ---------------------------------------------------------------------
 Rotational constants (GHZ):      0.0261777      0.0092932      0.0074268
 Standard basis: VSTO-6G (5D, 7F)
 There are   488 symmetry adapted cartesian basis functions of A   symmetry.
 There are   440 symmetry adapted basis functions of A   symmetry.
   440 basis functions,  2928 primitive gaussians,   488 cartesian basis functions
   151 alpha electrons      150 beta electrons
       nuclear repulsion energy      4323.7389141657 Hartrees.
 Integral buffers will be    262144 words long.
 Regular integral format.
 Two-electron integral symmetry is turned off.
 Do NDO integrals.
 One-electron integrals computed using PRISM.
 NBasis=   440 RedAO= F EigKep=  0.00D+00  NBF=   440
 NBsUse=   440 1.00D-04 EigRej=  0.00D+00 NBFU=   440
 Projected New-EHT guess.
 Enter ItEHT:  IZDO=4 IZDPar=0 Conv= 1.00D-06 N=  280
 It=   1                  EEH=  58.2465524835     EQH= 0.000000000000E+00 EH=  58.2465524835    
 Initial guess <Sx>= 0.0000 <Sy>= 0.0000 <Sz>= 0.5000 <S**2>= 0.7500 S= 0.5000
 Keep J ints in memory in canonical form, NReq=6411632.
 Gradient too large for Newton-Raphson or scaled steepest descent --
 use steepest descent instead.
     Note:  rotation exceeds Pi/2.
     Note:  rotation exceeds Pi/2.
     Note:  rotation exceeds Pi/2.
     Note:  rotation exceeds Pi/2.
     Note:  rotation exceeds Pi/2.
     Note:  rotation exceeds Pi/2.
     Note:  rotation exceeds Pi/2.
     Note:  rotation exceeds Pi/2.
     Note:  rotation exceeds Pi/2.
     Note:  rotation exceeds Pi/2.
     Note:  rotation exceeds Pi/2.
     Note:  rotation exceeds Pi/2.
     Note:  rotation exceeds Pi/2.
     Minimum is close to point 14 DX=  0.00D+00 DF=  0.00D+00 DXR=  0.00D+00 DFR=  0.00D+00 which will be used.
 Gradient too large for Newton-Raphson or scaled steepest descent --
 use steepest descent instead.
     Note:  rotation exceeds Pi/2.
     Accept linear search using points  3 and  4.
 Gradient too large for Newton-Raphson or scaled steepest descent --
 use steepest descent instead.
     Accept linear search using points  2 and  3.
 Gradient too large for Newton-Raphson or scaled steepest descent --
 use steepest descent instead.
 Gradient too large for Newton-Raphson or scaled steepest descent --
 use steepest descent instead.
     Accept linear search using points  1 and  2.
 Gradient too large for Newton-Raphson -- use scaled steepest descent instead.
 Gradient too large for Newton-Raphson -- use scaled steepest descent instead.
     Minimum is close to point  3 DX=  9.82D-03 DF= -7.99D-02 DXR=  8.94D-02 DFR=  8.05D-03 which will be used.
 Gradient too large for Newton-Raphson -- use scaled steepest descent instead.
     Accept linear search using points  1 and  2.
 Gradient too large for Newton-Raphson -- use scaled steepest descent instead.
     Minimum is close to point  6 DX= -1.16D-02 DF= -9.15D-03 DXR=  2.70D-02 DFR=  5.49D-04 which will be used.
 Gradient too large for Newton-Raphson -- use scaled steepest descent instead.
 Gradient too large for Newton-Raphson -- use scaled steepest descent instead.
     Minimum is close to point  3 DX= -1.08D-02 DF= -9.88D-03 DXR=  5.70D-02 DFR=  3.25D-03 which will be used.
 Gradient too large for Newton-Raphson -- use scaled steepest descent instead.
     Minimum is close to point  3 DX=  1.59D-03 DF= -6.88D-04 DXR=  1.60D-02 DFR=  2.56D-04 which will be used.
 Gradient too large for Newton-Raphson -- use scaled steepest descent instead.
     Minimum is close to point  3 DX=  1.02D-02 DF= -2.26D-03 DXR=  3.29D-02 DFR=  9.53D-04 which will be used.
 Gradient too large for Newton-Raphson -- use scaled steepest descent instead.
 Gradient too large for Newton-Raphson -- use scaled steepest descent instead.
     Minimum is close to point  2 DX=  2.59D-02 DF= -1.05D-02 DXR=  7.94D-02 DFR=  6.34D-03 which will be used.
 Gradient too large for Newton-Raphson -- use scaled steepest descent instead.
 Gradient too large for Newton-Raphson -- use scaled steepest descent instead.
 Gradient too large for Newton-Raphson -- use scaled steepest descent instead.
     Minimum is close to point  2 DX=  1.01D-02 DF= -2.84D-03 DXR=  4.83D-02 DFR=  2.33D-03 which will be used.
 Gradient too large for Newton-Raphson -- use scaled steepest descent instead.
 Gradient too large for Newton-Raphson -- use scaled steepest descent instead.
     Accept linear search using points  1 and  2.
 Gradient too large for Newton-Raphson -- use scaled steepest descent instead.
     Accept linear search using points  4 and  5.
 Gradient too large for Newton-Raphson -- use scaled steepest descent instead.
     Accept linear search using points  1 and  2.
 Gradient too large for Newton-Raphson -- use scaled steepest descent instead.
 Gradient too large for Newton-Raphson -- use scaled steepest descent instead.
     Accept linear search using points  1 and  2.
 Gradient too large for Newton-Raphson -- use scaled steepest descent instead.
     Minimum is close to point  4 DX=  6.20D-02 DF= -3.25D-04 DXR=  2.63D-02 DFR=  6.44D-04 which will be used.
 Gradient too large for Newton-Raphson -- use scaled steepest descent instead.
     Minimum is close to point  3 DX= -3.27D-02 DF= -2.71D-03 DXR=  8.90D-02 DFR=  7.98D-03 which will be used.
 Gradient too large for Newton-Raphson -- use scaled steepest descent instead.
     Accept linear search using points  1 and  2.
 Gradient too large for Newton-Raphson -- use scaled steepest descent instead.
     Minimum is close to point  2 DX=  4.79D-02 DF= -9.89D-04 DXR=  8.75D-02 DFR=  7.71D-03 which will be used.
 Gradient too large for Newton-Raphson -- use scaled steepest descent instead.
     Accept linear search using points  2 and  3.
 Gradient too large for Newton-Raphson -- use scaled steepest descent instead.
     Accept linear search using points  1 and  2.
 Gradient too large for Newton-Raphson -- use scaled steepest descent instead.
 Gradient too large for Newton-Raphson -- use scaled steepest descent instead.
     Minimum is close to point  3 DX=  2.92D-02 DF= -6.47D-04 DXR=  6.80D-02 DFR=  4.65D-03 which will be used.
 Gradient too large for Newton-Raphson -- use scaled steepest descent instead.
     Minimum is close to point  4 DX= -1.65D-01 DF= -4.38D-04 DXR=  4.67D-02 DFR=  2.27D-03 which will be used.
 Gradient too large for Newton-Raphson -- use scaled steepest descent instead.
     Minimum is close to point  3 DX=  7.22D-03 DF= -4.36D-05 DXR=  1.77D-02 DFR=  3.15D-04 which will be used.
 Gradient too large for Newton-Raphson -- use scaled steepest descent instead.
 Gradient too large for Newton-Raphson -- use scaled steepest descent instead.
     Minimum is close to point  3 DX=  1.21D-02 DF= -6.56D-05 DXR=  2.94D-02 DFR=  8.65D-04 which will be used.
 Gradient too large for Newton-Raphson -- use scaled steepest descent instead.
     Accept linear search using points  3 and  4.
 Gradient too large for Newton-Raphson -- use scaled steepest descent instead.
 Gradient too large for Newton-Raphson -- use scaled steepest descent instead.
     Minimum is close to point  3 DX=  7.35D-02 DF= -2.53D-05 DXR=  2.75D-02 DFR=  7.66D-04 which will be used.
 Gradient too large for Newton-Raphson -- use scaled steepest descent instead.
     Minimum is close to point  3 DX=  2.91D-02 DF= -1.23D-04 DXR=  6.77D-02 DFR=  4.61D-03 which will be used.
 Gradient too large for Newton-Raphson -- use scaled steepest descent instead.
     Minimum is close to point  4 DX=  3.95D-01 DF= -3.21D-04 DXR=  8.41D-02 DFR=  7.45D-03 which will be used.
 Gradient too large for Newton-Raphson -- use scaled steepest descent instead.
 Gradient too large for Newton-Raphson -- use scaled steepest descent instead.
 Gradient too large for Newton-Raphson -- use scaled steepest descent instead.
     Accept linear search using points  1 and  2.
 Gradient too large for Newton-Raphson -- use scaled steepest descent instead.
     Accept linear search using points  2 and  3.
 Gradient too large for Newton-Raphson -- use scaled steepest descent instead.
     Accept linear search using points  1 and  2.
 Gradient too large for Newton-Raphson -- use scaled steepest descent instead.
 Gradient too large for Newton-Raphson -- use scaled steepest descent instead.
 Gradient too large for Newton-Raphson -- use scaled steepest descent instead.
     Accept linear search using points  2 and  3.
     Minimum is close to point  3 DX= -9.91D-03 DF= -2.61D-07 DXR=  5.24D-03 DFR=  2.76D-05 which will be used.
 Gradient too large for Newton-Raphson -- use scaled steepest descent instead.
 Gradient too large for Newton-Raphson -- use scaled steepest descent instead.
     Minimum is close to point  3 DX=  7.77D-02 DF= -1.45D-05 DXR=  4.14D-02 DFR=  1.72D-03 which will be used.
 Gradient too large for Newton-Raphson -- use scaled steepest descent instead.
     Accept linear search using points  1 and  2.
 Gradient too large for Newton-Raphson -- use scaled steepest descent instead.
     Accept linear search using points  2 and  3.
     Minimum is close to point  3 DX= -1.47D-01 DF= -5.14D-05 DXR=  8.39D-02 DFR=  7.12D-03 which will be used.
 Gradient too large for Newton-Raphson -- use scaled steepest descent instead.
     Minimum is close to point  3 DX=  4.08D-02 DF= -6.71D-05 DXR=  9.26D-02 DFR=  8.65D-03 which will be used.
 Gradient too large for Newton-Raphson -- use scaled steepest descent instead.
     Minimum is close to point  5 DX= -2.48D-01 DF= -3.20D-05 DXR=  3.68D-02 DFR=  1.46D-03 which will be used.
 Gradient too large for Newton-Raphson -- use scaled steepest descent instead.
 Gradient too large for Newton-Raphson -- use scaled steepest descent instead.
 Gradient too large for Newton-Raphson -- use scaled steepest descent instead.
 Gradient too large for Newton-Raphson -- use scaled steepest descent instead.
 Gradient too large for Newton-Raphson -- use scaled steepest descent instead.
     Minimum is close to point  3 DX=  1.44D-02 DF= -8.38D-06 DXR=  3.48D-02 DFR=  1.21D-03 which will be used.
 Gradient too large for Newton-Raphson -- use scaled steepest descent instead.
     Accept linear search using points  3 and  4.
     Minimum is close to point  4 DX= -3.38D-01 DF= -5.84D-05 DXR=  7.74D-02 DFR=  7.78D-03 which will be used.
 Gradient too large for Newton-Raphson -- use scaled steepest descent instead.
 Gradient too large for Newton-Raphson -- use scaled steepest descent instead.
 Gradient too large for Newton-Raphson -- use scaled steepest descent instead.
     Accept linear search using points  1 and  2.
 Gradient too large for Newton-Raphson -- use scaled steepest descent instead.
     Accept linear search using points  2 and  3.
 Gradient too large for Newton-Raphson -- use scaled steepest descent instead.
     Accept linear search using points  1 and  2.
 Gradient too large for Newton-Raphson -- use scaled steepest descent instead.
 Gradient too large for Newton-Raphson -- use scaled steepest descent instead.
 Gradient too large for Newton-Raphson -- use scaled steepest descent instead.
     Minimum is close to point  3 DX=  6.53D-02 DF= -2.36D-06 DXR=  3.50D-02 DFR=  1.23D-03 which will be used.
 Gradient too large for Newton-Raphson -- use scaled steepest descent instead.
     Accept linear search using points  1 and  2.
 Gradient too large for Newton-Raphson -- use scaled steepest descent instead.
     Accept linear search using points  2 and  3.
     Minimum is close to point  3 DX= -6.31D-02 DF= -1.79D-06 DXR=  3.63D-02 DFR=  1.10D-03 which will be used.
 Gradient too large for Newton-Raphson -- use scaled steepest descent instead.
 Gradient too large for Newton-Raphson -- use scaled steepest descent instead.
     Minimum is close to point  3 DX=  5.14D-02 DF= -1.18D-06 DXR=  2.78D-02 DFR=  7.72D-04 which will be used.
 Gradient too large for Newton-Raphson -- use scaled steepest descent instead.
     Accept linear search using points  1 and  2.
 Gradient too large for Newton-Raphson -- use scaled steepest descent instead.
     Accept linear search using points  2 and  3.
     Minimum is close to point  3 DX= -3.12D-02 DF= -3.48D-07 DXR=  1.77D-02 DFR=  2.54D-04 which will be used.
 Gradient too large for Newton-Raphson -- use scaled steepest descent instead.
     Accept linear search using points  1 and  2.
 Gradient too large for Newton-Raphson -- use scaled steepest descent instead.
     Minimum is close to point  3 DX=  3.33D-02 DF= -4.38D-07 DXR=  1.82D-02 DFR=  3.31D-04 which will be used.
 Gradient too large for Newton-Raphson -- use scaled steepest descent instead.
     Accept linear search using points  1 and  2.
 Gradient too large for Newton-Raphson -- use scaled steepest descent instead.
     Accept linear search using points  2 and  3.
     Minimum is close to point  3 DX= -6.98D-03 DF= -1.52D-08 DXR=  3.90D-03 DFR=  1.21D-05 which will be used.
 Gradient too large for Newton-Raphson -- use scaled steepest descent instead.
     Accept linear search using points  1 and  2.
 Gradient too large for Newton-Raphson -- use scaled steepest descent instead.
     Minimum is close to point  3 DX=  2.36D-02 DF= -2.07D-07 DXR=  1.29D-02 DFR=  1.68D-04 which will be used.
 Gradient too large for Newton-Raphson -- use scaled steepest descent instead.
     Accept linear search using points  1 and  2.
 Gradient too large for Newton-Raphson -- use scaled steepest descent instead.
     Minimum is close to point  3 DX=  3.58D-03 DF= -4.74D-09 DXR=  1.98D-03 DFR=  3.94D-06 which will be used.
 Gradient too large for Newton-Raphson -- use scaled steepest descent instead.
     Accept linear search using points  1 and  2.
 Gradient too large for Newton-Raphson -- use scaled steepest descent instead.
     Minimum is close to point  3 DX=  1.78D-02 DF= -1.15D-07 DXR=  9.77D-03 DFR=  9.55D-05 which will be used.
 Gradient too large for Newton-Raphson -- use scaled steepest descent instead.
     Accept linear search using points  1 and  2.
 Gradient too large for Newton-Raphson -- use scaled steepest descent instead.
     Minimum is close to point  3 DX=  6.89D-03 DF= -1.73D-08 DXR=  3.81D-03 DFR=  1.46D-05 which will be used.
 Gradient too large for Newton-Raphson -- use scaled steepest descent instead.
     Accept linear search using points  1 and  2.
 Gradient too large for Newton-Raphson -- use scaled steepest descent instead.
     Minimum is close to point  3 DX=  1.35D-02 DF= -6.54D-08 DXR=  7.42D-03 DFR=  5.52D-05 which will be used.
 Gradient too large for Newton-Raphson -- use scaled steepest descent instead.
     Accept linear search using points  1 and  2.
 Gradient too large for Newton-Raphson -- use scaled steepest descent instead.
     Minimum is close to point  3 DX=  7.13D-03 DF= -1.83D-08 DXR=  3.95D-03 DFR=  1.56D-05 which will be used.
 Gradient too large for Newton-Raphson -- use scaled steepest descent instead.
     Accept linear search using points  1 and  2.
 Gradient too large for Newton-Raphson -- use scaled steepest descent instead.
     Minimum is close to point  3 DX=  9.66D-03 DF= -3.32D-08 DXR=  5.34D-03 DFR=  2.85D-05 which will be used.
 Gradient too large for Newton-Raphson -- use scaled steepest descent instead.
     Accept linear search using points  1 and  2.
 Gradient too large for Newton-Raphson -- use scaled steepest descent instead.
     Minimum is close to point  3 DX=  5.66D-03 DF= -1.12D-08 DXR=  3.13D-03 DFR=  9.84D-06 which will be used.
 Gradient too large for Newton-Raphson -- use scaled steepest descent instead.
     Accept linear search using points  1 and  2.
 Gradient too large for Newton-Raphson -- use scaled steepest descent instead.
     Minimum is close to point  3 DX=  6.28D-03 DF= -1.35D-08 DXR=  3.48D-03 DFR=  1.21D-05 which will be used.
 Gradient too large for Newton-Raphson -- use scaled steepest descent instead.
     Accept linear search using points  1 and  2.
 Gradient too large for Newton-Raphson -- use scaled steepest descent instead.
     Minimum is close to point  3 DX=  3.82D-03 DF= -4.82D-09 DXR=  2.12D-03 DFR=  4.48D-06 which will be used.
 Gradient too large for Newton-Raphson -- use scaled steepest descent instead.
     Accept linear search using points  1 and  2.
 Gradient too large for Newton-Raphson -- use scaled steepest descent instead.
     Minimum is close to point  3 DX=  3.98D-03 DF= -5.01D-09 DXR=  2.20D-03 DFR=  4.86D-06 which will be used.
 Gradient too large for Newton-Raphson -- use scaled steepest descent instead.
     Accept linear search using points  1 and  2.
 Gradient too large for Newton-Raphson -- use scaled steepest descent instead.
     Minimum is close to point  3 DX=  2.91D-03 DF= -2.56D-09 DXR=  1.62D-03 DFR=  2.61D-06 which will be used.
 Gradient too large for Newton-Raphson -- use scaled steepest descent instead.
     Accept linear search using points  1 and  2.
 Gradient too large for Newton-Raphson -- use scaled steepest descent instead.
     Minimum is close to point  3 DX=  3.45D-03 DF= -3.38D-09 DXR=  1.91D-03 DFR=  3.66D-06 which will be used.
 Gradient too large for Newton-Raphson -- use scaled steepest descent instead.
     Accept linear search using points  1 and  2.
 Gradient too large for Newton-Raphson -- use scaled steepest descent instead.
     Minimum is close to point  3 DX=  3.55D-03 DF= -3.37D-09 DXR=  1.97D-03 DFR=  3.88D-06 which will be used.
 Gradient too large for Newton-Raphson -- use scaled steepest descent instead.
     Accept linear search using points  1 and  2.
 Gradient too large for Newton-Raphson -- use scaled steepest descent instead.
     Minimum is close to point  3 DX=  4.48D-03 DF= -5.04D-09 DXR=  2.48D-03 DFR=  6.17D-06 which will be used.
 Gradient too large for Newton-Raphson -- use scaled steepest descent instead.
     Accept linear search using points  1 and  2.
 Gradient too large for Newton-Raphson -- use scaled steepest descent instead.
     Minimum is close to point  3 DX=  5.05D-03 DF= -6.01D-09 DXR=  2.80D-03 DFR=  7.82D-06 which will be used.
 Gradient too large for Newton-Raphson -- use scaled steepest descent instead.
     Accept linear search using points  1 and  2.
 Gradient too large for Newton-Raphson -- use scaled steepest descent instead.
     Minimum is close to point  3 DX=  5.73D-03 DF= -7.31D-09 DXR=  3.17D-03 DFR=  1.01D-05 which will be used.
 Gradient too large for Newton-Raphson -- use scaled steepest descent instead.
     Accept linear search using points  1 and  2.
 Gradient too large for Newton-Raphson -- use scaled steepest descent instead.
     Minimum is close to point  3 DX=  5.87D-03 DF= -7.25D-09 DXR=  3.25D-03 DFR=  1.06D-05 which will be used.
 Gradient too large for Newton-Raphson -- use scaled steepest descent instead.
     Accept linear search using points  1 and  2.
 Gradient too large for Newton-Raphson -- use scaled steepest descent instead.
     Minimum is close to point  3 DX=  5.73D-03 DF= -6.55D-09 DXR=  3.17D-03 DFR=  1.01D-05 which will be used.
 Gradient too large for Newton-Raphson -- use scaled steepest descent instead.
     Accept linear search using points  1 and  2.
 Gradient too large for Newton-Raphson -- use scaled steepest descent instead.
     Minimum is close to point  3 DX=  5.07D-03 DF= -4.89D-09 DXR=  2.81D-03 DFR=  7.90D-06 which will be used.
 Gradient too large for Newton-Raphson -- use scaled steepest descent instead.
     Accept linear search using points  1 and  2.
 Gradient too large for Newton-Raphson -- use scaled steepest descent instead.
     Minimum is close to point  3 DX=  4.19D-03 DF= -3.17D-09 DXR=  2.32D-03 DFR=  5.41D-06 which will be used.
 Gradient too large for Newton-Raphson -- use scaled steepest descent instead.
     Accept linear search using points  1 and  2.
 Gradient too large for Newton-Raphson -- use scaled steepest descent instead.
     Minimum is close to point  3 DX=  3.12D-03 DF= -1.66D-09 DXR=  1.73D-03 DFR=  2.99D-06 which will be used.
 Gradient too large for Newton-Raphson -- use scaled steepest descent instead.
     Accept linear search using points  1 and  2.
 Gradient too large for Newton-Raphson -- use scaled steepest descent instead.
     Minimum is close to point  3 DX=  2.11D-03 DF= -7.16D-10 DXR=  1.17D-03 DFR=  1.38D-06 which will be used.
 Gradient too large for Newton-Raphson -- use scaled steepest descent instead.
     Accept linear search using points  1 and  2.
 Gradient too large for Newton-Raphson -- use scaled steepest descent instead.
     Minimum is close to point  3 DX=  1.28D-03 DF= -2.43D-10 DXR=  7.09D-04 DFR=  5.03D-07 which will be used.
 Gradient too large for Newton-Raphson -- use scaled steepest descent instead.
     Accept linear search using points  1 and  2.
 Gradient too large for Newton-Raphson -- use scaled steepest descent instead.
     Minimum is close to point  3 DX=  7.85D-04 DF= -8.50D-11 DXR=  4.36D-04 DFR=  1.90D-07 which will be used.
 Gradient too large for Newton-Raphson -- use scaled steepest descent instead.
     Accept linear search using points  1 and  2.
 Gradient too large for Newton-Raphson -- use scaled steepest descent instead.
     Minimum is close to point  3 DX=  6.84D-04 DF= -5.94D-11 DXR=  3.80D-04 DFR=  1.45D-07 which will be used.
 Gradient too large for Newton-Raphson -- use scaled steepest descent instead.
     Accept linear search using points  1 and  2.
 Gradient too large for Newton-Raphson -- use scaled steepest descent instead.
     Minimum is close to point  3 DX=  1.03D-03 DF= -1.23D-10 DXR=  5.73D-04 DFR=  3.28D-07 which will be used.
 Gradient too large for Newton-Raphson -- use scaled steepest descent instead.
     Accept linear search using points  1 and  2.
 Gradient too large for Newton-Raphson -- use scaled steepest descent instead.
     Minimum is close to point  3 DX=  1.77D-03 DF= -3.31D-10 DXR=  9.84D-04 DFR=  9.68D-07 which will be used.
 Gradient too large for Newton-Raphson -- use scaled steepest descent instead.
     Accept linear search using points  1 and  2.
 Gradient too large for Newton-Raphson -- use scaled steepest descent instead.
     Minimum is close to point  3 DX=  2.87D-03 DF= -7.92D-10 DXR=  1.59D-03 DFR=  2.53D-06 which will be used.
 Gradient too large for Newton-Raphson -- use scaled steepest descent instead.
     Accept linear search using points  1 and  2.
 LinEq1:  Iter=  0 NonCon=     1 RMS=1.28D-04 Max=1.32D-02 NDo=     1
 AX will form     1 AO Fock derivatives at one time.
 LinEq1:  Iter=  1 NonCon=     1 RMS=2.15D-05 Max=1.64D-03 NDo=     1
 LinEq1:  Iter=  2 NonCon=     1 RMS=2.55D-05 Max=1.82D-03 NDo=     1
 LinEq1:  Iter=  3 NonCon=     1 RMS=1.93D-05 Max=1.29D-03 NDo=     1
 LinEq1:  Iter=  4 NonCon=     1 RMS=2.15D-05 Max=1.56D-03 NDo=     1
 LinEq1:  Iter=  5 NonCon=     1 RMS=1.69D-05 Max=5.44D-04 NDo=     1
 LinEq1:  Iter=  6 NonCon=     1 RMS=1.70D-05 Max=1.48D-03 NDo=     1
 LinEq1:  Iter=  7 NonCon=     1 RMS=1.49D-05 Max=9.29D-04 NDo=     1
 LinEq1:  Iter=  8 NonCon=     1 RMS=1.06D-05 Max=6.24D-04 NDo=     1
 LinEq1:  Iter=  9 NonCon=     1 RMS=9.00D-06 Max=4.80D-04 NDo=     1
 LinEq1:  Iter= 10 NonCon=     1 RMS=7.06D-06 Max=2.83D-04 NDo=     1
 LinEq1:  Iter= 11 NonCon=     1 RMS=6.55D-06 Max=3.43D-04 NDo=     1
 LinEq1:  Iter= 12 NonCon=     1 RMS=5.52D-06 Max=2.23D-04 NDo=     1
 LinEq1:  Iter= 13 NonCon=     1 RMS=4.46D-06 Max=1.97D-04 NDo=     1
 LinEq1:  Iter= 14 NonCon=     1 RMS=3.91D-06 Max=1.75D-04 NDo=     1
 LinEq1:  Iter= 15 NonCon=     1 RMS=3.10D-06 Max=5.73D-05 NDo=     1
 LinEq1:  Iter= 16 NonCon=     1 RMS=2.51D-06 Max=8.20D-05 NDo=     1
 LinEq1:  Iter= 17 NonCon=     1 RMS=2.03D-06 Max=5.83D-05 NDo=     1
 LinEq1:  Iter= 18 NonCon=     1 RMS=1.86D-06 Max=4.66D-05 NDo=     1
 LinEq1:  Iter= 19 NonCon=     1 RMS=1.72D-06 Max=6.88D-05 NDo=     1
 LinEq1:  Iter= 20 NonCon=     1 RMS=1.20D-06 Max=3.39D-05 NDo=     1
 LinEq1:  Iter= 21 NonCon=     1 RMS=7.86D-07 Max=1.85D-05 NDo=     1
 LinEq1:  Iter= 22 NonCon=     1 RMS=5.51D-07 Max=1.89D-05 NDo=     1
 LinEq1:  Iter= 23 NonCon=     1 RMS=4.10D-07 Max=1.07D-05 NDo=     1
 LinEq1:  Iter= 24 NonCon=     1 RMS=3.24D-07 Max=7.89D-06 NDo=     1
 LinEq1:  Iter= 25 NonCon=     1 RMS=2.38D-07 Max=5.28D-06 NDo=     1
 LinEq1:  Iter= 26 NonCon=     1 RMS=1.69D-07 Max=3.78D-06 NDo=     1
 LinEq1:  Iter= 27 NonCon=     1 RMS=8.02D-08 Max=2.24D-06 NDo=     1
 LinEq1:  Iter= 28 NonCon=     1 RMS=5.37D-08 Max=1.07D-06 NDo=     1
 LinEq1:  Iter= 29 NonCon=     1 RMS=3.59D-08 Max=9.52D-07 NDo=     1
 LinEq1:  Iter= 30 NonCon=     1 RMS=2.03D-08 Max=5.57D-07 NDo=     1
 LinEq1:  Iter= 31 NonCon=     1 RMS=1.31D-08 Max=5.84D-07 NDo=     1
 LinEq1:  Iter= 32 NonCon=     1 RMS=8.74D-09 Max=3.71D-07 NDo=     1
 LinEq1:  Iter= 33 NonCon=     0 RMS=4.91D-09 Max=1.85D-07 NDo=     1
 Linear equations converged to 2.952D-08 2.952D-07 after    33 iterations.
 Incorrect curvature in search direction -- initial direction reversed.
     Minimum is close to point  5 DX= -2.41D-03 DF= -6.68D-05 DXR=  7.80D-02 DFR=  1.68D-02 which will be used.
 Gradient too large for Newton-Raphson -- use scaled steepest descent instead.
 Gradient too large for Newton-Raphson -- use scaled steepest descent instead.
     Accept linear search using points  1 and  2.
 Gradient too large for Newton-Raphson -- use scaled steepest descent instead.
     Minimum is close to point  3 DX=  5.74D-02 DF= -1.00D-06 DXR=  4.23D-02 DFR=  1.79D-03 which will be used.
 Gradient too large for Newton-Raphson -- use scaled steepest descent instead.
     Minimum is close to point  3 DX= -1.75D-02 DF= -8.98D-07 DXR=  4.57D-02 DFR=  2.09D-03 which will be used.
 Gradient too large for Newton-Raphson -- use scaled steepest descent instead.
 Gradient too large for Newton-Raphson -- use scaled steepest descent instead.
     Accept linear search using points  1 and  2.
 LinEq1:  Iter=  0 NonCon=     1 RMS=1.09D-04 Max=1.27D-02 NDo=     1
 LinEq1:  Iter=  1 NonCon=     1 RMS=9.29D-05 Max=2.78D-03 NDo=     1
 LinEq1:  Iter=  2 NonCon=     1 RMS=2.53D-05 Max=2.09D-03 NDo=     1
 LinEq1:  Iter=  3 NonCon=     1 RMS=1.37D-05 Max=4.39D-04 NDo=     1
 LinEq1:  Iter=  4 NonCon=     1 RMS=1.19D-05 Max=5.36D-04 NDo=     1
 LinEq1:  Iter=  5 NonCon=     1 RMS=7.73D-06 Max=1.91D-04 NDo=     1
 LinEq1:  Iter=  6 NonCon=     1 RMS=5.68D-06 Max=1.31D-04 NDo=     1
 LinEq1:  Iter=  7 NonCon=     1 RMS=6.54D-06 Max=1.29D-04 NDo=     1
 LinEq1:  Iter=  8 NonCon=     1 RMS=3.49D-06 Max=9.70D-05 NDo=     1
 LinEq1:  Iter=  9 NonCon=     1 RMS=3.64D-06 Max=9.16D-05 NDo=     1
 LinEq1:  Iter= 10 NonCon=     1 RMS=2.46D-06 Max=4.66D-05 NDo=     1
 LinEq1:  Iter= 11 NonCon=     1 RMS=1.99D-06 Max=6.54D-05 NDo=     1
 LinEq1:  Iter= 12 NonCon=     1 RMS=2.05D-06 Max=5.11D-05 NDo=     1
 LinEq1:  Iter= 13 NonCon=     1 RMS=1.21D-06 Max=3.19D-05 NDo=     1
 LinEq1:  Iter= 14 NonCon=     1 RMS=9.89D-07 Max=2.31D-05 NDo=     1
 LinEq1:  Iter= 15 NonCon=     1 RMS=6.73D-07 Max=2.05D-05 NDo=     1
 LinEq1:  Iter= 16 NonCon=     1 RMS=5.39D-07 Max=1.86D-05 NDo=     1
 LinEq1:  Iter= 17 NonCon=     1 RMS=4.24D-07 Max=1.28D-05 NDo=     1
 LinEq1:  Iter= 18 NonCon=     1 RMS=2.49D-07 Max=1.03D-05 NDo=     1
 LinEq1:  Iter= 19 NonCon=     1 RMS=2.13D-07 Max=4.55D-06 NDo=     1
 LinEq1:  Iter= 20 NonCon=     1 RMS=1.62D-07 Max=4.56D-06 NDo=     1
 LinEq1:  Iter= 21 NonCon=     1 RMS=1.18D-07 Max=3.87D-06 NDo=     1
 LinEq1:  Iter= 22 NonCon=     1 RMS=8.47D-08 Max=2.50D-06 NDo=     1
 LinEq1:  Iter= 23 NonCon=     1 RMS=4.93D-08 Max=1.07D-06 NDo=     1
 LinEq1:  Iter= 24 NonCon=     1 RMS=3.30D-08 Max=1.01D-06 NDo=     1
 LinEq1:  Iter= 25 NonCon=     1 RMS=2.19D-08 Max=5.94D-07 NDo=     1
 LinEq1:  Iter= 26 NonCon=     1 RMS=1.43D-08 Max=4.66D-07 NDo=     1
 LinEq1:  Iter= 27 NonCon=     0 RMS=9.40D-09 Max=2.41D-07 NDo=     1
 Linear equations converged to 2.952D-08 2.952D-07 after    27 iterations.
 LinEq1:  Iter=  0 NonCon=     1 RMS=8.54D-05 Max=5.98D-03 NDo=     1
 LinEq1:  Iter=  1 NonCon=     1 RMS=9.35D-05 Max=3.98D-03 NDo=     1
 LinEq1:  Iter=  2 NonCon=     1 RMS=6.34D-05 Max=3.43D-03 NDo=     1
 LinEq1:  Iter=  3 NonCon=     1 RMS=6.79D-05 Max=2.27D-03 NDo=     1
 LinEq1:  Iter=  4 NonCon=     1 RMS=5.38D-05 Max=3.37D-03 NDo=     1
 LinEq1:  Iter=  5 NonCon=     1 RMS=4.77D-05 Max=2.16D-03 NDo=     1
 LinEq1:  Iter=  6 NonCon=     1 RMS=4.39D-05 Max=1.83D-03 NDo=     1
 LinEq1:  Iter=  7 NonCon=     1 RMS=3.44D-05 Max=9.26D-04 NDo=     1
 LinEq1:  Iter=  8 NonCon=     1 RMS=2.59D-05 Max=7.31D-04 NDo=     1
 LinEq1:  Iter=  9 NonCon=     1 RMS=2.07D-05 Max=5.63D-04 NDo=     1
 LinEq1:  Iter= 10 NonCon=     1 RMS=1.88D-05 Max=4.78D-04 NDo=     1
 LinEq1:  Iter= 11 NonCon=     1 RMS=1.52D-05 Max=4.65D-04 NDo=     1
 LinEq1:  Iter= 12 NonCon=     1 RMS=1.41D-05 Max=4.01D-04 NDo=     1
 LinEq1:  Iter= 13 NonCon=     1 RMS=1.05D-05 Max=2.27D-04 NDo=     1
 LinEq1:  Iter= 14 NonCon=     1 RMS=9.69D-06 Max=3.82D-04 NDo=     1
 LinEq1:  Iter= 15 NonCon=     1 RMS=7.59D-06 Max=1.88D-04 NDo=     1
 LinEq1:  Iter= 16 NonCon=     1 RMS=5.93D-06 Max=1.58D-04 NDo=     1
 LinEq1:  Iter= 17 NonCon=     1 RMS=5.81D-06 Max=2.19D-04 NDo=     1
 LinEq1:  Iter= 18 NonCon=     1 RMS=4.34D-06 Max=1.22D-04 NDo=     1
 LinEq1:  Iter= 19 NonCon=     1 RMS=3.60D-06 Max=8.83D-05 NDo=     1
 LinEq1:  Iter= 20 NonCon=     1 RMS=2.83D-06 Max=1.09D-04 NDo=     1
 LinEq1:  Iter= 21 NonCon=     1 RMS=2.02D-06 Max=6.21D-05 NDo=     1
 LinEq1:  Iter= 22 NonCon=     1 RMS=1.50D-06 Max=4.95D-05 NDo=     1
 LinEq1:  Iter= 23 NonCon=     1 RMS=8.57D-07 Max=2.69D-05 NDo=     1
 LinEq1:  Iter= 24 NonCon=     1 RMS=5.99D-07 Max=1.72D-05 NDo=     1
 LinEq1:  Iter= 25 NonCon=     1 RMS=3.67D-07 Max=9.37D-06 NDo=     1
 LinEq1:  Iter= 26 NonCon=     1 RMS=2.39D-07 Max=8.77D-06 NDo=     1
 LinEq1:  Iter= 27 NonCon=     1 RMS=1.32D-07 Max=5.26D-06 NDo=     1
 LinEq1:  Iter= 28 NonCon=     1 RMS=9.06D-08 Max=3.16D-06 NDo=     1
 LinEq1:  Iter= 29 NonCon=     1 RMS=5.46D-08 Max=2.00D-06 NDo=     1
 LinEq1:  Iter= 30 NonCon=     1 RMS=3.45D-08 Max=9.54D-07 NDo=     1
 LinEq1:  Iter= 31 NonCon=     1 RMS=2.18D-08 Max=8.27D-07 NDo=     1
 LinEq1:  Iter= 32 NonCon=     1 RMS=1.09D-08 Max=3.12D-07 NDo=     1
 LinEq1:  Iter= 33 NonCon=     0 RMS=5.92D-09 Max=2.04D-07 NDo=     1
 Linear equations converged to 2.952D-08 2.952D-07 after    33 iterations.
 LinEq1:  Iter=  0 NonCon=     1 RMS=8.82D-05 Max=5.00D-03 NDo=     1
 LinEq1:  Iter=  1 NonCon=     1 RMS=9.55D-05 Max=3.81D-03 NDo=     1
 LinEq1:  Iter=  2 NonCon=     1 RMS=7.22D-05 Max=3.05D-03 NDo=     1
 LinEq1:  Iter=  3 NonCon=     1 RMS=7.66D-05 Max=1.69D-03 NDo=     1
 LinEq1:  Iter=  4 NonCon=     1 RMS=6.14D-05 Max=2.63D-03 NDo=     1
 LinEq1:  Iter=  5 NonCon=     1 RMS=5.26D-05 Max=2.03D-03 NDo=     1
 LinEq1:  Iter=  6 NonCon=     1 RMS=4.47D-05 Max=1.69D-03 NDo=     1
 LinEq1:  Iter=  7 NonCon=     1 RMS=3.90D-05 Max=1.06D-03 NDo=     1
 LinEq1:  Iter=  8 NonCon=     1 RMS=3.10D-05 Max=8.02D-04 NDo=     1
 LinEq1:  Iter=  9 NonCon=     1 RMS=2.29D-05 Max=4.71D-04 NDo=     1
 LinEq1:  Iter= 10 NonCon=     1 RMS=1.84D-05 Max=5.87D-04 NDo=     1
 LinEq1:  Iter= 11 NonCon=     1 RMS=1.53D-05 Max=4.66D-04 NDo=     1
 LinEq1:  Iter= 12 NonCon=     1 RMS=1.19D-05 Max=3.64D-04 NDo=     1
 LinEq1:  Iter= 13 NonCon=     1 RMS=9.75D-06 Max=3.36D-04 NDo=     1
 LinEq1:  Iter= 14 NonCon=     1 RMS=8.55D-06 Max=3.95D-04 NDo=     1
 LinEq1:  Iter= 15 NonCon=     1 RMS=8.10D-06 Max=1.73D-04 NDo=     1
 LinEq1:  Iter= 16 NonCon=     1 RMS=5.58D-06 Max=2.10D-04 NDo=     1
 LinEq1:  Iter= 17 NonCon=     1 RMS=5.15D-06 Max=1.23D-04 NDo=     1
 LinEq1:  Iter= 18 NonCon=     1 RMS=4.33D-06 Max=8.74D-05 NDo=     1
 LinEq1:  Iter= 19 NonCon=     1 RMS=3.30D-06 Max=8.46D-05 NDo=     1
 LinEq1:  Iter= 20 NonCon=     1 RMS=3.22D-06 Max=1.01D-04 NDo=     1
 LinEq1:  Iter= 21 NonCon=     1 RMS=2.33D-06 Max=5.44D-05 NDo=     1
 LinEq1:  Iter= 22 NonCon=     1 RMS=1.69D-06 Max=4.61D-05 NDo=     1
 LinEq1:  Iter= 23 NonCon=     1 RMS=1.10D-06 Max=2.49D-05 NDo=     1
 LinEq1:  Iter= 24 NonCon=     1 RMS=7.58D-07 Max=2.20D-05 NDo=     1
 LinEq1:  Iter= 25 NonCon=     1 RMS=4.60D-07 Max=1.09D-05 NDo=     1
 LinEq1:  Iter= 26 NonCon=     1 RMS=2.54D-07 Max=6.65D-06 NDo=     1
 LinEq1:  Iter= 27 NonCon=     1 RMS=1.58D-07 Max=3.50D-06 NDo=     1
 LinEq1:  Iter= 28 NonCon=     1 RMS=1.08D-07 Max=3.20D-06 NDo=     1
 LinEq1:  Iter= 29 NonCon=     1 RMS=5.48D-08 Max=1.77D-06 NDo=     1
 LinEq1:  Iter= 30 NonCon=     1 RMS=3.55D-08 Max=1.05D-06 NDo=     1
 LinEq1:  Iter= 31 NonCon=     1 RMS=2.19D-08 Max=7.45D-07 NDo=     1
 LinEq1:  Iter= 32 NonCon=     1 RMS=1.22D-08 Max=4.07D-07 NDo=     1
 LinEq1:  Iter= 33 NonCon=     0 RMS=7.65D-09 Max=1.46D-07 NDo=     1
 Linear equations converged to 2.952D-08 2.952D-07 after    33 iterations.
 LinEq1:  Iter=  0 NonCon=     1 RMS=9.32D-05 Max=3.51D-03 NDo=     1
 LinEq1:  Iter=  1 NonCon=     1 RMS=1.01D-04 Max=3.34D-03 NDo=     1
 LinEq1:  Iter=  2 NonCon=     1 RMS=8.02D-05 Max=2.58D-03 NDo=     1
 LinEq1:  Iter=  3 NonCon=     1 RMS=8.52D-05 Max=3.14D-03 NDo=     1
 LinEq1:  Iter=  4 NonCon=     1 RMS=7.14D-05 Max=3.03D-03 NDo=     1
 LinEq1:  Iter=  5 NonCon=     1 RMS=6.11D-05 Max=2.12D-03 NDo=     1
 LinEq1:  Iter=  6 NonCon=     1 RMS=5.00D-05 Max=1.74D-03 NDo=     1
 LinEq1:  Iter=  7 NonCon=     1 RMS=4.40D-05 Max=1.41D-03 NDo=     1
 LinEq1:  Iter=  8 NonCon=     1 RMS=3.66D-05 Max=1.17D-03 NDo=     1
 LinEq1:  Iter=  9 NonCon=     1 RMS=2.74D-05 Max=6.27D-04 NDo=     1
 LinEq1:  Iter= 10 NonCon=     1 RMS=2.00D-05 Max=1.05D-03 NDo=     1
 LinEq1:  Iter= 11 NonCon=     1 RMS=1.84D-05 Max=9.38D-04 NDo=     1
 LinEq1:  Iter= 12 NonCon=     1 RMS=1.32D-05 Max=7.69D-04 NDo=     1
 LinEq1:  Iter= 13 NonCon=     1 RMS=1.10D-05 Max=5.42D-04 NDo=     1
 LinEq1:  Iter= 14 NonCon=     1 RMS=8.78D-06 Max=4.17D-04 NDo=     1
 LinEq1:  Iter= 15 NonCon=     1 RMS=9.12D-06 Max=4.33D-04 NDo=     1
 LinEq1:  Iter= 16 NonCon=     1 RMS=6.67D-06 Max=2.93D-04 NDo=     1
 LinEq1:  Iter= 17 NonCon=     1 RMS=6.00D-06 Max=1.42D-04 NDo=     1
 LinEq1:  Iter= 18 NonCon=     1 RMS=4.36D-06 Max=9.83D-05 NDo=     1
 LinEq1:  Iter= 19 NonCon=     1 RMS=2.88D-06 Max=7.02D-05 NDo=     1
 LinEq1:  Iter= 20 NonCon=     1 RMS=2.89D-06 Max=1.16D-04 NDo=     1
 LinEq1:  Iter= 21 NonCon=     1 RMS=2.43D-06 Max=7.95D-05 NDo=     1
 LinEq1:  Iter= 22 NonCon=     1 RMS=1.89D-06 Max=4.50D-05 NDo=     1
 LinEq1:  Iter= 23 NonCon=     1 RMS=1.23D-06 Max=2.67D-05 NDo=     1
 LinEq1:  Iter= 24 NonCon=     1 RMS=8.44D-07 Max=1.99D-05 NDo=     1
 LinEq1:  Iter= 25 NonCon=     1 RMS=4.93D-07 Max=8.98D-06 NDo=     1
 LinEq1:  Iter= 26 NonCon=     1 RMS=2.51D-07 Max=6.69D-06 NDo=     1
 LinEq1:  Iter= 27 NonCon=     1 RMS=1.98D-07 Max=5.27D-06 NDo=     1
 LinEq1:  Iter= 28 NonCon=     1 RMS=1.06D-07 Max=2.11D-06 NDo=     1
 LinEq1:  Iter= 29 NonCon=     1 RMS=6.76D-08 Max=1.85D-06 NDo=     1
 LinEq1:  Iter= 30 NonCon=     1 RMS=4.49D-08 Max=9.17D-07 NDo=     1
 LinEq1:  Iter= 31 NonCon=     1 RMS=2.93D-08 Max=7.18D-07 NDo=     1
 LinEq1:  Iter= 32 NonCon=     1 RMS=1.79D-08 Max=3.86D-07 NDo=     1
 LinEq1:  Iter= 33 NonCon=     0 RMS=9.89D-09 Max=2.75D-07 NDo=     1
 Linear equations converged to 2.952D-08 2.952D-07 after    33 iterations.
 Incorrect curvature in search direction -- initial direction reversed.
 Gradient too large for Newton-Raphson -- use scaled steepest descent instead.
     Accept linear search using points  2 and  3.
 LinEq1:  Iter=  0 NonCon=     1 RMS=9.52D-05 Max=3.45D-03 NDo=     1
 LinEq1:  Iter=  1 NonCon=     1 RMS=1.34D-04 Max=5.69D-03 NDo=     1
 LinEq1:  Iter=  2 NonCon=     1 RMS=8.70D-05 Max=3.10D-03 NDo=     1
 LinEq1:  Iter=  3 NonCon=     1 RMS=7.79D-05 Max=3.75D-03 NDo=     1
 LinEq1:  Iter=  4 NonCon=     1 RMS=7.00D-05 Max=2.10D-03 NDo=     1
 LinEq1:  Iter=  5 NonCon=     1 RMS=4.68D-05 Max=1.80D-03 NDo=     1
 LinEq1:  Iter=  6 NonCon=     1 RMS=4.69D-05 Max=1.66D-03 NDo=     1
 LinEq1:  Iter=  7 NonCon=     1 RMS=3.47D-05 Max=1.23D-03 NDo=     1
 LinEq1:  Iter=  8 NonCon=     1 RMS=2.81D-05 Max=6.75D-04 NDo=     1
 LinEq1:  Iter=  9 NonCon=     1 RMS=1.94D-05 Max=9.92D-04 NDo=     1
 LinEq1:  Iter= 10 NonCon=     1 RMS=1.74D-05 Max=9.93D-04 NDo=     1
 LinEq1:  Iter= 11 NonCon=     1 RMS=1.40D-05 Max=8.65D-04 NDo=     1
 LinEq1:  Iter= 12 NonCon=     1 RMS=1.03D-05 Max=5.02D-04 NDo=     1
 LinEq1:  Iter= 13 NonCon=     1 RMS=8.94D-06 Max=4.42D-04 NDo=     1
 LinEq1:  Iter= 14 NonCon=     1 RMS=8.68D-06 Max=3.66D-04 NDo=     1
 LinEq1:  Iter= 15 NonCon=     1 RMS=6.46D-06 Max=2.89D-04 NDo=     1
 LinEq1:  Iter= 16 NonCon=     1 RMS=5.72D-06 Max=1.25D-04 NDo=     1
 LinEq1:  Iter= 17 NonCon=     1 RMS=4.25D-06 Max=9.80D-05 NDo=     1
 LinEq1:  Iter= 18 NonCon=     1 RMS=3.28D-06 Max=7.06D-05 NDo=     1
 LinEq1:  Iter= 19 NonCon=     1 RMS=2.91D-06 Max=1.03D-04 NDo=     1
 LinEq1:  Iter= 20 NonCon=     1 RMS=2.55D-06 Max=8.99D-05 NDo=     1
 LinEq1:  Iter= 21 NonCon=     1 RMS=1.97D-06 Max=4.55D-05 NDo=     1
 LinEq1:  Iter= 22 NonCon=     1 RMS=1.21D-06 Max=2.84D-05 NDo=     1
 LinEq1:  Iter= 23 NonCon=     1 RMS=8.33D-07 Max=1.87D-05 NDo=     1
 LinEq1:  Iter= 24 NonCon=     1 RMS=4.87D-07 Max=7.43D-06 NDo=     1
 LinEq1:  Iter= 25 NonCon=     1 RMS=2.71D-07 Max=6.87D-06 NDo=     1
 LinEq1:  Iter= 26 NonCon=     1 RMS=1.81D-07 Max=3.99D-06 NDo=     1
 LinEq1:  Iter= 27 NonCon=     1 RMS=1.22D-07 Max=2.75D-06 NDo=     1
 LinEq1:  Iter= 28 NonCon=     1 RMS=6.50D-08 Max=1.82D-06 NDo=     1
 LinEq1:  Iter= 29 NonCon=     1 RMS=4.54D-08 Max=9.28D-07 NDo=     1
 LinEq1:  Iter= 30 NonCon=     1 RMS=2.73D-08 Max=1.09D-06 NDo=     1
 LinEq1:  Iter= 31 NonCon=     1 RMS=1.70D-08 Max=5.22D-07 NDo=     1
 LinEq1:  Iter= 32 NonCon=     0 RMS=1.01D-08 Max=2.90D-07 NDo=     1
 Linear equations converged to 2.952D-08 2.952D-07 after    32 iterations.
 Incorrect curvature in search direction -- initial direction reversed.
 Gradient too large for Newton-Raphson -- use scaled steepest descent instead.
     Minimum is close to point  2 DX=  2.64D-03 DF= -3.41D-09 DXR=  4.38D-03 DFR=  1.91D-05 which will be used.
 LinEq1:  Iter=  0 NonCon=     1 RMS=8.89D-05 Max=5.15D-03 NDo=     1
 LinEq1:  Iter=  1 NonCon=     1 RMS=1.36D-04 Max=5.81D-03 NDo=     1
 LinEq1:  Iter=  2 NonCon=     1 RMS=6.21D-05 Max=2.02D-03 NDo=     1
 LinEq1:  Iter=  3 NonCon=     1 RMS=6.89D-05 Max=3.09D-03 NDo=     1
 LinEq1:  Iter=  4 NonCon=     1 RMS=4.14D-05 Max=1.37D-03 NDo=     1
 LinEq1:  Iter=  5 NonCon=     1 RMS=3.59D-05 Max=1.40D-03 NDo=     1
 LinEq1:  Iter=  6 NonCon=     1 RMS=2.82D-05 Max=6.90D-04 NDo=     1
 LinEq1:  Iter=  7 NonCon=     1 RMS=2.04D-05 Max=7.16D-04 NDo=     1
 LinEq1:  Iter=  8 NonCon=     1 RMS=1.45D-05 Max=6.37D-04 NDo=     1
 LinEq1:  Iter=  9 NonCon=     1 RMS=1.21D-05 Max=6.26D-04 NDo=     1
 LinEq1:  Iter= 10 NonCon=     1 RMS=1.08D-05 Max=4.53D-04 NDo=     1
 LinEq1:  Iter= 11 NonCon=     1 RMS=7.98D-06 Max=3.82D-04 NDo=     1
 LinEq1:  Iter= 12 NonCon=     1 RMS=7.44D-06 Max=2.45D-04 NDo=     1
 LinEq1:  Iter= 13 NonCon=     1 RMS=7.09D-06 Max=2.47D-04 NDo=     1
 LinEq1:  Iter= 14 NonCon=     1 RMS=5.08D-06 Max=1.39D-04 NDo=     1
 LinEq1:  Iter= 15 NonCon=     1 RMS=4.20D-06 Max=9.76D-05 NDo=     1
 LinEq1:  Iter= 16 NonCon=     1 RMS=3.01D-06 Max=5.44D-05 NDo=     1
 LinEq1:  Iter= 17 NonCon=     1 RMS=2.17D-06 Max=5.65D-05 NDo=     1
 LinEq1:  Iter= 18 NonCon=     1 RMS=1.65D-06 Max=4.11D-05 NDo=     1
 LinEq1:  Iter= 19 NonCon=     1 RMS=1.58D-06 Max=4.31D-05 NDo=     1
 LinEq1:  Iter= 20 NonCon=     1 RMS=1.38D-06 Max=2.81D-05 NDo=     1
 LinEq1:  Iter= 21 NonCon=     1 RMS=8.85D-07 Max=2.32D-05 NDo=     1
 LinEq1:  Iter= 22 NonCon=     1 RMS=6.05D-07 Max=1.04D-05 NDo=     1
 LinEq1:  Iter= 23 NonCon=     1 RMS=3.54D-07 Max=5.95D-06 NDo=     1
 LinEq1:  Iter= 24 NonCon=     1 RMS=1.87D-07 Max=4.41D-06 NDo=     1
 LinEq1:  Iter= 25 NonCon=     1 RMS=1.38D-07 Max=2.80D-06 NDo=     1
 LinEq1:  Iter= 26 NonCon=     1 RMS=8.77D-08 Max=2.08D-06 NDo=     1
 LinEq1:  Iter= 27 NonCon=     1 RMS=5.05D-08 Max=1.43D-06 NDo=     1
 LinEq1:  Iter= 28 NonCon=     1 RMS=3.47D-08 Max=8.08D-07 NDo=     1
 LinEq1:  Iter= 29 NonCon=     1 RMS=2.06D-08 Max=4.41D-07 NDo=     1
 LinEq1:  Iter= 30 NonCon=     0 RMS=1.34D-08 Max=2.77D-07 NDo=     1
 Linear equations converged to 2.952D-08 2.952D-07 after    30 iterations.
 Incorrect curvature in search direction -- initial direction reversed.
 Gradient too large for Newton-Raphson -- use scaled steepest descent instead.
     Accept linear search using points  1 and  2.
     Minimum is close to point  2 DX= -1.24D-02 DF= -2.58D-08 DXR=  1.81D-02 DFR=  1.19D-04 which will be used.
 Gradient too large for Newton-Raphson -- use scaled steepest descent instead.
     Accept linear search using points  1 and  2.
 LinEq1:  Iter=  0 NonCon=     1 RMS=8.59D-05 Max=7.48D-03 NDo=     1
 LinEq1:  Iter=  1 NonCon=     1 RMS=9.45D-05 Max=3.50D-03 NDo=     1
 LinEq1:  Iter=  2 NonCon=     1 RMS=3.45D-05 Max=1.95D-03 NDo=     1
 LinEq1:  Iter=  3 NonCon=     1 RMS=2.92D-05 Max=7.66D-04 NDo=     1
 LinEq1:  Iter=  4 NonCon=     1 RMS=1.73D-05 Max=8.70D-04 NDo=     1
 LinEq1:  Iter=  5 NonCon=     1 RMS=1.23D-05 Max=3.34D-04 NDo=     1
 LinEq1:  Iter=  6 NonCon=     1 RMS=1.01D-05 Max=3.29D-04 NDo=     1
 LinEq1:  Iter=  7 NonCon=     1 RMS=8.40D-06 Max=3.55D-04 NDo=     1
 LinEq1:  Iter=  8 NonCon=     1 RMS=5.80D-06 Max=3.29D-04 NDo=     1
 LinEq1:  Iter=  9 NonCon=     1 RMS=6.03D-06 Max=3.00D-04 NDo=     1
 LinEq1:  Iter= 10 NonCon=     1 RMS=3.96D-06 Max=1.57D-04 NDo=     1
 LinEq1:  Iter= 11 NonCon=     1 RMS=3.90D-06 Max=1.57D-04 NDo=     1
 LinEq1:  Iter= 12 NonCon=     1 RMS=3.34D-06 Max=6.93D-05 NDo=     1
 LinEq1:  Iter= 13 NonCon=     1 RMS=2.79D-06 Max=6.74D-05 NDo=     1
 LinEq1:  Iter= 14 NonCon=     1 RMS=1.78D-06 Max=3.73D-05 NDo=     1
 LinEq1:  Iter= 15 NonCon=     1 RMS=1.91D-06 Max=6.77D-05 NDo=     1
 LinEq1:  Iter= 16 NonCon=     1 RMS=1.29D-06 Max=2.24D-05 NDo=     1
 LinEq1:  Iter= 17 NonCon=     1 RMS=1.15D-06 Max=2.50D-05 NDo=     1
 LinEq1:  Iter= 18 NonCon=     1 RMS=9.10D-07 Max=2.79D-05 NDo=     1
 LinEq1:  Iter= 19 NonCon=     1 RMS=7.08D-07 Max=1.06D-05 NDo=     1
 LinEq1:  Iter= 20 NonCon=     1 RMS=4.57D-07 Max=1.95D-05 NDo=     1
 LinEq1:  Iter= 21 NonCon=     1 RMS=2.61D-07 Max=6.91D-06 NDo=     1
 LinEq1:  Iter= 22 NonCon=     1 RMS=1.71D-07 Max=4.96D-06 NDo=     1
 LinEq1:  Iter= 23 NonCon=     1 RMS=1.00D-07 Max=4.20D-06 NDo=     1
 LinEq1:  Iter= 24 NonCon=     1 RMS=7.10D-08 Max=1.96D-06 NDo=     1
 LinEq1:  Iter= 25 NonCon=     1 RMS=4.63D-08 Max=1.45D-06 NDo=     1
 LinEq1:  Iter= 26 NonCon=     1 RMS=2.84D-08 Max=9.48D-07 NDo=     1
 LinEq1:  Iter= 27 NonCon=     1 RMS=1.64D-08 Max=6.31D-07 NDo=     1
 LinEq1:  Iter= 28 NonCon=     1 RMS=9.71D-09 Max=3.46D-07 NDo=     1
 LinEq1:  Iter= 29 NonCon=     0 RMS=6.79D-09 Max=1.53D-07 NDo=     1
 Linear equations converged to 2.952D-08 2.952D-07 after    29 iterations.
 LinEq1:  Iter=  0 NonCon=     1 RMS=8.20D-05 Max=5.22D-03 NDo=     1
 LinEq1:  Iter=  1 NonCon=     1 RMS=8.79D-05 Max=3.84D-03 NDo=     1
 LinEq1:  Iter=  2 NonCon=     1 RMS=5.56D-05 Max=2.19D-03 NDo=     1
 LinEq1:  Iter=  3 NonCon=     1 RMS=5.18D-05 Max=1.61D-03 NDo=     1
 LinEq1:  Iter=  4 NonCon=     1 RMS=3.57D-05 Max=1.17D-03 NDo=     1
 LinEq1:  Iter=  5 NonCon=     1 RMS=3.01D-05 Max=9.89D-04 NDo=     1
 LinEq1:  Iter=  6 NonCon=     1 RMS=2.73D-05 Max=9.53D-04 NDo=     1
 LinEq1:  Iter=  7 NonCon=     1 RMS=1.96D-05 Max=6.97D-04 NDo=     1
 LinEq1:  Iter=  8 NonCon=     1 RMS=1.62D-05 Max=7.83D-04 NDo=     1
 LinEq1:  Iter=  9 NonCon=     1 RMS=1.40D-05 Max=6.33D-04 NDo=     1
 LinEq1:  Iter= 10 NonCon=     1 RMS=1.03D-05 Max=5.11D-04 NDo=     1
 LinEq1:  Iter= 11 NonCon=     1 RMS=9.08D-06 Max=4.87D-04 NDo=     1
 LinEq1:  Iter= 12 NonCon=     1 RMS=7.36D-06 Max=2.95D-04 NDo=     1
 LinEq1:  Iter= 13 NonCon=     1 RMS=6.35D-06 Max=2.09D-04 NDo=     1
 LinEq1:  Iter= 14 NonCon=     1 RMS=4.97D-06 Max=1.50D-04 NDo=     1
 LinEq1:  Iter= 15 NonCon=     1 RMS=4.60D-06 Max=1.04D-04 NDo=     1
 LinEq1:  Iter= 16 NonCon=     1 RMS=3.58D-06 Max=7.91D-05 NDo=     1
 LinEq1:  Iter= 17 NonCon=     1 RMS=2.28D-06 Max=5.13D-05 NDo=     1
 LinEq1:  Iter= 18 NonCon=     1 RMS=1.89D-06 Max=4.62D-05 NDo=     1
 LinEq1:  Iter= 19 NonCon=     1 RMS=2.01D-06 Max=4.23D-05 NDo=     1
 LinEq1:  Iter= 20 NonCon=     1 RMS=1.45D-06 Max=3.35D-05 NDo=     1
 LinEq1:  Iter= 21 NonCon=     1 RMS=1.17D-06 Max=2.82D-05 NDo=     1
 LinEq1:  Iter= 22 NonCon=     1 RMS=9.17D-07 Max=1.59D-05 NDo=     1
 LinEq1:  Iter= 23 NonCon=     1 RMS=6.23D-07 Max=1.35D-05 NDo=     1
 LinEq1:  Iter= 24 NonCon=     1 RMS=3.64D-07 Max=8.65D-06 NDo=     1
 LinEq1:  Iter= 25 NonCon=     1 RMS=2.59D-07 Max=6.45D-06 NDo=     1
 LinEq1:  Iter= 26 NonCon=     1 RMS=1.48D-07 Max=3.58D-06 NDo=     1
 LinEq1:  Iter= 27 NonCon=     1 RMS=9.28D-08 Max=2.38D-06 NDo=     1
 LinEq1:  Iter= 28 NonCon=     1 RMS=6.66D-08 Max=1.81D-06 NDo=     1
 LinEq1:  Iter= 29 NonCon=     1 RMS=3.70D-08 Max=1.19D-06 NDo=     1
 LinEq1:  Iter= 30 NonCon=     1 RMS=2.26D-08 Max=6.45D-07 NDo=     1
 LinEq1:  Iter= 31 NonCon=     1 RMS=1.60D-08 Max=5.93D-07 NDo=     1
 LinEq1:  Iter= 32 NonCon=     0 RMS=8.66D-09 Max=2.84D-07 NDo=     1
 Linear equations converged to 2.952D-08 2.952D-07 after    32 iterations.
 Incorrect curvature in search direction -- initial direction reversed.
 LinEq1:  Iter=  0 NonCon=     1 RMS=1.13D-04 Max=8.39D-03 NDo=     1
 LinEq1:  Iter=  1 NonCon=     1 RMS=1.16D-04 Max=4.43D-03 NDo=     1
 LinEq1:  Iter=  2 NonCon=     1 RMS=8.43D-05 Max=5.01D-03 NDo=     1
 LinEq1:  Iter=  3 NonCon=     1 RMS=7.03D-05 Max=2.06D-03 NDo=     1
 LinEq1:  Iter=  4 NonCon=     1 RMS=4.82D-05 Max=1.94D-03 NDo=     1
 LinEq1:  Iter=  5 NonCon=     1 RMS=4.39D-05 Max=1.92D-03 NDo=     1
 LinEq1:  Iter=  6 NonCon=     1 RMS=3.79D-05 Max=1.34D-03 NDo=     1
 LinEq1:  Iter=  7 NonCon=     1 RMS=2.79D-05 Max=9.61D-04 NDo=     1
 LinEq1:  Iter=  8 NonCon=     1 RMS=2.56D-05 Max=8.18D-04 NDo=     1
 LinEq1:  Iter=  9 NonCon=     1 RMS=2.31D-05 Max=9.48D-04 NDo=     1
 LinEq1:  Iter= 10 NonCon=     1 RMS=1.60D-05 Max=8.60D-04 NDo=     1
 LinEq1:  Iter= 11 NonCon=     1 RMS=1.39D-05 Max=7.76D-04 NDo=     1
 LinEq1:  Iter= 12 NonCon=     1 RMS=1.18D-05 Max=6.11D-04 NDo=     1
 LinEq1:  Iter= 13 NonCon=     1 RMS=1.02D-05 Max=3.92D-04 NDo=     1
 LinEq1:  Iter= 14 NonCon=     1 RMS=7.66D-06 Max=1.76D-04 NDo=     1
 LinEq1:  Iter= 15 NonCon=     1 RMS=7.40D-06 Max=2.07D-04 NDo=     1
 LinEq1:  Iter= 16 NonCon=     1 RMS=5.80D-06 Max=1.06D-04 NDo=     1
 LinEq1:  Iter= 17 NonCon=     1 RMS=4.89D-06 Max=1.36D-04 NDo=     1
 LinEq1:  Iter= 18 NonCon=     1 RMS=4.44D-06 Max=1.12D-04 NDo=     1
[...]
 0.,0.,0.,0.,0.,0.,0.,0.,0.,0.,0.,0.,0.,0.,0.,0.,0.,0.,0.,0.,0.,0.,0.,0
 .,0.,0.,0.,0.,0.,0.,0.,0.,0.,0.,0.,0.,0.,0.,0.,0.,0.,0.,0.,0.,0.,0.,0.
 ,0.,0.,0.,0.,0.,0.,0.,0.,0.,0.,0.,0.,0.,0.,0.,0.,0.,0.,0.,0.,0.,0.,0.,
 0.,0.,0.,0.,0.,0.,0.,0.,0.,0.,0.,0.,0.,0.,0.,0.,0.,0.,0.,0.,0.,0.,0.,0
 .,0.,0.,0.,0.,0.,0.,0.,0.,0.,0.,0.,0.,0.,0.,0.,0.,0.,0.,0.,0.,0.,0.,0.
 ,0.,0.,0.,0.,0.,0.,0.,0.,0.,0.,0.,0.,0.,0.,0.,0.,0.,0.,0.,0.,0.,0.,0.,
 0.,0.,0.,0.,0.,0.,0.,0.,0.,0.,0.,0.,0.,0.,0.,0.,0.,0.,0.,0.,0.,0.,0.,0
 .,0.,0.,0.,0.,0.,0.,0.,0.,0.,0.,0.,0.,0.,0.,0.,0.,0.,0.,0.,0.,0.,0.,0.
 ,0.,0.,0.,0.,0.,0.,0.,0.,0.,0.,0.,0.,0.,0.,0.,0.,0.,0.,0.,0.,0.,0.,0.,
 0.,0.,0.,0.,0.,0.,0.,0.,0.,0.,0.,0.,0.,0.,0.,0.,0.,0.,0.,0.,0.,0.,0.,0
 .,0.,0.,0.,0.,0.,0.,0.,0.,0.,0.,0.,0.,0.,0.,0.,0.,0.,0.,0.,0.,0.,0.,0.
 ,0.,0.,0.,0.,0.,0.,0.,0.,0.,0.,0.,0.,0.,0.,0.,0.,0.,0.,0.,0.,0.,0.,0.,
 0.,0.,0.,0.,0.,0.,0.,0.,0.,0.,0.,0.,0.,0.,0.,0.,0.,0.,0.,0.,0.,0.,0.,0
 .,0.,0.,0.,0.,0.,0.,0.,0.,0.,0.,0.,0.,0.,0.,0.,0.,0.,0.,0.,0.,0.,0.,0.
 ,0.,0.,0.,0.,0.,0.,0.,0.,0.,0.,0.,0.,0.,0.,0.,0.,0.,0.,0.,0.,0.,0.,0.,
 0.,0.,0.,0.,0.,0.,0.,0.,0.,0.,0.,0.,0.,0.,0.,0.,0.,0.,0.,0.,0.,0.,0.,0
 .,0.,0.,0.,0.,0.,0.,0.,0.,0.,0.,0.,0.,0.,0.,0.,0.,0.,0.,0.,0.,0.,0.,0.
 ,0.,0.,0.,0.,0.,0.,0.,0.,0.,0.,0.,0.,0.,0.,0.,0.,0.,0.,0.,0.,0.,0.,0.,
 0.,0.,0.,0.,0.,0.,0.,0.,0.,0.,0.,0.,0.,0.,0.,0.,0.,0.,0.,0.,0.,0.,0.,0
 .,0.,0.,0.,0.,0.,0.,0.,0.,0.,0.,0.,0.,0.,0.,0.,0.,0.,0.,0.,0.,0.,0.,0.
 ,0.,0.,0.,0.,0.,0.,0.,0.,0.,0.,0.,0.,0.,0.,0.,0.,0.,0.,0.,0.,0.,0.,0.,
 0.,0.,0.,0.,0.,0.,0.,0.,0.,0.,0.,0.,0.,0.,0.,0.,0.,0.,0.,0.,0.,0.,0.,0
 .,0.,0.,0.,0.,0.,0.,0.,0.,0.,0.,0.,0.,0.,0.,0.,0.,0.,0.,0.,0.,0.,0.,0.
 ,0.,0.,0.,0.,0.,0.,0.,0.,0.,0.,0.,0.,0.,0.,0.,0.,0.,0.,0.,0.,0.,0.,0.,
 0.,0.,0.,0.,0.,0.,0.,0.,0.,0.,0.,0.,0.,0.,0.,0.,0.,0.,0.,0.,0.,0.,0.,0
 .,0.,0.,0.,0.,0.,0.,0.,0.,0.,0.,0.,0.,0.,0.,0.,0.,0.,0.,0.,0.,0.,0.,0.
 ,0.,0.,0.,0.,0.,0.,0.,0.,0.,0.,0.,0.,0.,0.,0.,0.,0.,0.,0.,0.,0.,0.,0.,
 0.,0.,0.,0.,0.,0.,0.,0.,0.,0.,0.,0.,0.,0.,0.,0.,0.,0.,0.,0.,0.,0.,0.,0
 .,0.,0.,0.,0.,0.,0.,0.,0.,0.,0.,0.,0.,0.,0.,0.,0.,0.,0.,0.,0.,0.,0.,0.
 ,0.,0.,0.,0.,0.,0.,0.,0.,0.,0.,0.,0.,0.,0.,0.,0.,0.,0.,0.,0.,0.,0.,0.,
 0.,0.,0.,0.,0.,0.,0.,0.,0.,0.,0.,0.,0.,0.,0.,0.,0.,0.,0.,0.,0.,0.,0.,0
 .,0.,0.,0.,0.,0.,0.,0.,0.,0.,0.,0.,0.,0.,0.,0.,0.,0.,0.,0.,0.,0.,0.,0.
 ,0.,0.,0.,0.,0.,0.,0.,0.,0.,0.,0.,0.,0.,0.,0.,0.,0.,0.,0.,0.,0.,0.,0.,
 0.,0.,0.,0.,0.,0.,0.,0.,0.,0.,0.,0.,0.,0.,0.,0.,0.,0.,0.,0.,0.,0.,0.,0
 .,0.,0.,0.,0.,0.,0.,0.,0.,0.,0.,0.,0.,0.,0.,0.,0.,0.,0.,0.,0.,0.,0.,0.
 ,0.,0.,0.,0.,0.,0.,0.,0.,0.,0.,0.,0.,0.,0.,0.,0.,0.,0.,0.,0.,0.,0.,0.,
 0.,0.,0.,0.,0.,0.,0.,0.,0.,0.,0.,0.,0.,0.,0.,0.,0.,0.,0.,0.,0.,0.,0.,0
 .,0.,0.,0.,0.,0.,0.,0.,0.,0.,0.,0.,0.,0.,0.,0.,0.,0.,0.,0.,0.,0.,0.,0.
 ,0.,0.,0.,0.,0.,0.,0.,0.,0.,0.,0.,0.,0.,0.,0.,0.,0.,0.,0.,0.,0.,0.,0.,
 0.,0.,0.,0.,0.,0.,0.,0.,0.,0.,0.,0.,0.,0.,0.,0.,0.,0.,0.,0.,0.,0.,0.,0
 .,0.,0.,0.,0.,0.,0.,0.,0.,0.,0.,0.,0.,0.,0.,0.,0.,0.,0.,0.,0.,0.,0.,0.
 ,0.,0.,0.,0.,0.,0.,0.,0.,0.,0.,0.,0.,0.,0.,0.,0.,0.,0.,0.,0.,0.,0.,0.,
 0.,0.,0.,0.,0.,0.,0.,0.,0.,0.,0.,0.,0.,0.,0.,0.,0.,0.,0.,0.,0.,0.,0.,0
 .,0.,0.,0.,0.,0.,0.,0.,0.,0.,0.,0.,0.,0.,0.,0.,0.,0.,0.,0.,0.,0.,0.,0.
 ,0.,0.,0.,0.,0.,0.,0.,0.,0.,0.,0.,0.,0.,0.,0.,0.,0.,0.,0.,0.,0.,0.,0.,
 0.,0.,0.,0.,0.,0.,0.,0.,0.,0.,0.,0.,0.,0.,0.,0.,0.,0.,0.,0.,0.,0.,0.,0
 .,0.,0.,0.,0.,0.,0.,0.,0.,0.,0.,0.,0.,0.,0.,0.,0.,0.,0.,0.,0.,0.,0.,0.
 ,0.,0.,0.,0.,0.,0.,0.,0.,0.,0.,0.,0.,0.,0.,0.,0.,0.,0.,0.,0.,0.,0.,0.,
 0.,0.,0.,0.,0.,0.,0.,0.,0.,0.,0.,0.,0.,0.,0.,0.,0.,0.,0.,0.,0.,0.,0.,0
 .,0.,0.,0.,0.,0.,0.,0.,0.,0.,0.,0.,0.,0.,0.,0.,0.,0.,0.,0.,0.,0.,0.,0.
 ,0.,0.,0.,0.,0.,0.,0.,0.,0.,0.,0.,0.,0.,0.,0.,0.,0.,0.,0.,0.,0.,0.,0.,
 0.,0.,0.,0.,0.,0.,0.,0.,0.,0.,0.,0.,0.,0.,0.,0.,0.,0.,0.,0.,0.,0.,0.,0
 .,0.,0.,0.,0.,0.,0.,0.,0.,0.,0.,0.,0.,0.,0.,0.,0.,0.,0.,0.,0.,0.,0.,0.
 ,0.,0.,0.,0.,0.,0.,0.,0.,0.,0.,0.,0.,0.,0.,0.,0.,0.,0.,0.,0.,0.,0.,0.,
 0.,0.,0.,0.,0.,0.,0.,0.,0.,0.,0.,0.,0.,0.,0.,0.,0.,0.,0.,0.,0.,0.,0.,0
 .,0.,0.,0.,0.,0.,0.,0.,0.,0.,0.,0.,0.,0.,0.,0.,0.,0.,0.,0.,0.,0.,0.,0.
 ,0.,0.,0.,0.,0.,0.,0.,0.,0.,0.,0.,0.,0.,0.,0.,0.,0.,0.,0.,0.,0.,0.,0.,
 0.,0.,0.,0.,0.,0.,0.,0.,0.,0.,0.,0.,0.,0.,0.,0.,0.,0.,0.,0.,0.,0.,0.,0
 .,0.,0.,0.,0.,0.,0.,0.,0.,0.,0.,0.,0.,0.,0.,0.,0.,0.,0.,0.,0.,0.,0.,0.
 ,0.,0.,0.,0.,0.,0.,0.,0.,0.,0.,0.,0.,0.,0.,0.,0.,0.,0.,0.,0.,0.,0.,0.,
 0.,0.,0.,0.,0.,0.,0.,0.,0.,0.,0.,0.,0.,0.,0.,0.,0.,0.,0.,0.,0.,0.,0.,0
 .,0.,0.,0.,0.,0.,0.,0.,0.,0.,0.,0.,0.,0.,0.,0.,0.,0.,0.,0.,0.,0.,0.,0.
 ,0.,0.,0.,0.,0.,0.,0.,0.,0.,0.,0.,0.,0.,0.,0.,0.,0.,0.,0.,0.,0.,0.,0.,
 0.,0.,0.,0.,0.,0.,0.,0.,0.,0.,0.,0.,0.,0.,0.,0.,0.,0.,0.,0.,0.,0.,0.,0
 .,0.,0.,0.,0.,0.,0.,0.,0.,0.,0.,0.,0.,0.,0.,0.,0.,0.,0.,0.,0.,0.,0.,0.
 ,0.,0.,0.,0.,0.,0.,0.,0.,0.,0.,0.,0.,0.,0.,0.,0.,0.,0.,0.,0.,0.,0.,0.,
 0.,0.,0.,0.,0.,0.,0.,0.,0.,0.,0.,0.,0.,0.,0.,0.,0.,0.,0.,0.,0.,0.,0.,0
 .,0.,0.,0.,0.,0.,0.,0.,0.,0.,0.,0.,0.,0.,0.,0.,0.,0.,0.,0.,0.,0.,0.,0.
 ,0.,0.,0.,0.,0.,0.,0.,0.,0.,0.,0.,0.,0.,0.,0.,0.,0.,0.,0.,0.,0.,0.,0.,
 0.,0.,0.,0.,0.,0.,0.,0.,0.,0.,0.,0.,0.,0.,0.,0.,0.,0.,0.,0.,0.,0.,0.,0
 .,0.,0.,0.,0.,0.,0.,0.,0.,0.,0.,0.,0.,0.,0.,0.,0.,0.,0.,0.,0.,0.,0.,0.
 ,0.,0.,0.,0.,0.,0.,0.,0.,0.,0.,0.,0.,0.,0.,0.,0.,0.,0.,0.,0.,0.,0.,0.,
 0.,0.,0.,0.,0.,0.,0.,0.,0.,0.,0.,0.,0.,0.,0.,0.,0.,0.,0.,0.,0.,0.,0.,0
 .,0.,0.,0.,0.,0.,0.,0.,0.,0.,0.,0.,0.,0.,0.,0.,0.,0.,0.,0.,0.,0.,0.,0.
 ,0.,0.,0.,0.,0.,0.,0.,0.,0.,0.,0.,0.,0.,0.,0.,0.,0.,0.,0.,0.,0.,0.,0.,
 0.,0.,0.,0.,0.,0.,0.,0.,0.,0.,0.,0.,0.,0.,0.,0.,0.,0.,0.,0.,0.,0.,0.,0
 .,0.,0.,0.,0.,0.,0.,0.,0.,0.,0.,0.,0.,0.,0.,0.,0.,0.,0.,0.,0.,0.,0.,0.
 ,0.,0.,0.,0.,0.,0.,0.,0.,0.,0.,0.,0.,0.,0.,0.,0.,0.,0.,0.,0.,0.,0.,0.,
 0.,0.,0.,0.,0.,0.,0.,0.,0.,0.,0.,0.,0.,0.,0.,0.,0.,0.,0.,0.,0.,0.,0.,0
 .,0.,0.,0.,0.,0.,0.,0.,0.,0.,0.,0.,0.,0.,0.,0.,0.,0.,0.,0.,0.,0.,0.,0.
 ,0.,0.,0.,0.,0.,0.,0.,0.,0.,0.,0.,0.,0.,0.,0.,0.,0.,0.,0.,0.,0.,0.,0.,
 0.,0.,0.,0.,0.,0.,0.,0.,0.,0.,0.,0.,0.,0.,0.,0.,0.,0.,0.,0.,0.,0.,0.,0
 .,0.,0.,0.,0.,0.,0.,0.,0.,0.,0.,0.,0.,0.,0.,0.,0.,0.,0.,0.,0.,0.,0.,0.
 ,0.,0.,0.,0.,0.,0.,0.,0.,0.,0.,0.,0.,0.,0.,0.,0.,0.,0.,0.,0.,0.,0.,0.,
 0.,0.,0.,0.,0.,0.,0.,0.,0.,0.,0.,0.,0.,0.,0.,0.,0.,0.,0.,0.,0.,0.,0.,0
 .,0.,0.,0.,0.,0.,0.,0.,0.,0.,0.,0.,0.,0.,0.,0.,0.,0.,0.,0.,0.,0.,0.,0.
 ,0.,0.,0.,0.,0.,0.,0.,0.,0.,0.,0.,0.,0.,0.,0.,0.,0.,0.,0.,0.,0.,0.,0.,
 0.,0.,0.,0.,0.,0.,0.,0.,0.,0.,0.,0.,0.,0.,0.,0.,0.,0.,0.,0.,0.,0.,0.,0
 .,0.,0.,0.,0.,0.,0.,0.,0.,0.,0.,0.,0.,0.,0.,0.,0.,0.,0.,0.,0.,0.,0.,0.
 ,0.,0.,0.,0.,0.,0.,0.,0.,0.,0.,0.,0.,0.,0.,0.,0.,0.,0.,0.,0.,0.,0.,0.,
 0.,0.,0.,0.,0.,0.,0.,0.,0.,0.,0.,0.,0.,0.,0.,0.,0.,0.,0.,0.,0.,0.,0.,0
 .,0.,0.,0.,0.,0.,0.,0.,0.,0.,0.,0.,0.,0.,0.,0.,0.,0.,0.,0.,0.,0.,0.,0.
 ,0.,0.,0.,0.,0.,0.,0.,0.,0.,0.,0.,0.,0.,0.,0.,0.,0.,0.,0.,0.,0.,0.,0.,
 0.,0.,0.,0.,0.,0.,0.,0.,0.,0.,0.,0.,0.,0.,0.,0.,0.,0.,0.,0.,0.,0.,0.,0
 .,0.,0.,0.,0.,0.,0.,0.,0.,0.,0.,0.,0.,0.,0.,0.,0.,0.,0.,0.,0.,0.,0.,0.
 ,0.,0.,0.,0.,0.,0.,0.,0.,0.,0.,0.,0.,0.,0.,0.,0.,0.,0.,0.,0.,0.,0.,0.,
 0.,0.,0.,0.,0.,0.,0.,0.,0.,0.,0.,0.,0.,0.,0.,0.,0.,0.,0.,0.,0.,0.,0.,0
 .,0.,0.,0.,0.,0.,0.,0.,0.,0.,0.,0.,0.,0.,0.,0.,0.,0.,0.,0.,0.,0.,0.,0.
 ,0.,0.,0.,0.,0.,0.,0.,0.,0.,0.,0.,0.,0.,0.,0.,0.,0.,0.,0.,0.,0.,0.,0.,
 0.,0.,0.,0.,0.,0.,0.,0.,0.,0.,0.,0.,0.,0.,0.,0.,0.,0.,0.,0.,0.,0.,0.,0
 .,0.,0.,0.,0.,0.,0.,0.,0.,0.,0.,0.,0.,0.,0.,0.,0.,0.,0.,0.,0.,0.,0.,0.
 ,0.,0.,0.,0.,0.,0.,0.,0.,0.,0.,0.,0.,0.,0.,0.,0.,0.,0.,0.,0.,0.,0.,0.,
 0.,0.,0.,0.,0.,0.,0.,0.,0.,0.,0.,0.,0.,0.,0.,0.,0.,0.,0.,0.,0.,0.,0.,0
 .,0.,0.,0.,0.,0.,0.,0.,0.,0.,0.,0.,0.,0.,0.,0.,0.,0.,0.,0.,0.,0.,0.,0.
 ,0.,0.,0.,0.,0.,0.,0.,0.,0.,0.,0.,0.,0.,0.,0.,0.,0.,0.,0.,0.,0.,0.,0.,
 0.,0.,0.,0.,0.,0.,0.,0.,0.,0.,0.,0.,0.,0.,0.,0.,0.,0.,0.,0.,0.,0.,0.,0
 .,0.,0.,0.,0.,0.,0.,0.,0.,0.,0.,0.,0.,0.,0.,0.,0.,0.,0.,0.,0.,0.,0.,0.
 ,0.,0.,0.,0.,0.,0.,0.,0.,0.,0.,0.,0.,0.,0.,0.,0.,0.,0.,0.,0.,0.,0.,0.,
 0.,0.,0.,0.,0.,0.,0.,0.,0.,0.,0.,0.,0.,0.,0.,0.,0.,0.,0.,0.,0.,0.,0.,0
 .,0.,0.,0.,0.,0.,0.,0.,0.,0.,0.,0.,0.,0.,0.,0.,0.,0.,0.,0.,0.,0.,0.,0.
 ,0.,0.,0.,0.,0.,0.,0.,0.,0.,0.,0.,0.,0.,0.,0.,0.,0.,0.,0.,0.,0.,0.,0.,
 0.,0.,0.,0.,0.,0.,0.,0.,0.,0.,0.,0.,0.,0.,0.,0.,0.,0.,0.,0.,0.,0.,0.,0
 .,0.,0.,0.,0.,0.,0.,0.,0.,0.,0.,0.,0.,0.,0.,0.,0.,0.,0.,0.,0.,0.,0.,0.
 ,0.,0.,0.,0.,0.,0.,0.,0.,0.,0.,0.,0.,0.,0.,0.,0.,0.,0.,0.,0.,0.,0.,0.,
 0.,0.,0.,0.,0.,0.,0.,0.,0.,0.,0.,0.,0.,0.,0.,0.,0.,0.,0.,0.,0.,0.,0.,0
 .,0.,0.,0.,0.,0.,0.,0.,0.,0.,0.,0.,0.,0.,0.,0.,0.,0.,0.,0.,0.,0.,0.,0.
 ,0.,0.,0.,0.,0.,0.,0.,0.,0.,0.,0.,0.,0.,0.,0.,0.,0.,0.,0.,0.,0.,0.,0.,
 0.,0.,0.,0.,0.,0.,0.,0.,0.,0.,0.,0.,0.,0.,0.,0.,0.,0.,0.,0.,0.,0.,0.,0
 .,0.,0.,0.,0.,0.,0.,0.,0.,0.,0.,0.,0.,0.,0.,0.,0.,0.,0.,0.,0.,0.,0.,0.
 ,0.,0.,0.,0.,0.,0.,0.,0.,0.,0.,0.,0.,0.,0.,0.,0.,0.,0.,0.,0.,0.,0.,0.,
 0.,0.,0.,0.,0.,0.,0.,0.,0.,0.,0.,0.,0.,0.,0.,0.,0.,0.,0.,0.,0.,0.,0.,0
 .,0.,0.,0.,0.,0.,0.,0.,0.,0.,0.,0.,0.,0.,0.,0.,0.,0.,0.,0.,0.,0.,0.,0.
 ,0.,0.,0.,0.,0.,0.,0.,0.,0.,0.,0.,0.,0.,0.,0.,0.,0.,0.,0.,0.,0.,0.,0.,
 0.,0.,0.,0.,0.,0.,0.,0.,0.,0.,0.,0.,0.,0.,0.,0.,0.,0.,0.,0.,0.,0.,0.,0
 .,0.,0.,0.,0.,0.,0.,0.,0.,0.,0.,0.,0.,0.,0.,0.,0.,0.,0.,0.,0.,0.,0.,0.
 ,0.,0.,0.,0.,0.,0.,0.,0.,0.,0.,0.,0.,0.,0.,0.,0.,0.,0.,0.,0.,0.,0.,0.,
 0.,0.,0.,0.,0.,0.,0.,0.,0.,0.,0.,0.,0.,0.,0.,0.,0.,0.,0.,0.,0.,0.,0.,0
 .,0.,0.,0.,0.,0.,0.,0.,0.,0.,0.,0.,0.,0.,0.,0.,0.,0.,0.,0.,0.,0.,0.,0.
 ,0.,0.,0.,0.,0.,0.,0.,0.,0.,0.,0.,0.,0.,0.,0.,0.,0.,0.,0.,0.,0.,0.,0.,
 0.,0.,0.,0.,0.,0.,0.,0.,0.,0.,0.,0.,0.,0.,0.,0.,0.,0.,0.,0.,0.,0.,0.,0
 .,0.,0.,0.,0.,0.,0.,0.,0.,0.,0.,0.,0.,0.,0.,0.,0.,0.,0.,0.,0.,0.,0.,0.
 ,0.,0.,0.,0.,0.,0.,0.,0.,0.,0.,0.,0.,0.,0.,0.,0.,0.,0.,0.,0.,0.,0.,0.,
 0.,0.,0.,0.,0.,0.,0.,0.,0.,0.,0.,0.,0.,0.,0.,0.,0.,0.,0.,0.,0.,0.,0.,0
 .,0.,0.,0.,0.,0.,0.,0.,0.,0.,0.,0.,0.,0.,0.,0.,0.,0.,0.,0.,0.,0.,0.,0.
 ,0.,0.,0.,0.,0.,0.,0.,0.,0.,0.,0.,0.,0.,0.,0.,0.,0.,0.,0.,0.,0.,0.,0.,
 0.,0.,0.,0.,0.,0.,0.,0.,0.,0.,0.,0.,0.,0.,0.,0.,0.,0.,0.,0.,0.,0.,0.,0
 .,0.,0.,0.,0.,0.,0.,0.,0.,0.,0.,0.,0.,0.,0.,0.,0.,0.,0.,0.,0.,0.,0.,0.
 ,0.,0.,0.,0.,0.,0.,0.,0.,0.,0.,0.,0.,0.,0.,0.,0.,0.,0.,0.,0.,0.,0.,0.,
 0.,0.,0.,0.,0.,0.,0.,0.,0.,0.,0.,0.,0.,0.,0.,0.,0.,0.,0.,0.,0.,0.,0.,0
 .,0.,0.,0.,0.,0.,0.,0.,0.,0.,0.,0.,0.,0.,0.,0.,0.,0.,0.,0.,0.,0.,0.,0.
 ,0.,0.,0.,0.,0.,0.,0.,0.,0.,0.,0.,0.,0.,0.,0.,0.,0.,0.,0.,0.,0.,0.,0.,
 0.,0.,0.,0.,0.,0.,0.,0.,0.,0.,0.,0.,0.,0.,0.,0.,0.,0.,0.,0.,0.,0.,0.,0
 .,0.,0.,0.,0.,0.,0.,0.,0.,0.,0.,0.,0.,0.,0.,0.,0.,0.,0.,0.,0.,0.,0.,0.
 ,0.,0.,0.,0.,0.,0.,0.,0.,0.,0.,0.,0.,0.,0.,0.,0.,0.,0.,0.,0.,0.,0.,0.,
 0.,0.,0.,0.,0.,0.,0.,0.,0.,0.,0.,0.,0.,0.,0.,0.,0.,0.,0.,0.,0.,0.,0.,0
 .,0.,0.,0.,0.,0.,0.,0.,0.,0.,0.,0.,0.,0.,0.,0.,0.,0.,0.,0.,0.,0.,0.,0.
 ,0.,0.,0.,0.,0.,0.,0.,0.,0.,0.,0.,0.,0.,0.,0.,0.,0.,0.,0.,0.,0.,0.,0.,
 0.,0.,0.,0.,0.,0.,0.,0.,0.,0.,0.,0.,0.,0.,0.,0.,0.,0.,0.,0.,0.,0.,0.,0
 .,0.,0.,0.,0.,0.,0.,0.,0.,0.,0.,0.,0.,0.,0.,0.,0.,0.,0.,0.,0.,0.,0.,0.
 ,0.,0.,0.,0.,0.,0.,0.,0.,0.,0.,0.,0.,0.,0.,0.,0.,0.,0.,0.,0.,0.,0.,0.,
 0.,0.,0.,0.,0.,0.,0.,0.,0.,0.,0.,0.,0.,0.,0.,0.,0.,0.,0.,0.,0.,0.,0.,0
 .,0.,0.,0.,0.,0.,0.,0.,0.,0.,0.,0.,0.,0.,0.,0.,0.,0.,0.,0.,0.,0.,0.,0.
 ,0.,0.,0.,0.,0.,0.,0.,0.,0.,0.,0.,0.,0.,0.,0.,0.,0.,0.,0.,0.,0.,0.,0.,
 0.,0.,0.,0.,0.,0.,0.,0.,0.,0.,0.,0.,0.,0.,0.,0.,0.,0.,0.,0.,0.,0.,0.,0
 .,0.,0.,0.,0.,0.,0.,0.,0.,0.,0.,0.,0.,0.,0.,0.,0.,0.,0.,0.,0.,0.,0.,0.
 ,0.,0.,0.,0.,0.,0.,0.,0.,0.,0.,0.,0.,0.,0.,0.,0.,0.,0.,0.,0.,0.,0.,0.,
 0.,0.,0.,0.,0.,0.,0.,0.,0.,0.,0.,0.,0.,0.,0.,0.,0.,0.,0.,0.,0.,0.,0.,0
 .,0.,0.,0.,0.,0.,0.,0.,0.,0.,0.,0.,0.,0.,0.,0.,0.,0.,0.,0.,0.,0.,0.,0.
 ,0.,0.,0.,0.,0.,0.,0.,0.,0.,0.,0.,0.,0.,0.,0.,0.,0.,0.,0.,0.,0.,0.,0.,
 0.,0.,0.,0.,0.,0.,0.,0.,0.,0.,0.,0.,0.,0.,0.,0.,0.,0.,0.,0.,0.,0.,0.,0
 .,0.,0.,0.,0.,0.,0.,0.,0.,0.,0.,0.,0.,0.,0.,0.,0.,0.,0.,0.,0.,0.,0.,0.
 ,0.,0.,0.,0.,0.,0.,0.,0.,0.,0.,0.,0.,0.,0.,0.,0.,0.,0.,0.,0.,0.,0.,0.,
 0.,0.,0.,0.,0.,0.,0.,0.,0.,0.,0.,0.,0.,0.,0.,0.,0.,0.,0.,0.,0.,0.,0.,0
 .,0.,0.,0.,0.,0.,0.,0.,0.,0.,0.,0.,0.,0.,0.,0.,0.,0.,0.,0.,0.,0.,0.,0.
 ,0.,0.,0.,0.,0.,0.,0.,0.,0.,0.,0.,0.,0.,0.,0.,0.,0.,0.,0.,0.,0.,0.,0.,
 0.,0.,0.,0.,0.,0.,0.,0.,0.,0.,0.,0.,0.,0.,0.,0.,0.,0.,0.,0.,0.,0.,0.,0
 .,0.,0.,0.,0.,0.,0.,0.,0.,0.,0.,0.,0.,0.,0.,0.,0.,0.,0.,0.,0.,0.,0.,0.
 ,0.,0.,0.,0.,0.,0.,0.,0.,0.,0.,0.,0.,0.,0.,0.,0.,0.,0.,0.,0.,0.,0.,0.,
 0.,0.,0.,0.,0.,0.,0.,0.,0.,0.,0.,0.,0.,0.,0.,0.,0.,0.,0.,0.,0.,0.,0.,0
 .,0.,0.,0.,0.,0.,0.,0.,0.,0.,0.,0.,0.,0.,0.,0.,0.,0.,0.,0.,0.,0.,0.,0.
 ,0.,0.,0.,0.,0.,0.,0.,0.,0.,0.,0.,0.,0.,0.,0.,0.,0.,0.,0.,0.,0.,0.,0.,
 0.,0.,0.,0.,0.,0.,0.,0.,0.,0.,0.,0.,0.,0.,0.,0.,0.,0.,0.,0.,0.,0.,0.,0
 .,0.,0.,0.,0.,0.,0.,0.,0.,0.,0.,0.,0.,0.,0.,0.,0.,0.,0.,0.,0.,0.,0.,0.
 ,0.,0.,0.,0.,0.,0.,0.,0.,0.,0.,0.,0.,0.,0.,0.,0.,0.,0.,0.,0.,0.,0.,0.,
 0.,0.,0.,0.,0.,0.,0.,0.,0.,0.,0.,0.,0.,0.,0.,0.,0.,0.,0.,0.,0.,0.,0.,0
 .,0.,0.,0.,0.,0.,0.,0.,0.,0.,0.,0.,0.,0.,0.,0.,0.,0.,0.,0.,0.,0.,0.,0.
 ,0.,0.,0.,0.,0.,0.,0.,0.,0.,0.,0.,0.,0.,0.,0.,0.,0.,0.,0.,0.,0.,0.,0.,
 0.,0.,0.,0.,0.,0.,0.,0.,0.,0.,0.,0.,0.,0.,0.,0.,0.,0.,0.,0.,0.,0.,0.,0
 .,0.,0.,0.,0.,0.,0.,0.,0.,0.,0.,0.,0.,0.,0.,0.,0.,0.,0.,0.,0.,0.,0.,0.
 ,0.,0.,0.,0.,0.,0.,0.,0.,0.,0.,0.,0.,0.,0.,0.,0.,0.,0.,0.,0.,0.,0.,0.,
 0.,0.,0.,0.,0.,0.,0.,0.,0.,0.,0.,0.,0.,0.,0.,0.,0.,0.,0.,0.,0.,0.,0.,0
 .,0.,0.,0.,0.,0.,0.,0.,0.,0.,0.,0.,0.,0.,0.,0.,0.,0.,0.,0.,0.,0.,0.,0.
 ,0.,0.,0.,0.,0.,0.,0.,0.,0.,0.,0.,0.,0.,0.,0.,0.,0.,0.,0.,0.,0.,0.,0.,
 0.,0.,0.,0.,0.,0.,0.,0.,0.,0.,0.,0.,0.,0.,0.,0.,0.,0.,0.,0.,0.,0.,0.,0
 .,0.,0.,0.,0.,0.,0.,0.,0.,0.,0.,0.,0.,0.,0.,0.,0.,0.,0.,0.,0.,0.,0.,0.
 ,0.,0.,0.,0.,0.,0.,0.,0.,0.,0.,0.,0.,0.,0.,0.,0.,0.,0.,0.,0.,0.,0.,0.,
 0.,0.,0.,0.,0.,0.,0.,0.,0.,0.,0.,0.,0.,0.,0.,0.,0.,0.,0.,0.,0.,0.,0.,0
 .,0.,0.,0.,0.,0.,0.,0.,0.,0.,0.,0.,0.,0.,0.,0.,0.,0.,0.,0.,0.,0.,0.,0.
 ,0.,0.,0.,0.,0.,0.,0.,0.,0.,0.,0.,0.,0.,0.,0.,0.,0.,0.,0.,0.,0.,0.,0.,
 0.,0.,0.,0.,0.,0.,0.,0.,0.,0.,0.,0.,0.,0.,0.,0.,0.,0.,0.,0.,0.,0.,0.,0
 .,0.,0.,0.,0.,0.,0.,0.,0.,0.,0.,0.,0.,0.,0.,0.,0.,0.,0.,0.,0.,0.,0.,0.
 ,0.,0.,0.,0.,0.,0.,0.,0.,0.,0.,0.,0.,0.,0.,0.,0.,0.,0.,0.,0.,0.,0.,0.,
 0.,0.,0.,0.,0.,0.,0.,0.,0.,0.,0.,0.,0.,0.,0.,0.,0.,0.,0.,0.,0.,0.,0.,0
 .,0.,0.,0.,0.,0.,0.,0.,0.,0.,0.,0.,0.,0.,0.,0.,0.,0.,0.,0.,0.,0.,0.,0.
 ,0.,0.,0.,0.,0.,0.,0.,0.,0.,0.,0.,0.,0.,0.,0.,0.,0.,0.,0.,0.,0.,0.,0.,
 0.,0.,0.,0.,0.,0.,0.,0.,0.,0.,0.,0.,0.,0.,0.,0.,0.,0.,0.,0.,0.,0.,0.,0
 .,0.,0.,0.,0.,0.,0.,0.,0.,0.,0.,0.,0.,0.,0.,0.,0.,0.,0.,0.,0.,0.,0.,0.
 ,0.,0.,0.,0.,0.,0.,0.,0.,0.,0.,0.,0.,0.,0.,0.,0.,0.,0.,0.,0.,0.,0.,0.,
 0.,0.,0.,0.,0.,0.,0.,0.,0.,0.,0.,0.,0.,0.,0.,0.,0.,0.,0.,0.,0.,0.,0.,0
 .,0.,0.,0.,0.,0.,0.,0.,0.,0.,0.,0.,0.,0.,0.,0.,0.,0.,0.,0.,0.,0.,0.,0.
 ,0.,0.,0.,0.,0.,0.,0.,0.,0.,0.,0.,0.,0.,0.,0.,0.,0.,0.,0.,0.,0.,0.,0.,
 0.,0.,0.,0.,0.,0.,0.,0.,0.,0.,0.,0.,0.,0.,0.,0.,0.,0.,0.,0.,0.,0.,0.,0
 .,0.,0.,0.,0.,0.,0.,0.,0.,0.,0.,0.,0.,0.,0.,0.,0.,0.,0.,0.,0.,0.,0.,0.
 ,0.,0.,0.,0.,0.,0.,0.,0.,0.,0.,0.,0.,0.,0.,0.,0.,0.,0.,0.,0.,0.,0.,0.,
 0.,0.,0.,0.,0.,0.,0.,0.,0.,0.,0.,0.,0.,0.,0.,0.,0.,0.,0.,0.,0.,0.,0.,0
 .,0.,0.,0.,0.,0.,0.,0.,0.,0.,0.,0.,0.,0.,0.,0.,0.,0.,0.,0.,0.,0.,0.,0.
 ,0.,0.,0.,0.,0.,0.,0.,0.,0.,0.,0.,0.,0.,0.,0.,0.,0.,0.,0.,0.,0.,0.,0.,
 0.,0.,0.,0.,0.,0.,0.,0.,0.,0.,0.,0.,0.,0.,0.,0.,0.,0.,0.,0.,0.,0.,0.,0
 .,0.,0.,0.,0.,0.,0.,0.,0.,0.,0.,0.,0.,0.,0.,0.,0.,0.,0.,0.,0.,0.,0.,0.
 ,0.,0.,0.,0.,0.,0.,0.,0.,0.,0.,0.,0.,0.,0.,0.,0.,0.,0.,0.,0.,0.,0.,0.,
 0.,0.,0.,0.,0.,0.,0.,0.,0.,0.,0.,0.,0.,0.,0.,0.,0.,0.,0.,0.,0.,0.,0.,0
 .,0.,0.,0.,0.,0.,0.,0.,0.,0.,0.,0.,0.,0.,0.,0.,0.,0.,0.,0.,0.,0.,0.,0.
 ,0.,0.,0.,0.,0.,0.,0.,0.,0.,0.,0.,0.,0.,0.,0.,0.,0.,0.,0.,0.,0.,0.,0.,
 0.,0.,0.,0.,0.,0.,0.,0.,0.,0.,0.,0.,0.,0.,0.,0.,0.,0.,0.,0.,0.,0.,0.,0
 .,0.,0.,0.,0.,0.,0.,0.,0.,0.,0.,0.,0.,0.,0.,0.,0.,0.,0.,0.,0.,0.,0.,0.
 ,0.,0.,0.,0.,0.,0.,0.,0.,0.,0.,0.,0.,0.,0.,0.,0.,0.,0.,0.,0.,0.,0.,0.,
 0.,0.,0.,0.,0.,0.,0.,0.,0.,0.,0.,0.,0.,0.,0.,0.,0.,0.,0.,0.,0.,0.,0.,0
 .,0.,0.,0.,0.,0.,0.,0.,0.,0.,0.,0.,0.,0.,0.,0.,0.,0.,0.,0.,0.,0.,0.,0.
 ,0.,0.,0.,0.,0.,0.,0.,0.,0.,0.,0.,0.,0.,0.,0.,0.,0.,0.,0.,0.,0.,0.,0.,
 0.,0.,0.,0.,0.,0.,0.,0.,0.,0.,0.,0.,0.,0.,0.,0.,0.,0.,0.,0.,0.,0.,0.,0
 .,0.,0.,0.,0.,0.,0.,0.,0.,0.,0.,0.,0.,0.,0.,0.,0.,0.,0.,0.,0.,0.,0.,0.
 ,0.,0.,0.,0.,0.,0.,0.,0.,0.,0.,0.,0.,0.,0.,0.,0.,0.,0.,0.,0.,0.,0.,0.,
 0.,0.,0.,0.,0.,0.,0.,0.,0.,0.,0.,0.,0.,0.,0.,0.,0.,0.,0.,0.,0.,0.,0.,0
 .,0.,0.,0.,0.,0.,0.,0.,0.,0.,0.,0.,0.,0.,0.,0.,0.,0.,0.,0.,0.,0.,0.,0.
 ,0.,0.,0.,0.,0.,0.,0.,0.,0.,0.,0.,0.,0.,0.,0.,0.,0.,0.,0.,0.,0.,0.,0.,
 0.,0.,0.,0.,0.,0.,0.,0.,0.,0.,0.,0.,0.,0.,0.,0.,0.,0.,0.,0.,0.,0.,0.,0
 .,0.,0.,0.,0.,0.,0.,0.,0.,0.,0.,0.,0.,0.,0.,0.,0.,0.,0.,0.,0.,0.,0.,0.
 ,0.,0.,0.,0.,0.,0.,0.,0.,0.,0.,0.,0.,0.,0.,0.,0.,0.,0.,0.,0.,0.,0.,0.,
 0.,0.,0.,0.,0.,0.,0.,0.,0.,0.,0.,0.83640080,0.,0.,0.,0.,0.,0.,0.,0.,0.
 ,0.,0.,0.,0.,0.,0.,0.,0.,0.,0.,0.,0.,0.,0.,0.,0.,0.,0.,0.,0.,0.,0.,0.,
 0.,0.,0.,0.,0.,0.,0.,0.,0.,0.,0.,0.,0.,0.,0.,0.,0.,0.,0.,0.,0.,0.,0.,0
 .,0.,0.,0.,0.,0.,0.,0.,0.,0.,0.,0.,0.,0.,0.,0.,0.,0.,0.,0.,0.,0.,0.,0.
 ,0.,0.,0.,0.,0.,0.,0.,0.,0.,0.,0.,0.,0.,0.,0.,0.,0.,0.,0.,0.,0.,0.,0.,
 0.,0.,0.,0.,0.,0.,0.,0.,0.,0.,0.,0.,0.,0.,0.,0.,0.,0.,0.,0.,0.,0.,0.,0
 .,0.,0.,0.,0.,0.,0.,0.,0.,0.,0.,0.,0.,0.,0.,0.,0.,0.,0.,-0.45763066,0.
 16617315,0.,0.,0.,0.,0.,0.,0.,0.,0.,0.,0.,0.,0.,0.,0.,0.,0.,0.,0.,0.,0
 .,0.,0.,0.,0.,0.,0.,0.,0.,0.,0.,0.,0.,0.,0.,0.,0.,0.,0.,0.,0.,0.,0.,0.
 ,0.,0.,0.,0.,0.,0.,0.,0.,0.,0.,0.,0.,0.,0.,0.,0.,0.,0.,0.,0.,0.,0.,0.,
 0.,0.,0.,0.,0.,0.,0.,0.,0.,0.,0.,0.,0.,0.,0.,0.,0.,0.,0.,0.,0.,0.,0.,0
 .,0.,0.,0.,0.,0.,0.,0.,0.,0.,0.,0.,0.,0.,0.,0.,0.,0.,0.,0.,0.,0.,0.,0.
 ,0.,0.,0.,0.,0.,0.,0.,0.,0.,0.,0.,0.,0.,0.,0.,0.,0.,0.,0.,0.,0.,0.,0.,
 0.,0.,0.,0.,0.,0.,0.,-0.11360778,0.09417786,0.08489261,0.,0.,0.,0.,0.,
 0.,0.,0.,0.,0.,0.,0.,0.,0.,0.,0.,0.,0.,0.,0.,0.,0.,0.,0.,0.,0.,0.,0.,0
 .,0.,0.,0.,0.,0.,0.,0.,0.,0.,0.,0.,0.,0.,0.,0.,0.,0.,0.,0.,0.,0.,0.,0.
 ,0.,0.,0.,0.,0.,0.,0.,0.,0.,0.,0.,0.,0.,0.,0.,0.,0.,0.,0.,0.,0.,0.,0.,
 0.,0.,0.,0.,0.,0.,0.,0.,0.,0.,0.,0.,0.,0.,0.,0.,0.,0.,0.,0.,0.,0.,0.,0
 .,0.,0.,0.,0.,0.,0.,0.,0.,0.,0.,0.,0.,0.,0.,0.,0.,0.,0.,0.,0.,0.,0.,0.
 ,0.,0.,0.,0.,0.,0.,0.,0.,0.,0.,0.,0.,0.,0.,0.,0.,0.,0.,0.,0.,0.,0.,-0.
 86657029,0.46260365,0.12068206,0.85934957,0.,0.,0.,0.,0.,0.,0.,0.,0.,0
 .,0.,0.,0.,0.,0.,0.,0.,0.,0.,0.,0.,0.,0.,0.,0.,0.,0.,0.,0.,0.,0.,0.,0.
 ,0.,0.,0.,0.,0.,0.,0.,0.,0.,0.,0.,0.,0.,0.,0.,0.,0.,0.,0.,0.,0.,0.,0.,
 0.,0.,0.,0.,0.,0.,0.,0.,0.,0.,0.,0.,0.,0.,0.,0.,0.,0.,0.,0.,0.,0.,0.,0
 .,0.,0.,0.,0.,0.,0.,0.,0.,0.,0.,0.,0.,0.,0.,0.,0.,0.,0.,0.,0.,0.,0.,0.
 ,0.,0.,0.,0.,0.,0.,0.,0.,0.,0.,0.,0.,0.,0.,0.,0.,0.,0.,0.,0.,0.,0.,0.,
 0.,0.,0.,0.,0.,0.,0.,0.,0.,0.,0.,0.,0.,0.,0.,0.,0.,0.,0.48950696,-0.19
 660658,-0.05429024,-0.48866070,0.20863370,0.,0.,0.,0.,0.,0.,0.,0.,0.,0
 .,0.,0.,0.,0.,0.,0.,0.,0.,0.,0.,0.,0.,0.,0.,0.,0.,0.,0.,0.,0.,0.,0.,0.
 ,0.,0.,0.,0.,0.,0.,0.,0.,0.,0.,0.,0.,0.,0.,0.,0.,0.,0.,0.,0.,0.,0.,0.,
 0.,0.,0.,0.,0.,0.,0.,0.,0.,0.,0.,0.,0.,0.,0.,0.,0.,0.,0.,0.,0.,0.,0.,0
 .,0.,0.,0.,0.,0.,0.,0.,0.,0.,0.,0.,0.,0.,0.,0.,0.,0.,0.,0.,0.,0.,0.,0.
 ,0.,0.,0.,0.,0.,0.,0.,0.,0.,0.,0.,0.,0.,0.,0.,0.,0.,0.,0.,0.,0.,0.,0.,
 0.,0.,0.,0.,0.,0.,0.,0.,0.,0.,0.,0.,0.,0.,0.,0.,0.,0.,0.21343873,-0.09
 796168,0.05503520,-0.20881216,0.11439226,0.00030424||0.,0.,0.,0.,0.,0.
 ,0.,0.,0.,0.,0.,0.,0.,0.,0.,0.,0.,0.,0.,0.,0.,0.,0.,0.,0.,0.,0.,0.,0.,
 0.,0.,0.,0.,0.,0.,0.,0.,0.,0.,0.,0.,0.,0.,0.,0.,0.,0.,0.,0.,0.,0.,0.,0
 .,0.,0.,0.,0.,0.,0.,0.,0.,0.,0.,0.,0.,0.,0.,0.,0.,0.,0.,0.,0.,0.,0.,0.
 ,0.,0.,0.,0.,0.,0.,0.,0.,0.,0.,0.,0.,0.,0.,0.,0.,0.,0.,0.,0.,0.,0.,0.,
 0.,0.,0.,0.,0.,0.,0.,0.,0.,0.,0.,0.,0.,0.,0.,0.,0.,0.,0.,0.,0.,0.,0.,0
 .,0.,0.,0.,0.,0.,0.,0.,0.,0.,0.,0.,0.,0.,0.,0.,0.,0.,0.,0.,0.,0.,-0.10
 557443,0.03270244,-0.06923495,0.10229191,-0.05720884,-0.03717839|||@


 O WAD SOME POWER THE GIFTIE GIE US       
 TO SEE OURSELS AS OTHERS SEE US.....     
 IT WOULD FRAE MONIE A BLUNDER FREE US,   
                     AND FOOLISH NOTION...
 WHAT AIRS IN DRESS AND GAIT WAD LEA'E US,
                     AND EV'N DEVOTION....
                                          
              (ROBERT BURNS 'TO A LOUSE') 
 Job cpu time:       0 days  0 hours 16 minutes 23.0 seconds.
 File lengths (MBytes):  RWF=   1792 Int=      0 D2E=      0 Chk=     17 Scr=      1
 Normal termination of Gaussian 09 at Sun Jan 05 17:48:36 2025.
