 Entering Link 1 = C:\G09W\l1.exe PID=      2688.
  
 Copyright (c) 1988,1990,1992,1993,1995,1998,2003,2009,2013,
            Gaussian, Inc.  All Rights Reserved.
  
 This is part of the Gaussian(R) 09 program.  It is based on
 the Gaussian(R) 03 system (copyright 2003, Gaussian, Inc.),
 the Gaussian(R) 98 system (copyright 1998, Gaussian, Inc.),
 the Gaussian(R) 94 system (copyright 1995, Gaussian, Inc.),
 the Gaussian 92(TM) system (copyright 1992, Gaussian, Inc.),
 the Gaussian 90(TM) system (copyright 1990, Gaussian, Inc.),
 the Gaussian 88(TM) system (copyright 1988, Gaussian, Inc.),
 the Gaussian 86(TM) system (copyright 1986, Carnegie Mellon
 University), and the Gaussian 82(TM) system (copyright 1983,
 Carnegie Mellon University). Gaussian is a federally registered
 trademark of Gaussian, Inc.
  
 This software contains proprietary and confidential information,
 including trade secrets, belonging to Gaussian, Inc.
  
 This software is provided under written license and may be
 used, copied, transmitted, or stored only in accord with that
 written license.
  
 The following legend is applicable only to US Government
 contracts under FAR:
  
                    RESTRICTED RIGHTS LEGEND
  
 Use, reproduction and disclosure by the US Government is
 subject to restrictions as set forth in subparagraphs (a)
 and (c) of the Commercial Computer Software - Restricted
 Rights clause in FAR 52.227-19.
  
 Gaussian, Inc.
 340 Quinnipiac St., Bldg. 40, Wallingford CT 06492
  
  
 ---------------------------------------------------------------
 Warning -- This program may not be used in any manner that
 competes with the business of Gaussian, Inc. or will provide
 assistance to any competitor of Gaussian, Inc.  The licensee
 of this program is prohibited from giving any competitor of
 Gaussian, Inc. access to this program.  By using this program,
 the user acknowledges that Gaussian, Inc. is engaged in the
 business of creating and licensing software in the field of
 computational chemistry and represents and warrants to the
 licensee that it is not a competitor of Gaussian, Inc. and that
 it will not use this program in any manner prohibited above.
 ---------------------------------------------------------------
  

 Cite this work as:
 Gaussian 09, Revision D.01,
 M. J. Frisch, G. W. Trucks, H. B. Schlegel, G. E. Scuseria, 
 M. A. Robb, J. R. Cheeseman, G. Scalmani, V. Barone, B. Mennucci, 
 G. A. Petersson, H. Nakatsuji, M. Caricato, X. Li, H. P. Hratchian, 
 A. F. Izmaylov, J. Bloino, G. Zheng, J. L. Sonnenberg, M. Hada, 
 M. Ehara, K. Toyota, R. Fukuda, J. Hasegawa, M. Ishida, T. Nakajima, 
 Y. Honda, O. Kitao, H. Nakai, T. Vreven, J. A. Montgomery, Jr., 
 J. E. Peralta, F. Ogliaro, M. Bearpark, J. J. Heyd, E. Brothers, 
 K. N. Kudin, V. N. Staroverov, T. Keith, R. Kobayashi, J. Normand, 
 K. Raghavachari, A. Rendell, J. C. Burant, S. S. Iyengar, J. Tomasi, 
 M. Cossi, N. Rega, J. M. Millam, M. Klene, J. E. Knox, J. B. Cross, 
 V. Bakken, C. Adamo, J. Jaramillo, R. Gomperts, R. E. Stratmann, 
 O. Yazyev, A. J. Austin, R. Cammi, C. Pomelli, J. W. Ochterski, 
 R. L. Martin, K. Morokuma, V. G. Zakrzewski, G. A. Voth, 
 P. Salvador, J. J. Dannenberg, S. Dapprich, A. D. Daniels, 
 O. Farkas, J. B. Foresman, J. V. Ortiz, J. Cioslowski, 
 and D. J. Fox, Gaussian, Inc., Wallingford CT, 2013.
 
 ******************************************
 Gaussian 09:  IA32W-G09RevD.01 24-Apr-2013
                23-Dec-2024 
 ******************************************
 %nprocshared=2
 Will use up to    2 processors via shared memory.
 %mem=1GB
 %chk=C:\Users\Yash Shaw\Desktop\GaussView Work\New work\Rh doped MoS2+H2S\Rh dop
 ed MoS2+H2S gas_Freq opt.chk
 ------------------------------------------------
 # freq pm6 guess=huckel scf=qc geom=connectivity
 ------------------------------------------------
 1/10=4,30=1,38=1,57=2/1,3;
 2/12=2,17=6,18=5,40=1/2;
 3/5=2,16=1,25=1,41=3900000,71=2,140=1/1,2,3;
 4/11=4,35=1/1;
 5/5=2,8=3,35=1,38=5,98=1/8;
 8/6=4,10=90,11=11/1;
 11/6=1,8=1,9=11,15=111,16=1/1,2,10;
 10/6=1/2;
 6/7=2,8=2,9=2,10=2,18=1,28=1/1;
 7/8=1,10=1,25=1/1,2,3,16;
 1/10=4,30=1/3;
 99//99;
 ---------------------
 Rh doped MoS2+H2S gas
 ---------------------
 Symbolic Z-matrix:
 Charge =  0 Multiplicity = 2
 Mo                   -1   -1.77578  -0.25302  -0.36637 
 S                    -1   -3.04892   0.82896   1.38005 
 S                    -1   -3.78212   0.26598  -1.61008 
 Mo                   -1    1.30698  -0.04605  -1.16126 
 Mo                   -1    4.38975   0.16091  -1.95615 
 Mo                   -1    7.47251   0.36788  -2.75104 
 S                    -1    0.03385   1.03593   0.58517 
 S                    -1    3.11661   1.24289  -0.20972 
 S                    -1    6.19938   1.44986  -1.00461 
 S                    -1   -0.69936   0.47294  -2.40497 
 S                    -1    2.38341   0.67991  -3.19985 
 S                    -1    5.46617   0.88687  -3.99474 
 Mo                   -1   -3.61223   2.35541  -0.40718 
 Mo                   -1   -5.44868   4.96384  -0.44798 
 Mo                   -1   -7.28513   7.57227  -0.48879 
 S                    -1   -4.88537   3.43739   1.33925 
 S                    -1   -6.72182   6.04582   1.29845 
 S                    -1   -8.55827   8.65425   1.25764 
 S                    -1   -5.61857   2.87441  -1.65088 
 S                    -1   -7.45502   5.48284  -1.69169 
 S                    -1   -9.29147   8.09126  -1.73249 
 Mo                   -1   -0.52947   2.56238  -1.20207 
 Mo                   -1   -2.36592   5.17081  -1.24287 
 Mo                   -1   -4.20237   7.77923  -1.28367 
 Mo                   -1    2.5533    2.76934  -1.99695 
 Mo                   -1   -1.11961   7.9862   -2.07856 
 Mo                   -1    5.63606   2.97631  -2.79184 
 Mo                   -1    3.79961   5.58474  -2.83264 
 Mo                   -1    1.96316   8.19316  -2.87345 
 S                    -1   -1.8026    3.64436   0.54436 
 S                    -1   -3.63905   6.25279   0.50356 
 S                    -1   -5.4755    8.86121   0.46275 
 S                    -1    1.28016   3.85132  -0.25052 
 S                    -1   -0.55629   6.45975  -0.29133 
 S                    -1   -2.39274   9.06818  -0.33213 
 S                    -1    4.36293   4.05829  -1.04541 
 S                    -1    2.52647   6.66672  -1.08622 
 S                    -1    0.69002   9.27514  -1.12702 
 S                    -1   -2.53581   3.08137  -2.44577 
 S                    -1   -4.37226   5.6898   -2.48658 
 S                    -1   -6.20871   8.29823  -2.52738 
 S                    -1    0.54696   3.28834  -3.24066 
 S                    -1   -1.2895    5.89677  -3.28146 
 S                    -1   -3.12595   8.50519  -3.32227 
 S                    -1    3.62972   3.4953   -4.03555 
 S                    -1    1.79327   6.10373  -4.07635 
 S                    -1   -0.04318   8.71216  -4.11715 
 Rh                   -1    0.71685   5.37777  -2.03776 
 S                    0     1.70683   4.16394   1.47001 
 H                    0     3.01279   4.55873   1.3231 
 H                    0     1.27785   5.45994   1.609 
 

 GradGradGradGradGradGradGradGradGradGradGradGradGradGradGradGradGradGrad
 Berny optimization.
 Initialization pass.
 Trust Radius=3.00D-01 FncErr=1.00D-07 GrdErr=1.00D-07
 Number of steps in this run=      2 maximum allowed number of steps=      2.
 GradGradGradGradGradGradGradGradGradGradGradGradGradGradGradGradGradGrad

 Stoichiometry    H2Mo15RhS33(2)
 Framework group  C1[X(H2Mo15RhS33)]
 Deg. of freedom   147
 Full point group                 C1      NOp   1
 Largest Abelian subgroup         C1      NOp   1
 Largest concise Abelian subgroup C1      NOp   1
                         Standard orientation:                         
 ---------------------------------------------------------------------
 Center     Atomic      Atomic             Coordinates (Angstroms)
 Number     Number       Type             X           Y           Z
 ---------------------------------------------------------------------
      1         42           0       -0.766492    4.791211   -0.049722
      2         16           0        1.068087    4.788964    1.523771
      3         16           0        1.082747    4.791935   -1.605962
      4         42           0       -3.530008    3.197195   -0.064179
      5         42           0       -6.293524    1.603179   -0.078637
      6         42           0       -9.057039    0.009164   -0.093094
      7         16           0       -1.695428    3.194949    1.509314
      8         16           0       -4.458944    1.600933    1.494857
      9         16           0       -7.222460    0.006917    1.480399
     10         16           0       -1.680769    3.197920   -1.620419
     11         16           0       -4.444285    1.603904   -1.634876
     12         16           0       -7.207801    0.009888   -1.649334
     13         42           0        1.995720    3.194912   -0.038300
     14         42           0        4.757932    1.598614   -0.026877
     15         42           0        7.520144    0.002316   -0.015455
     16         16           0        3.830300    3.192666    1.535193
     17         16           0        6.592512    1.596368    1.546616
     18         16           0        9.354724    0.000069    1.558038
     19         16           0        3.844959    3.195637   -1.594540
     20         16           0        6.607171    1.599339   -1.583117
     21         16           0        9.369383    0.003040   -1.571695
     22         42           0       -0.767796    1.600897   -0.052757
     23         42           0        1.994416    0.004598   -0.041334
     24         42           0        4.756628   -1.591700   -0.029912
     25         42           0       -3.531312    0.006881   -0.067214
     26         42           0        1.993112   -3.185715   -0.044369
     27         42           0       -6.294827   -1.587134   -0.081671
     28         42           0       -3.532615   -3.183433   -0.070249
     29         42           0       -0.770403   -4.779731   -0.058826
     30         16           0        1.066784    1.598650    1.520736
     31         16           0        3.828996    0.002352    1.532159
     32         16           0        6.591208   -1.593946    1.543581
     33         16           0       -1.696732    0.004635    1.506279
     34         16           0        1.065480   -1.591664    1.517701
     35         16           0        3.827692   -3.187962    1.529124
     36         16           0       -4.460248   -1.589381    1.491822
     37         16           0       -1.698036   -3.185679    1.503244
     38         16           0        1.064176   -4.781978    1.514667
     39         16           0        1.081443    1.601621   -1.608997
     40         16           0        3.843655    0.005323   -1.597574
     41         16           0        6.605867   -1.590975   -1.586152
     42         16           0       -1.682073    0.007606   -1.623454
     43         16           0        1.080139   -1.588693   -1.612032
     44         16           0        3.842351   -3.184991   -1.600609
     45         16           0       -4.445589   -1.586410   -1.637911
     46         16           0       -1.683376   -3.182708   -1.626489
     47         16           0        1.078836   -4.779007   -1.615066
     48         45           0       -0.769100   -1.589417   -0.055792
     49         16           0       -1.714335    0.011060    3.306181
     50          1           0       -2.726876   -0.885802    3.537195
     51          1           0       -0.751882   -0.929297    3.575224
 ---------------------------------------------------------------------
 Rotational constants (GHZ):      0.0260832      0.0092722      0.0074206
 Standard basis: VSTO-6G (5D, 7F)
 There are   492 symmetry adapted cartesian basis functions of A   symmetry.
 There are   443 symmetry adapted basis functions of A   symmetry.
   443 basis functions,  2952 primitive gaussians,   492 cartesian basis functions
   150 alpha electrons      149 beta electrons
       nuclear repulsion energy      4252.5031625599 Hartrees.
 Integral buffers will be    262144 words long.
 Regular integral format.
 Two-electron integral symmetry is turned off.
 Do NDO integrals.
 One-electron integrals computed using PRISM.
 NBasis=   443 RedAO= F EigKep=  0.00D+00  NBF=   443
 NBsUse=   443 1.00D-04 EigRej=  0.00D+00 NBFU=   443
 Projected New-EHT guess.
 Enter ItEHT:  IZDO=4 IZDPar=0 Conv= 1.00D-06 N=  278
 It=   1                  EEH= -121.326251901     EQH= 0.000000000000E+00 EH= -121.326251901    
 Initial guess <Sx>= 0.0000 <Sy>= 0.0000 <Sz>= 0.5000 <S**2>= 0.7500 S= 0.5000
 Keep J ints in memory in canonical form, NReq=6506863.
 Gradient too large for Newton-Raphson or scaled steepest descent --
 use steepest descent instead.
     Accept linear search using points  2 and  3.
 Gradient too large for Newton-Raphson or scaled steepest descent --
 use steepest descent instead.
     Accept linear search using points  1 and  2.
 Gradient too large for Newton-Raphson or scaled steepest descent --
 use steepest descent instead.
     Minimum is close to point  2 DX=  1.19D-02 DF= -8.57D-01 DXR=  5.60D-02 DFR=  3.14D-03 which will be used.
 Gradient too large for Newton-Raphson or scaled steepest descent --
 use steepest descent instead.
     Minimum is close to point  2 DX=  1.55D-02 DF= -1.05D+00 DXR=  7.21D-02 DFR=  5.23D-03 which will be used.
 Gradient too large for Newton-Raphson or scaled steepest descent --
 use steepest descent instead.
 Gradient too large for Newton-Raphson or scaled steepest descent --
 use steepest descent instead.
     Accept linear search using points  2 and  3.
 Gradient too large for Newton-Raphson or scaled steepest descent --
 use steepest descent instead.
     Accept linear search using points  4 and  5.
 Gradient too large for Newton-Raphson -- use scaled steepest descent instead.
     Note:  rotation exceeds Pi/2.
     Minimum is close to point  3 DX=  2.20D-02 DF= -5.40D-02 DXR=  5.20D-02 DFR=  1.69D-03 which will be used.
 Gradient too large for Newton-Raphson -- use scaled steepest descent instead.
     Accept linear search using points  1 and  2.
 Gradient too large for Newton-Raphson -- use scaled steepest descent instead.
     Accept linear search using points  1 and  2.
 Gradient too large for Newton-Raphson -- use scaled steepest descent instead.
     Accept linear search using points  1 and  2.
 Gradient too large for Newton-Raphson -- use scaled steepest descent instead.
     Minimum is close to point  4 DX=  1.36D-02 DF= -7.89D-03 DXR=  3.29D-02 DFR=  9.75D-04 which will be used.
 Gradient too large for Newton-Raphson -- use scaled steepest descent instead.
 Gradient too large for Newton-Raphson -- use scaled steepest descent instead.
 Gradient too large for Newton-Raphson -- use scaled steepest descent instead.
     Accept linear search using points  1 and  2.
 Gradient too large for Newton-Raphson -- use scaled steepest descent instead.
     Minimum is close to point  2 DX=  1.65D-02 DF= -2.71D-03 DXR=  5.21D-02 DFR=  2.72D-03 which will be used.
 Gradient too large for Newton-Raphson -- use scaled steepest descent instead.
 Gradient too large for Newton-Raphson -- use scaled steepest descent instead.
     Accept linear search using points  1 and  2.
 Gradient too large for Newton-Raphson -- use scaled steepest descent instead.
     Minimum is close to point  5 DX=  1.33D-01 DF= -5.96D-03 DXR=  5.05D-02 DFR=  2.68D-03 which will be used.
 Gradient too large for Newton-Raphson -- use scaled steepest descent instead.
 Gradient too large for Newton-Raphson -- use scaled steepest descent instead.
     Accept linear search using points  1 and  2.
 Gradient too large for Newton-Raphson -- use scaled steepest descent instead.
     Accept linear search using points  1 and  2.
 Gradient too large for Newton-Raphson -- use scaled steepest descent instead.
 Gradient too large for Newton-Raphson -- use scaled steepest descent instead.
     Minimum is close to point  3 DX=  4.15D-02 DF= -1.56D-03 DXR=  9.40D-02 DFR=  8.91D-03 which will be used.
 Gradient too large for Newton-Raphson -- use scaled steepest descent instead.
     Accept linear search using points  1 and  2.
     Minimum is close to point  2 DX= -1.38D-03 DF= -2.31D-07 DXR=  9.84D-04 DFR=  1.68D-06 which will be used.
 Gradient too large for Newton-Raphson -- use scaled steepest descent instead.
     Accept linear search using points  1 and  2.
 Gradient too large for Newton-Raphson -- use scaled steepest descent instead.
     Minimum is close to point  3 DX=  5.87D-03 DF= -1.33D-06 DXR=  3.90D-03 DFR=  1.51D-05 which will be used.
 Gradient too large for Newton-Raphson -- use scaled steepest descent instead.
     Accept linear search using points  1 and  2.
 Gradient too large for Newton-Raphson -- use scaled steepest descent instead.
     Minimum is close to point  3 DX=  1.02D-01 DF= -2.73D-04 DXR=  5.98D-02 DFR=  3.59D-03 which will be used.
 Gradient too large for Newton-Raphson -- use scaled steepest descent instead.
     Accept linear search using points  1 and  2.
 Gradient too large for Newton-Raphson -- use scaled steepest descent instead.
     Minimum is close to point  3 DX=  8.25D-02 DF= -1.36D-04 DXR=  4.63D-02 DFR=  2.15D-03 which will be used.
 Gradient too large for Newton-Raphson -- use scaled steepest descent instead.
     Minimum is close to point  3 DX=  3.51D-02 DF= -3.39D-04 DXR=  8.07D-02 DFR=  6.56D-03 which will be used.
 Gradient too large for Newton-Raphson -- use scaled steepest descent instead.
     Accept linear search using points  3 and  4.
     Minimum is close to point  4 DX= -1.15D-01 DF= -1.67D-04 DXR=  3.39D-02 DFR=  2.00D-03 which will be used.
 Gradient too large for Newton-Raphson -- use scaled steepest descent instead.
 Gradient too large for Newton-Raphson -- use scaled steepest descent instead.
 Gradient too large for Newton-Raphson -- use scaled steepest descent instead.
     Minimum is close to point  3 DX= -6.74D-03 DF= -1.32D-05 DXR=  1.71D-02 DFR=  2.94D-04 which will be used.
 Gradient too large for Newton-Raphson -- use scaled steepest descent instead.
     Accept linear search using points  2 and  3.
     Minimum is close to point  3 DX= -3.73D-02 DF= -1.04D-05 DXR=  1.73D-02 DFR=  3.51D-04 which will be used.
 Gradient too large for Newton-Raphson -- use scaled steepest descent instead.
     Minimum is close to point  3 DX=  1.52D-02 DF= -3.66D-05 DXR=  3.66D-02 DFR=  1.34D-03 which will be used.
 Gradient too large for Newton-Raphson -- use scaled steepest descent instead.
     Accept linear search using points  3 and  4.
 Gradient too large for Newton-Raphson -- use scaled steepest descent instead.
 Gradient too large for Newton-Raphson -- use scaled steepest descent instead.
 Gradient too large for Newton-Raphson -- use scaled steepest descent instead.
     Minimum is close to point  3 DX=  2.02D-02 DF= -3.85D-05 DXR=  4.81D-02 DFR=  2.32D-03 which will be used.
 Gradient too large for Newton-Raphson -- use scaled steepest descent instead.
 Gradient too large for Newton-Raphson -- use scaled steepest descent instead.
     Minimum is close to point  3 DX=  3.30D-02 DF= -7.60D-05 DXR=  7.62D-02 DFR=  5.84D-03 which will be used.
 Gradient too large for Newton-Raphson -- use scaled steepest descent instead.
 Gradient too large for Newton-Raphson -- use scaled steepest descent instead.
     Minimum is close to point  3 DX= -2.60D-02 DF= -2.79D-05 DXR=  5.47D-02 DFR=  3.01D-03 which will be used.
 Gradient too large for Newton-Raphson -- use scaled steepest descent instead.
     Accept linear search using points  1 and  2.
 Gradient too large for Newton-Raphson -- use scaled steepest descent instead.
     Accept linear search using points  1 and  2.
 Gradient too large for Newton-Raphson -- use scaled steepest descent instead.
 Gradient too large for Newton-Raphson -- use scaled steepest descent instead.
     Minimum is close to point  3 DX=  4.36D-02 DF= -5.52D-05 DXR=  9.84D-02 DFR=  9.77D-03 which will be used.
 Gradient too large for Newton-Raphson -- use scaled steepest descent instead.
     Accept linear search using points  4 and  5.
 Gradient too large for Newton-Raphson -- use scaled steepest descent instead.
 Gradient too large for Newton-Raphson -- use scaled steepest descent instead.
 Gradient too large for Newton-Raphson -- use scaled steepest descent instead.
 Gradient too large for Newton-Raphson -- use scaled steepest descent instead.
 Gradient too large for Newton-Raphson -- use scaled steepest descent instead.
     Minimum is close to point  3 DX=  1.28D-02 DF= -7.98D-06 DXR=  3.09D-02 DFR=  9.57D-04 which will be used.
 Gradient too large for Newton-Raphson -- use scaled steepest descent instead.
 Gradient too large for Newton-Raphson -- use scaled steepest descent instead.
 Gradient too large for Newton-Raphson -- use scaled steepest descent instead.
 Gradient too large for Newton-Raphson -- use scaled steepest descent instead.
     Accept linear search using points  1 and  2.
 Gradient too large for Newton-Raphson -- use scaled steepest descent instead.
     Minimum is close to point  3 DX=  1.43D-01 DF= -4.10D-05 DXR=  8.21D-02 DFR=  6.84D-03 which will be used.
 Gradient too large for Newton-Raphson -- use scaled steepest descent instead.
     Accept linear search using points  1 and  2.
 Gradient too large for Newton-Raphson -- use scaled steepest descent instead.
     Accept linear search using points  2 and  3.
 Gradient too large for Newton-Raphson -- use scaled steepest descent instead.
     Accept linear search using points  1 and  2.
 Gradient too large for Newton-Raphson -- use scaled steepest descent instead.
 Gradient too large for Newton-Raphson -- use scaled steepest descent instead.
     Minimum is close to point  3 DX=  3.51D-02 DF= -4.18D-05 DXR=  8.07D-02 DFR=  6.55D-03 which will be used.
 Gradient too large for Newton-Raphson -- use scaled steepest descent instead.
 Gradient too large for Newton-Raphson -- use scaled steepest descent instead.
 Gradient too large for Newton-Raphson -- use scaled steepest descent instead.
 Gradient too large for Newton-Raphson -- use scaled steepest descent instead.
 Gradient too large for Newton-Raphson -- use scaled steepest descent instead.
 Gradient too large for Newton-Raphson -- use scaled steepest descent instead.
     Minimum is close to point  3 DX=  1.73D-03 DF= -1.07D-07 DXR=  4.30D-03 DFR=  1.85D-05 which will be used.
 Gradient too large for Newton-Raphson -- use scaled steepest descent instead.
 Gradient too large for Newton-Raphson -- use scaled steepest descent instead.
     Minimum is close to point  3 DX=  1.79D-02 DF= -8.09D-06 DXR=  4.29D-02 DFR=  1.84D-03 which will be used.
 Gradient too large for Newton-Raphson -- use scaled steepest descent instead.
     Accept linear search using points  3 and  4.
 Gradient too large for Newton-Raphson -- use scaled steepest descent instead.
     Minimum is close to point  3 DX=  2.61D-02 DF= -1.67D-05 DXR=  6.13D-02 DFR=  3.77D-03 which will be used.
 Gradient too large for Newton-Raphson -- use scaled steepest descent instead.
     Minimum is close to point  3 DX=  8.47D-02 DF= -4.11D-06 DXR=  3.41D-02 DFR=  1.17D-03 which will be used.
 Gradient too large for Newton-Raphson -- use scaled steepest descent instead.
     Minimum is close to point  3 DX= -6.36D-04 DF= -4.46D-09 DXR=  1.27D-03 DFR=  1.62D-06 which will be used.
 Gradient too large for Newton-Raphson -- use scaled steepest descent instead.
     Accept linear search using points  1 and  2.
     Minimum is close to point  2 DX= -5.58D-02 DF= -5.55D-06 DXR=  5.34D-02 DFR=  3.36D-03 which will be used.
 Gradient too large for Newton-Raphson -- use scaled steepest descent instead.
     Accept linear search using points  1 and  2.
 Gradient too large for Newton-Raphson -- use scaled steepest descent instead.
     Accept linear search using points  3 and  4.
     Minimum is close to point  4 DX= -3.82D-02 DF= -8.82D-07 DXR=  1.43D-02 DFR=  3.05D-04 which will be used.
 Gradient too large for Newton-Raphson -- use scaled steepest descent instead.
     Minimum is close to point  3 DX=  1.13D-02 DF= -2.12D-06 DXR=  2.75D-02 DFR=  7.58D-04 which will be used.
 Gradient too large for Newton-Raphson -- use scaled steepest descent instead.
     Minimum is close to point  4 DX= -3.21D-01 DF= -2.44D-05 DXR=  8.27D-02 DFR=  6.95D-03 which will be used.
 Gradient too large for Newton-Raphson -- use scaled steepest descent instead.
 Gradient too large for Newton-Raphson -- use scaled steepest descent instead.
 Gradient too large for Newton-Raphson -- use scaled steepest descent instead.
     Minimum is close to point  3 DX=  1.78D-02 DF= -3.93D-06 DXR=  4.26D-02 DFR=  1.82D-03 which will be used.
 Gradient too large for Newton-Raphson -- use scaled steepest descent instead.
 Gradient too large for Newton-Raphson -- use scaled steepest descent instead.
 Gradient too large for Newton-Raphson -- use scaled steepest descent instead.
     Minimum is close to point  2 DX=  1.14D-01 DF= -7.73D-06 DXR=  9.37D-02 DFR=  8.85D-03 which will be used.
 Gradient too large for Newton-Raphson -- use scaled steepest descent instead.
     Accept linear search using points  1 and  2.
 Gradient too large for Newton-Raphson -- use scaled steepest descent instead.
 Gradient too large for Newton-Raphson -- use scaled steepest descent instead.
 Gradient too large for Newton-Raphson -- use scaled steepest descent instead.
     Accept linear search using points  2 and  3.
     Minimum is close to point  3 DX= -2.80D-02 DF= -1.93D-07 DXR=  1.58D-02 DFR=  2.03D-04 which will be used.
 Gradient too large for Newton-Raphson -- use scaled steepest descent instead.
 Gradient too large for Newton-Raphson -- use scaled steepest descent instead.
     Minimum is close to point  3 DX=  1.45D-02 DF= -5.80D-08 DXR=  7.98D-03 DFR=  6.37D-05 which will be used.
 Gradient too large for Newton-Raphson -- use scaled steepest descent instead.
 Gradient too large for Newton-Raphson -- use scaled steepest descent instead.
     Accept linear search using points  2 and  3.
     Minimum is close to point  3 DX= -2.23D-02 DF= -1.08D-07 DXR=  1.25D-02 DFR=  1.27D-04 which will be used.
 Gradient too large for Newton-Raphson -- use scaled steepest descent instead.
 Gradient too large for Newton-Raphson -- use scaled steepest descent instead.
     Minimum is close to point  3 DX=  1.61D-02 DF= -6.49D-08 DXR=  8.86D-03 DFR=  7.85D-05 which will be used.
 Gradient too large for Newton-Raphson -- use scaled steepest descent instead.
     Accept linear search using points  1 and  2.
 Gradient too large for Newton-Raphson -- use scaled steepest descent instead.
     Accept linear search using points  2 and  3.
     Minimum is close to point  3 DX= -1.72D-02 DF= -5.94D-08 DXR=  9.66D-03 DFR=  7.53D-05 which will be used.
 Gradient too large for Newton-Raphson -- use scaled steepest descent instead.
 Gradient too large for Newton-Raphson -- use scaled steepest descent instead.
     Minimum is close to point  3 DX=  1.31D-02 DF= -4.04D-08 DXR=  7.22D-03 DFR=  5.21D-05 which will be used.
 Gradient too large for Newton-Raphson -- use scaled steepest descent instead.
     Accept linear search using points  1 and  2.
 Gradient too large for Newton-Raphson -- use scaled steepest descent instead.
     Accept linear search using points  2 and  3.
     Minimum is close to point  3 DX= -9.51D-03 DF= -1.71D-08 DXR=  5.31D-03 DFR=  2.26D-05 which will be used.
 Gradient too large for Newton-Raphson -- use scaled steepest descent instead.
 Gradient too large for Newton-Raphson -- use scaled steepest descent instead.
     Minimum is close to point  3 DX=  7.30D-03 DF= -1.22D-08 DXR=  4.04D-03 DFR=  1.63D-05 which will be used.
 Gradient too large for Newton-Raphson -- use scaled steepest descent instead.
     Accept linear search using points  1 and  2.
 Gradient too large for Newton-Raphson -- use scaled steepest descent instead.
     Accept linear search using points  2 and  3.
     Minimum is close to point  3 DX= -3.79D-04 DF= -2.61D-11 DXR=  2.10D-04 DFR=  3.52D-08 which will be used.
 Gradient too large for Newton-Raphson -- use scaled steepest descent instead.
     Accept linear search using points  1 and  2.
 Gradient too large for Newton-Raphson -- use scaled steepest descent instead.
     Minimum is close to point  3 DX=  5.85D-03 DF= -7.81D-09 DXR=  3.24D-03 DFR=  1.05D-05 which will be used.
 Gradient too large for Newton-Raphson -- use scaled steepest descent instead.
     Accept linear search using points  1 and  2.
 Gradient too large for Newton-Raphson -- use scaled steepest descent instead.
     Minimum is close to point  3 DX=  1.91D-03 DF= -8.39D-10 DXR=  1.06D-03 DFR=  1.13D-06 which will be used.
 Gradient too large for Newton-Raphson -- use scaled steepest descent instead.
     Accept linear search using points  1 and  2.
 Gradient too large for Newton-Raphson -- use scaled steepest descent instead.
     Minimum is close to point  3 DX=  4.53D-03 DF= -4.75D-09 DXR=  2.51D-03 DFR=  6.32D-06 which will be used.
 Gradient too large for Newton-Raphson -- use scaled steepest descent instead.
     Accept linear search using points  1 and  2.
 Gradient too large for Newton-Raphson -- use scaled steepest descent instead.
     Minimum is close to point  3 DX=  2.03D-03 DF= -9.59D-10 DXR=  1.13D-03 DFR=  1.27D-06 which will be used.
 Gradient too large for Newton-Raphson -- use scaled steepest descent instead.
     Accept linear search using points  1 and  2.
 Gradient too large for Newton-Raphson -- use scaled steepest descent instead.
     Minimum is close to point  3 DX=  2.64D-03 DF= -1.63D-09 DXR=  1.46D-03 DFR=  2.14D-06 which will be used.
 Gradient too large for Newton-Raphson -- use scaled steepest descent instead.
     Accept linear search using points  1 and  2.
 Gradient too large for Newton-Raphson -- use scaled steepest descent instead.
     Minimum is close to point  3 DX=  6.29D-04 DF= -9.31D-11 DXR=  3.49D-04 DFR=  1.22D-07 which will be used.
 Gradient too large for Newton-Raphson -- use scaled steepest descent instead.
     Accept linear search using points  1 and  2.
 Gradient too large for Newton-Raphson -- use scaled steepest descent instead.
     Minimum is close to point  3 DX=  1.34D-04 DF= -4.23D-12 DXR=  7.45D-05 DFR=  5.56D-09 which will be used.
 Gradient too large for Newton-Raphson -- use scaled steepest descent instead.
     Accept linear search using points  1 and  2.
 Gradient too large for Newton-Raphson -- use scaled steepest descent instead.
     Accept linear search using points  2 and  3.
     Minimum is close to point  3 DX= -2.30D-03 DF= -9.80D-10 DXR=  1.28D-03 DFR=  1.30D-06 which will be used.
 Gradient too large for Newton-Raphson -- use scaled steepest descent instead.
 Gradient too large for Newton-Raphson -- use scaled steepest descent instead.
     Accept linear search using points  2 and  3.
     Minimum is close to point  3 DX= -5.31D-03 DF= -5.18D-09 DXR=  2.96D-03 DFR=  6.99D-06 which will be used.
 Gradient too large for Newton-Raphson -- use scaled steepest descent instead.
 Gradient too large for Newton-Raphson -- use scaled steepest descent instead.
     Accept linear search using points  2 and  3.
     Minimum is close to point  3 DX= -2.38D-03 DF= -1.01D-09 DXR=  1.32D-03 DFR=  1.40D-06 which will be used.
 Gradient too large for Newton-Raphson -- use scaled steepest descent instead.
 Gradient too large for Newton-Raphson -- use scaled steepest descent instead.
     Accept linear search using points  2 and  3.
     Minimum is close to point  3 DX= -5.00D-03 DF= -4.33D-09 DXR=  2.78D-03 DFR=  6.18D-06 which will be used.
 Gradient too large for Newton-Raphson -- use scaled steepest descent instead.
 Gradient too large for Newton-Raphson -- use scaled steepest descent instead.
     Accept linear search using points  2 and  3.
     Minimum is close to point  3 DX= -1.74D-03 DF= -5.03D-10 DXR=  9.69D-04 DFR=  7.48D-07 which will be used.
 Gradient too large for Newton-Raphson -- use scaled steepest descent instead.
 Gradient too large for Newton-Raphson -- use scaled steepest descent instead.
     Accept linear search using points  2 and  3.
     Minimum is close to point  3 DX= -4.09D-03 DF= -2.66D-09 DXR=  2.28D-03 DFR=  4.15D-06 which will be used.
 Gradient too large for Newton-Raphson -- use scaled steepest descent instead.
 Gradient too large for Newton-Raphson -- use scaled steepest descent instead.
     Accept linear search using points  2 and  3.
     Minimum is close to point  3 DX= -7.09D-04 DF= -7.53D-11 DXR=  3.94D-04 DFR=  1.23D-07 which will be used.
 Gradient too large for Newton-Raphson -- use scaled steepest descent instead.
 Gradient too large for Newton-Raphson -- use scaled steepest descent instead.
     Accept linear search using points  2 and  3.
     Minimum is close to point  3 DX= -3.06D-03 DF= -1.34D-09 DXR=  1.70D-03 DFR=  2.31D-06 which will be used.
 Gradient too large for Newton-Raphson -- use scaled steepest descent instead.
 Gradient too large for Newton-Raphson -- use scaled steepest descent instead.
     Minimum is close to point  3 DX=  1.55D-04 DF= -4.06D-12 DXR=  8.59D-05 DFR=  7.38D-09 which will be used.
 Gradient too large for Newton-Raphson -- use scaled steepest descent instead.
 Gradient too large for Newton-Raphson -- use scaled steepest descent instead.
     Accept linear search using points  2 and  3.
     Minimum is close to point  3 DX= -2.42D-03 DF= -7.56D-10 DXR=  1.35D-03 DFR=  1.45D-06 which will be used.
 Gradient too large for Newton-Raphson -- use scaled steepest descent instead.
 Gradient too large for Newton-Raphson -- use scaled steepest descent instead.
     Minimum is close to point  3 DX=  3.52D-04 DF= -1.90D-11 DXR=  1.95D-04 DFR=  3.82D-08 which will be used.
 Gradient too large for Newton-Raphson -- use scaled steepest descent instead.
 Gradient too large for Newton-Raphson -- use scaled steepest descent instead.
     Accept linear search using points  2 and  3.
     Minimum is close to point  3 DX= -2.52D-03 DF= -7.46D-10 DXR=  1.40D-03 DFR=  1.56D-06 which will be used.
 Gradient too large for Newton-Raphson -- use scaled steepest descent instead.
 Gradient too large for Newton-Raphson -- use scaled steepest descent instead.
     Minimum is close to point  3 DX=  2.31D-05 DF= -7.70D-14 DXR=  1.28D-05 DFR=  1.68D-10 which will be used.
 Gradient too large for Newton-Raphson -- use scaled steepest descent instead.
 Gradient too large for Newton-Raphson -- use scaled steepest descent instead.
     Accept linear search using points  2 and  3.
     Minimum is close to point  3 DX= -3.25D-03 DF= -1.15D-09 DXR=  1.81D-03 DFR=  2.60D-06 which will be used.
 Gradient too large for Newton-Raphson -- use scaled steepest descent instead.
 Gradient too large for Newton-Raphson -- use scaled steepest descent instead.
     Accept linear search using points  2 and  3.
     Minimum is close to point  3 DX= -9.25D-04 DF= -9.05D-11 DXR=  5.14D-04 DFR=  2.11D-07 which will be used.
 Gradient too large for Newton-Raphson -- use scaled steepest descent instead.
 Gradient too large for Newton-Raphson -- use scaled steepest descent instead.
     Accept linear search using points  2 and  3.
     Minimum is close to point  3 DX= -4.25D-03 DF= -1.87D-09 DXR=  2.37D-03 DFR=  4.48D-06 which will be used.
 Gradient too large for Newton-Raphson -- use scaled steepest descent instead.
 Gradient too large for Newton-Raphson -- use scaled steepest descent instead.
     Accept linear search using points  2 and  3.
     Minimum is close to point  3 DX= -1.93D-03 DF= -3.71D-10 DXR=  1.07D-03 DFR=  9.14D-07 which will be used.
 Gradient too large for Newton-Raphson -- use scaled steepest descent instead.
 Gradient too large for Newton-Raphson -- use scaled steepest descent instead.
     Accept linear search using points  2 and  3.
     Minimum is close to point  3 DX= -5.15D-03 DF= -2.59D-09 DXR=  2.87D-03 DFR=  6.59D-06 which will be used.
 Gradient too large for Newton-Raphson -- use scaled steepest descent instead.
 Gradient too large for Newton-Raphson -- use scaled steepest descent instead.
     Accept linear search using points  2 and  3.
     Minimum is close to point  3 DX= -2.69D-03 DF= -6.85D-10 DXR=  1.50D-03 DFR=  1.79D-06 which will be used.
 Gradient too large for Newton-Raphson -- use scaled steepest descent instead.
 Gradient too large for Newton-Raphson -- use scaled steepest descent instead.
     Accept linear search using points  2 and  3.
     Minimum is close to point  3 DX= -5.71D-03 DF= -3.00D-09 DXR=  3.18D-03 DFR=  8.10D-06 which will be used.
 Gradient too large for Newton-Raphson -- use scaled steepest descent instead.
 Gradient too large for Newton-Raphson -- use scaled steepest descent instead.
     Accept linear search using points  2 and  3.
     Minimum is close to point  3 DX= -3.06D-03 DF= -8.29D-10 DXR=  1.70D-03 DFR=  2.32D-06 which will be used.
 Gradient too large for Newton-Raphson -- use scaled steepest descent instead.
 Gradient too large for Newton-Raphson -- use scaled steepest descent instead.
     Accept linear search using points  2 and  3.
     Minimum is close to point  3 DX= -5.86D-03 DF= -2.93D-09 DXR=  3.27D-03 DFR=  8.53D-06 which will be used.
 Gradient too large for Newton-Raphson -- use scaled steepest descent instead.
 Gradient too large for Newton-Raphson -- use scaled steepest descent instead.
     Accept linear search using points  2 and  3.
     Minimum is close to point  3 DX= -3.02D-03 DF= -7.43D-10 DXR=  1.68D-03 DFR=  2.25D-06 which will be used.
 Gradient too large for Newton-Raphson -- use scaled steepest descent instead.
 Gradient too large for Newton-Raphson -- use scaled steepest descent instead.
     Accept linear search using points  2 and  3.
     Minimum is close to point  3 DX= -5.61D-03 DF= -2.46D-09 DXR=  3.13D-03 DFR=  7.83D-06 which will be used.
 Gradient too large for Newton-Raphson -- use scaled steepest descent instead.
 LinEq1:  Iter=  0 NonCon=     1 RMS=1.37D-04 Max=1.04D-02 NDo=     1
 AX will form     1 AO Fock derivatives at one time.
 LinEq1:  Iter=  1 NonCon=     1 RMS=3.98D-05 Max=1.04D-03 NDo=     1
 LinEq1:  Iter=  2 NonCon=     1 RMS=4.09D-05 Max=1.95D-03 NDo=     1
 LinEq1:  Iter=  3 NonCon=     1 RMS=2.04D-05 Max=1.40D-03 NDo=     1
 LinEq1:  Iter=  4 NonCon=     1 RMS=2.15D-05 Max=9.67D-04 NDo=     1
 LinEq1:  Iter=  5 NonCon=     1 RMS=1.76D-05 Max=1.10D-03 NDo=     1
 LinEq1:  Iter=  6 NonCon=     1 RMS=1.40D-05 Max=8.27D-04 NDo=     1
 LinEq1:  Iter=  7 NonCon=     1 RMS=1.10D-05 Max=5.36D-04 NDo=     1
 LinEq1:  Iter=  8 NonCon=     1 RMS=9.58D-06 Max=4.90D-04 NDo=     1
 LinEq1:  Iter=  9 NonCon=     1 RMS=9.40D-06 Max=3.81D-04 NDo=     1
 LinEq1:  Iter= 10 NonCon=     1 RMS=6.67D-06 Max=2.12D-04 NDo=     1
 LinEq1:  Iter= 11 NonCon=     1 RMS=5.39D-06 Max=2.16D-04 NDo=     1
 LinEq1:  Iter= 12 NonCon=     1 RMS=3.69D-06 Max=1.25D-04 NDo=     1
 LinEq1:  Iter= 13 NonCon=     1 RMS=2.92D-06 Max=8.64D-05 NDo=     1
 LinEq1:  Iter= 14 NonCon=     1 RMS=2.46D-06 Max=1.09D-04 NDo=     1
 LinEq1:  Iter= 15 NonCon=     1 RMS=1.89D-06 Max=5.29D-05 NDo=     1
 LinEq1:  Iter= 16 NonCon=     1 RMS=1.51D-06 Max=5.26D-05 NDo=     1
 LinEq1:  Iter= 17 NonCon=     1 RMS=1.15D-06 Max=2.32D-05 NDo=     1
 LinEq1:  Iter= 18 NonCon=     1 RMS=9.63D-07 Max=2.32D-05 NDo=     1
 LinEq1:  Iter= 19 NonCon=     1 RMS=7.54D-07 Max=1.98D-05 NDo=     1
 LinEq1:  Iter= 20 NonCon=     1 RMS=6.78D-07 Max=1.40D-05 NDo=     1
 LinEq1:  Iter= 21 NonCon=     1 RMS=5.14D-07 Max=1.63D-05 NDo=     1
 LinEq1:  Iter= 22 NonCon=     1 RMS=4.77D-07 Max=9.47D-06 NDo=     1
 LinEq1:  Iter= 23 NonCon=     1 RMS=3.00D-07 Max=9.27D-06 NDo=     1
 LinEq1:  Iter= 24 NonCon=     1 RMS=1.95D-07 Max=4.99D-06 NDo=     1
 LinEq1:  Iter= 25 NonCon=     1 RMS=1.38D-07 Max=4.18D-06 NDo=     1
 LinEq1:  Iter= 26 NonCon=     1 RMS=9.12D-08 Max=2.35D-06 NDo=     1
 LinEq1:  Iter= 27 NonCon=     1 RMS=5.66D-08 Max=1.39D-06 NDo=     1
 LinEq1:  Iter= 28 NonCon=     1 RMS=3.40D-08 Max=8.86D-07 NDo=     1
 LinEq1:  Iter= 29 NonCon=     1 RMS=2.09D-08 Max=6.47D-07 NDo=     1
 LinEq1:  Iter= 30 NonCon=     0 RMS=1.34D-08 Max=2.92D-07 NDo=     1
 Linear equations converged to 2.962D-08 2.962D-07 after    30 iterations.
     Minimum is close to point  3 DX=  4.75D-03 DF= -7.11D-06 DXR=  4.53D-02 DFR=  2.06D-03 which will be used.
 LinEq1:  Iter=  0 NonCon=     1 RMS=1.19D-04 Max=8.96D-03 NDo=     1
 LinEq1:  Iter=  1 NonCon=     1 RMS=5.36D-05 Max=1.76D-03 NDo=     1
 LinEq1:  Iter=  2 NonCon=     1 RMS=4.38D-05 Max=1.48D-03 NDo=     1
 LinEq1:  Iter=  3 NonCon=     1 RMS=4.28D-05 Max=1.82D-03 NDo=     1
 LinEq1:  Iter=  4 NonCon=     1 RMS=3.35D-05 Max=2.10D-03 NDo=     1
 LinEq1:  Iter=  5 NonCon=     1 RMS=2.70D-05 Max=1.34D-03 NDo=     1
 LinEq1:  Iter=  6 NonCon=     1 RMS=2.75D-05 Max=1.92D-03 NDo=     1
 LinEq1:  Iter=  7 NonCon=     1 RMS=2.01D-05 Max=1.08D-03 NDo=     1
 LinEq1:  Iter=  8 NonCon=     1 RMS=1.47D-05 Max=5.68D-04 NDo=     1
 LinEq1:  Iter=  9 NonCon=     1 RMS=1.42D-05 Max=5.16D-04 NDo=     1
 LinEq1:  Iter= 10 NonCon=     1 RMS=1.31D-05 Max=4.88D-04 NDo=     1
 LinEq1:  Iter= 11 NonCon=     1 RMS=9.50D-06 Max=2.26D-04 NDo=     1
 LinEq1:  Iter= 12 NonCon=     1 RMS=8.14D-06 Max=2.60D-04 NDo=     1
 LinEq1:  Iter= 13 NonCon=     1 RMS=6.21D-06 Max=2.06D-04 NDo=     1
 LinEq1:  Iter= 14 NonCon=     1 RMS=4.44D-06 Max=1.36D-04 NDo=     1
 LinEq1:  Iter= 15 NonCon=     1 RMS=3.10D-06 Max=9.74D-05 NDo=     1
 LinEq1:  Iter= 16 NonCon=     1 RMS=2.09D-06 Max=4.70D-05 NDo=     1
 LinEq1:  Iter= 17 NonCon=     1 RMS=1.44D-06 Max=4.91D-05 NDo=     1
 LinEq1:  Iter= 18 NonCon=     1 RMS=1.49D-06 Max=3.30D-05 NDo=     1
 LinEq1:  Iter= 19 NonCon=     1 RMS=1.04D-06 Max=2.50D-05 NDo=     1
 LinEq1:  Iter= 20 NonCon=     1 RMS=8.46D-07 Max=2.09D-05 NDo=     1
 LinEq1:  Iter= 21 NonCon=     1 RMS=6.28D-07 Max=1.59D-05 NDo=     1
 LinEq1:  Iter= 22 NonCon=     1 RMS=6.12D-07 Max=1.46D-05 NDo=     1
 LinEq1:  Iter= 23 NonCon=     1 RMS=4.35D-07 Max=1.27D-05 NDo=     1
 LinEq1:  Iter= 24 NonCon=     1 RMS=2.83D-07 Max=7.51D-06 NDo=     1
 LinEq1:  Iter= 25 NonCon=     1 RMS=1.95D-07 Max=4.89D-06 NDo=     1
 LinEq1:  Iter= 26 NonCon=     1 RMS=1.27D-07 Max=3.20D-06 NDo=     1
 LinEq1:  Iter= 27 NonCon=     1 RMS=6.95D-08 Max=2.20D-06 NDo=     1
 LinEq1:  Iter= 28 NonCon=     1 RMS=4.04D-08 Max=1.28D-06 NDo=     1
 LinEq1:  Iter= 29 NonCon=     1 RMS=2.83D-08 Max=1.02D-06 NDo=     1
 LinEq1:  Iter= 30 NonCon=     1 RMS=1.61D-08 Max=4.35D-07 NDo=     1
 LinEq1:  Iter= 31 NonCon=     0 RMS=1.07D-08 Max=2.34D-07 NDo=     1
 Linear equations converged to 2.962D-08 2.962D-07 after    31 iterations.
 Gradient too large for Newton-Raphson -- use scaled steepest descent instead.
     Accept linear search using points  1 and  2.
 LinEq1:  Iter=  0 NonCon=     1 RMS=1.04D-04 Max=5.29D-03 NDo=     1
 LinEq1:  Iter=  1 NonCon=     1 RMS=1.34D-04 Max=4.39D-03 NDo=     1
 LinEq1:  Iter=  2 NonCon=     1 RMS=6.78D-05 Max=2.03D-03 NDo=     1
 LinEq1:  Iter=  3 NonCon=     1 RMS=6.61D-05 Max=1.59D-03 NDo=     1
 LinEq1:  Iter=  4 NonCon=     1 RMS=4.98D-05 Max=1.34D-03 NDo=     1
 LinEq1:  Iter=  5 NonCon=     1 RMS=4.23D-05 Max=2.24D-03 NDo=     1
 LinEq1:  Iter=  6 NonCon=     1 RMS=4.29D-05 Max=1.17D-03 NDo=     1
 LinEq1:  Iter=  7 NonCon=     1 RMS=2.66D-05 Max=1.47D-03 NDo=     1
 LinEq1:  Iter=  8 NonCon=     1 RMS=2.17D-05 Max=5.24D-04 NDo=     1
 LinEq1:  Iter=  9 NonCon=     1 RMS=1.56D-05 Max=3.32D-04 NDo=     1
 LinEq1:  Iter= 10 NonCon=     1 RMS=1.55D-05 Max=5.52D-04 NDo=     1
 LinEq1:  Iter= 11 NonCon=     1 RMS=1.19D-05 Max=3.04D-04 NDo=     1
 LinEq1:  Iter= 12 NonCon=     1 RMS=9.86D-06 Max=2.55D-04 NDo=     1
 LinEq1:  Iter= 13 NonCon=     1 RMS=8.18D-06 Max=2.19D-04 NDo=     1
 LinEq1:  Iter= 14 NonCon=     1 RMS=5.98D-06 Max=1.72D-04 NDo=     1
 LinEq1:  Iter= 15 NonCon=     1 RMS=5.33D-06 Max=1.84D-04 NDo=     1
 LinEq1:  Iter= 16 NonCon=     1 RMS=5.29D-06 Max=1.46D-04 NDo=     1
 LinEq1:  Iter= 17 NonCon=     1 RMS=3.39D-06 Max=7.95D-05 NDo=     1
 LinEq1:  Iter= 18 NonCon=     1 RMS=1.87D-06 Max=5.38D-05 NDo=     1
 LinEq1:  Iter= 19 NonCon=     1 RMS=1.32D-06 Max=3.21D-05 NDo=     1
 LinEq1:  Iter= 20 NonCon=     1 RMS=8.24D-07 Max=2.05D-05 NDo=     1
 LinEq1:  Iter= 21 NonCon=     1 RMS=5.30D-07 Max=1.35D-05 NDo=     1
 LinEq1:  Iter= 22 NonCon=     1 RMS=3.74D-07 Max=1.28D-05 NDo=     1
 LinEq1:  Iter= 23 NonCon=     1 RMS=2.97D-07 Max=9.43D-06 NDo=     1
 LinEq1:  Iter= 24 NonCon=     1 RMS=2.55D-07 Max=8.53D-06 NDo=     1
 LinEq1:  Iter= 25 NonCon=     1 RMS=1.86D-07 Max=6.50D-06 NDo=     1
 LinEq1:  Iter= 26 NonCon=     1 RMS=1.24D-07 Max=3.72D-06 NDo=     1
 LinEq1:  Iter= 27 NonCon=     1 RMS=8.89D-08 Max=3.26D-06 NDo=     1
 LinEq1:  Iter= 28 NonCon=     1 RMS=4.42D-08 Max=1.88D-06 NDo=     1
 LinEq1:  Iter= 29 NonCon=     1 RMS=2.82D-08 Max=7.92D-07 NDo=     1
 LinEq1:  Iter= 30 NonCon=     1 RMS=1.69D-08 Max=5.71D-07 NDo=     1
 LinEq1:  Iter= 31 NonCon=     1 RMS=1.16D-08 Max=3.57D-07 NDo=     1
 LinEq1:  Iter= 32 NonCon=     0 RMS=6.23D-09 Max=1.71D-07 NDo=     1
 Linear equations converged to 2.962D-08 2.962D-07 after    32 iterations.
 Incorrect curvature in search direction -- initial direction reversed.
 Gradient too large for Newton-Raphson -- use scaled steepest descent instead.
 Gradient too large for Newton-Raphson -- use scaled steepest descent instead.
     Accept linear search using points  1 and  2.
 LinEq1:  Iter=  0 NonCon=     1 RMS=9.13D-05 Max=4.83D-03 NDo=     1
 LinEq1:  Iter=  1 NonCon=     1 RMS=1.18D-04 Max=2.87D-03 NDo=     1
 LinEq1:  Iter=  2 NonCon=     1 RMS=3.92D-05 Max=7.91D-04 NDo=     1
 LinEq1:  Iter=  3 NonCon=     1 RMS=5.09D-05 Max=1.31D-03 NDo=     1
 LinEq1:  Iter=  4 NonCon=     1 RMS=2.72D-05 Max=6.67D-04 NDo=     1
 LinEq1:  Iter=  5 NonCon=     1 RMS=2.86D-05 Max=1.56D-03 NDo=     1
 LinEq1:  Iter=  6 NonCon=     1 RMS=1.28D-05 Max=2.59D-04 NDo=     1
 LinEq1:  Iter=  7 NonCon=     1 RMS=1.26D-05 Max=4.86D-04 NDo=     1
 LinEq1:  Iter=  8 NonCon=     1 RMS=9.11D-06 Max=2.82D-04 NDo=     1
 LinEq1:  Iter=  9 NonCon=     1 RMS=8.46D-06 Max=2.14D-04 NDo=     1
 LinEq1:  Iter= 10 NonCon=     1 RMS=5.53D-06 Max=1.54D-04 NDo=     1
 LinEq1:  Iter= 11 NonCon=     1 RMS=5.34D-06 Max=1.87D-04 NDo=     1
 LinEq1:  Iter= 12 NonCon=     1 RMS=3.51D-06 Max=9.76D-05 NDo=     1
 LinEq1:  Iter= 13 NonCon=     1 RMS=3.12D-06 Max=1.39D-04 NDo=     1
 LinEq1:  Iter= 14 NonCon=     1 RMS=2.79D-06 Max=1.08D-04 NDo=     1
 LinEq1:  Iter= 15 NonCon=     1 RMS=2.34D-06 Max=7.05D-05 NDo=     1
 LinEq1:  Iter= 16 NonCon=     1 RMS=1.21D-06 Max=4.95D-05 NDo=     1
 LinEq1:  Iter= 17 NonCon=     1 RMS=8.84D-07 Max=2.70D-05 NDo=     1
 LinEq1:  Iter= 18 NonCon=     1 RMS=6.37D-07 Max=1.41D-05 NDo=     1
 LinEq1:  Iter= 19 NonCon=     1 RMS=5.92D-07 Max=2.15D-05 NDo=     1
 LinEq1:  Iter= 20 NonCon=     1 RMS=4.27D-07 Max=1.03D-05 NDo=     1
 LinEq1:  Iter= 21 NonCon=     1 RMS=2.78D-07 Max=7.49D-06 NDo=     1
 LinEq1:  Iter= 22 NonCon=     1 RMS=1.67D-07 Max=6.74D-06 NDo=     1
 LinEq1:  Iter= 23 NonCon=     1 RMS=1.01D-07 Max=3.23D-06 NDo=     1
 LinEq1:  Iter= 24 NonCon=     1 RMS=6.30D-08 Max=1.41D-06 NDo=     1
 LinEq1:  Iter= 25 NonCon=     1 RMS=4.25D-08 Max=1.32D-06 NDo=     1
 LinEq1:  Iter= 26 NonCon=     1 RMS=2.74D-08 Max=5.29D-07 NDo=     1
 LinEq1:  Iter= 27 NonCon=     1 RMS=1.73D-08 Max=3.14D-07 NDo=     1
 LinEq1:  Iter= 28 NonCon=     0 RMS=1.07D-08 Max=1.92D-07 NDo=     1
 Linear equations converged to 2.962D-08 2.962D-07 after    28 iterations.
 Incorrect curvature in search direction -- initial direction reversed.
 LinEq1:  Iter=  0 NonCon=     1 RMS=9.43D-05 Max=5.02D-03 NDo=     1
 LinEq1:  Iter=  1 NonCon=     1 RMS=1.22D-04 Max=2.11D-03 NDo=     1
 LinEq1:  Iter=  2 NonCon=     1 RMS=4.19D-05 Max=8.55D-04 NDo=     1
 LinEq1:  Iter=  3 NonCon=     1 RMS=5.35D-05 Max=1.50D-03 NDo=     1
 LinEq1:  Iter=  4 NonCon=     1 RMS=2.95D-05 Max=6.65D-04 NDo=     1
 LinEq1:  Iter=  5 NonCon=     1 RMS=3.09D-05 Max=1.46D-03 NDo=     1
 LinEq1:  Iter=  6 NonCon=     1 RMS=1.78D-05 Max=3.96D-04 NDo=     1
 LinEq1:  Iter=  7 NonCon=     1 RMS=1.42D-05 Max=5.01D-04 NDo=     1
 LinEq1:  Iter=  8 NonCon=     1 RMS=1.23D-05 Max=3.82D-04 NDo=     1
 LinEq1:  Iter=  9 NonCon=     1 RMS=1.11D-05 Max=2.76D-04 NDo=     1
 LinEq1:  Iter= 10 NonCon=     1 RMS=8.72D-06 Max=2.62D-04 NDo=     1
 LinEq1:  Iter= 11 NonCon=     1 RMS=7.00D-06 Max=2.11D-04 NDo=     1
 LinEq1:  Iter= 12 NonCon=     1 RMS=5.82D-06 Max=1.72D-04 NDo=     1
 LinEq1:  Iter= 13 NonCon=     1 RMS=4.39D-06 Max=2.01D-04 NDo=     1
 LinEq1:  Iter= 14 NonCon=     1 RMS=3.91D-06 Max=1.48D-04 NDo=     1
 LinEq1:  Iter= 15 NonCon=     1 RMS=3.59D-06 Max=1.05D-04 NDo=     1
 LinEq1:  Iter= 16 NonCon=     1 RMS=2.55D-06 Max=1.06D-04 NDo=     1
 LinEq1:  Iter= 17 NonCon=     1 RMS=1.59D-06 Max=5.34D-05 NDo=     1
 LinEq1:  Iter= 18 NonCon=     1 RMS=1.09D-06 Max=2.33D-05 NDo=     1
 LinEq1:  Iter= 19 NonCon=     1 RMS=9.68D-07 Max=3.30D-05 NDo=     1
 LinEq1:  Iter= 20 NonCon=     1 RMS=7.38D-07 Max=2.00D-05 NDo=     1
 LinEq1:  Iter= 21 NonCon=     1 RMS=5.14D-07 Max=1.69D-05 NDo=     1
 LinEq1:  Iter= 22 NonCon=     1 RMS=3.17D-07 Max=1.13D-05 NDo=     1
 LinEq1:  Iter= 23 NonCon=     1 RMS=2.38D-07 Max=6.45D-06 NDo=     1
 LinEq1:  Iter= 24 NonCon=     1 RMS=1.06D-07 Max=2.62D-06 NDo=     1
 LinEq1:  Iter= 25 NonCon=     1 RMS=8.92D-08 Max=2.06D-06 NDo=     1
 LinEq1:  Iter= 26 NonCon=     1 RMS=4.57D-08 Max=6.93D-07 NDo=     1
 LinEq1:  Iter= 27 NonCon=     1 RMS=2.69D-08 Max=5.10D-07 NDo=     1
 LinEq1:  Iter= 28 NonCon=     1 RMS=1.71D-08 Max=3.13D-07 NDo=     1
 LinEq1:  Iter= 29 NonCon=     0 RMS=9.23D-09 Max=1.86D-07 NDo=     1
 Linear equations converged to 2.962D-08 2.962D-07 after    29 iterations.
 Incorrect curvature in search direction -- initial direction reversed.
 LinEq1:  Iter=  0 NonCon=     1 RMS=9.67D-05 Max=5.20D-03 NDo=     1
 LinEq1:  Iter=  1 NonCon=     1 RMS=1.25D-04 Max=3.47D-03 NDo=     1
 LinEq1:  Iter=  2 NonCon=     1 RMS=4.55D-05 Max=1.12D-03 NDo=     1
 LinEq1:  Iter=  3 NonCon=     1 RMS=5.71D-05 Max=1.72D-03 NDo=     1
 LinEq1:  Iter=  4 NonCon=     1 RMS=3.20D-05 Max=6.33D-04 NDo=     1
 LinEq1:  Iter=  5 NonCon=     1 RMS=3.33D-05 Max=1.27D-03 NDo=     1
 LinEq1:  Iter=  6 NonCon=     1 RMS=2.11D-05 Max=5.46D-04 NDo=     1
 LinEq1:  Iter=  7 NonCon=     1 RMS=1.51D-05 Max=5.00D-04 NDo=     1
 LinEq1:  Iter=  8 NonCon=     1 RMS=1.36D-05 Max=4.48D-04 NDo=     1
 LinEq1:  Iter=  9 NonCon=     1 RMS=1.19D-05 Max=3.60D-04 NDo=     1
 LinEq1:  Iter= 10 NonCon=     1 RMS=9.72D-06 Max=4.02D-04 NDo=     1
 LinEq1:  Iter= 11 NonCon=     1 RMS=7.83D-06 Max=2.61D-04 NDo=     1
 LinEq1:  Iter= 12 NonCon=     1 RMS=6.43D-06 Max=1.97D-04 NDo=     1
 LinEq1:  Iter= 13 NonCon=     1 RMS=4.85D-06 Max=2.22D-04 NDo=     1
 LinEq1:  Iter= 14 NonCon=     1 RMS=4.16D-06 Max=1.59D-04 NDo=     1
 LinEq1:  Iter= 15 NonCon=     1 RMS=3.89D-06 Max=1.28D-04 NDo=     1
 LinEq1:  Iter= 16 NonCon=     1 RMS=2.88D-06 Max=1.16D-04 NDo=     1
 LinEq1:  Iter= 17 NonCon=     1 RMS=1.75D-06 Max=5.27D-05 NDo=     1
 LinEq1:  Iter= 18 NonCon=     1 RMS=1.37D-06 Max=3.34D-05 NDo=     1
 LinEq1:  Iter= 19 NonCon=     1 RMS=1.18D-06 Max=3.55D-05 NDo=     1
 LinEq1:  Iter= 20 NonCon=     1 RMS=8.40D-07 Max=2.20D-05 NDo=     1
 LinEq1:  Iter= 21 NonCon=     1 RMS=4.95D-07 Max=1.71D-05 NDo=     1
 LinEq1:  Iter= 22 NonCon=     1 RMS=3.33D-07 Max=1.21D-05 NDo=     1
 LinEq1:  Iter= 23 NonCon=     1 RMS=2.21D-07 Max=6.10D-06 NDo=     1
 LinEq1:  Iter= 24 NonCon=     1 RMS=1.15D-07 Max=3.41D-06 NDo=     1
 LinEq1:  Iter= 25 NonCon=     1 RMS=8.95D-08 Max=2.53D-06 NDo=     1
 LinEq1:  Iter= 26 NonCon=     1 RMS=5.26D-08 Max=9.43D-07 NDo=     1
 LinEq1:  Iter= 27 NonCon=     1 RMS=3.21D-08 Max=5.98D-07 NDo=     1
 LinEq1:  Iter= 28 NonCon=     1 RMS=1.97D-08 Max=4.07D-07 NDo=     1
 LinEq1:  Iter= 29 NonCon=     0 RMS=1.21D-08 Max=2.28D-07 NDo=     1
 Linear equations converged to 2.962D-08 2.962D-07 after    29 iterations.
 LinEq1:  Iter=  0 NonCon=     1 RMS=9.60D-05 Max=5.10D-03 NDo=     1
 LinEq1:  Iter=  1 NonCon=     1 RMS=1.25D-04 Max=3.12D-03 NDo=     1
 LinEq1:  Iter=  2 NonCon=     1 RMS=5.72D-05 Max=1.51D-03 NDo=     1
 LinEq1:  Iter=  3 NonCon=     1 RMS=6.70D-05 Max=1.46D-03 NDo=     1
 LinEq1:  Iter=  4 NonCon=     1 RMS=4.08D-05 Max=7.73D-04 NDo=     1
 LinEq1:  Iter=  5 NonCon=     1 RMS=3.83D-05 Max=1.84D-03 NDo=     1
 LinEq1:  Iter=  6 NonCon=     1 RMS=3.14D-05 Max=8.94D-04 NDo=     1
 LinEq1:  Iter=  7 NonCon=     1 RMS=1.68D-05 Max=6.77D-04 NDo=     1
 LinEq1:  Iter=  8 NonCon=     1 RMS=1.53D-05 Max=5.13D-04 NDo=     1
 LinEq1:  Iter=  9 NonCon=     1 RMS=1.25D-05 Max=5.52D-04 NDo=     1
 LinEq1:  Iter= 10 NonCon=     1 RMS=1.09D-05 Max=5.29D-04 NDo=     1
 LinEq1:  Iter= 11 NonCon=     1 RMS=9.70D-06 Max=3.77D-04 NDo=     1
 LinEq1:  Iter= 12 NonCon=     1 RMS=7.65D-06 Max=2.83D-04 NDo=     1
 LinEq1:  Iter= 13 NonCon=     1 RMS=5.54D-06 Max=2.56D-04 NDo=     1
 LinEq1:  Iter= 14 NonCon=     1 RMS=4.25D-06 Max=1.59D-04 NDo=     1
 LinEq1:  Iter= 15 NonCon=     1 RMS=3.48D-06 Max=1.36D-04 NDo=     1
 LinEq1:  Iter= 16 NonCon=     1 RMS=3.23D-06 Max=1.26D-04 NDo=     1
 LinEq1:  Iter= 17 NonCon=     1 RMS=2.35D-06 Max=9.30D-05 NDo=     1
 LinEq1:  Iter= 18 NonCon=     1 RMS=1.79D-06 Max=5.71D-05 NDo=     1
 LinEq1:  Iter= 19 NonCon=     1 RMS=1.67D-06 Max=5.75D-05 NDo=     1
 LinEq1:  Iter= 20 NonCon=     1 RMS=1.13D-06 Max=3.34D-05 NDo=     1
 LinEq1:  Iter= 21 NonCon=     1 RMS=8.05D-07 Max=2.62D-05 NDo=     1
 LinEq1:  Iter= 22 NonCon=     1 RMS=4.83D-07 Max=1.14D-05 NDo=     1
 LinEq1:  Iter= 23 NonCon=     1 RMS=3.57D-07 Max=8.93D-06 NDo=     1
 LinEq1:  Iter= 24 NonCon=     1 RMS=2.04D-07 Max=3.92D-06 NDo=     1
 LinEq1:  Iter= 25 NonCon=     1 RMS=1.24D-07 Max=2.76D-06 NDo=     1
 LinEq1:  Iter= 26 NonCon=     1 RMS=8.37D-08 Max=1.50D-06 NDo=     1
 LinEq1:  Iter= 27 NonCon=     1 RMS=4.31D-08 Max=1.02D-06 NDo=     1
 LinEq1:  Iter= 28 NonCon=     1 RMS=2.94D-08 Max=4.98D-07 NDo=     1
 LinEq1:  Iter= 29 NonCon=     1 RMS=1.73D-08 Max=3.13D-07 NDo=     1
 LinEq1:  Iter= 30 NonCon=     0 RMS=8.14D-09 Max=1.31D-07 NDo=     1
 Linear equations converged to 2.962D-08 2.962D-07 after    30 iterations.
 LinEq1:  Iter=  0 NonCon=     1 RMS=9.31D-05 Max=5.01D-03 NDo=     1
 LinEq1:  Iter=  1 NonCon=     1 RMS=1.19D-04 Max=3.32D-03 NDo=     1
 LinEq1:  Iter=  2 NonCon=     1 RMS=5.99D-05 Max=1.74D-03 NDo=     1
 LinEq1:  Iter=  3 NonCon=     1 RMS=6.65D-05 Max=1.44D-03 NDo=     1
 LinEq1:  Iter=  4 NonCon=     1 RMS=4.35D-05 Max=7.17D-04 NDo=     1
 LinEq1:  Iter=  5 NonCon=     1 RMS=3.89D-05 Max=1.71D-03 NDo=     1
 LinEq1:  Iter=  6 NonCon=     1 RMS=3.38D-05 Max=9.55D-04 NDo=     1
 LinEq1:  Iter=  7 NonCon=     1 RMS=1.90D-05 Max=6.68D-04 NDo=     1
 LinEq1:  Iter=  8 NonCon=     1 RMS=1.64D-05 Max=4.23D-04 NDo=     1
 LinEq1:  Iter=  9 NonCon=     1 RMS=1.32D-05 Max=4.54D-04 NDo=     1
 LinEq1:  Iter= 10 NonCon=     1 RMS=1.20D-05 Max=5.03D-04 NDo=     1
 LinEq1:  Iter= 11 NonCon=     1 RMS=1.02D-05 Max=3.14D-04 NDo=     1
 LinEq1:  Iter= 12 NonCon=     1 RMS=8.05D-06 Max=1.98D-04 NDo=     1
 LinEq1:  Iter= 13 NonCon=     1 RMS=6.35D-06 Max=3.12D-04 NDo=     1
 LinEq1:  Iter= 14 NonCon=     1 RMS=4.55D-06 Max=1.28D-04 NDo=     1
 LinEq1:  Iter= 15 NonCon=     1 RMS=3.43D-06 Max=1.28D-04 NDo=     1
 LinEq1:  Iter= 16 NonCon=     1 RMS=3.20D-06 Max=1.42D-04 NDo=     1
 LinEq1:  Iter= 17 NonCon=     1 RMS=2.67D-06 Max=1.04D-04 NDo=     1
 LinEq1:  Iter= 18 NonCon=     1 RMS=1.75D-06 Max=7.20D-05 NDo=     1
 LinEq1:  Iter= 19 NonCon=     1 RMS=1.61D-06 Max=6.85D-05 NDo=     1
 LinEq1:  Iter= 20 NonCon=     1 RMS=1.20D-06 Max=4.06D-05 NDo=     1
 LinEq1:  Iter= 21 NonCon=     1 RMS=9.22D-07 Max=4.49D-05 NDo=     1
 LinEq1:  Iter= 22 NonCon=     1 RMS=6.59D-07 Max=2.16D-05 NDo=     1
 LinEq1:  Iter= 23 NonCon=     1 RMS=3.96D-07 Max=1.65D-05 NDo=     1
 LinEq1:  Iter= 24 NonCon=     1 RMS=2.55D-07 Max=7.67D-06 NDo=     1
 LinEq1:  Iter= 25 NonCon=     1 RMS=1.66D-07 Max=4.25D-06 NDo=     1
 LinEq1:  Iter= 26 NonCon=     1 RMS=1.05D-07 Max=2.61D-06 NDo=     1
 LinEq1:  Iter= 27 NonCon=     1 RMS=5.56D-08 Max=1.11D-06 NDo=     1
 LinEq1:  Iter= 28 NonCon=     1 RMS=3.55D-08 Max=6.00D-07 NDo=     1
 LinEq1:  Iter= 29 NonCon=     1 RMS=2.24D-08 Max=4.31D-07 NDo=     1
 LinEq1:  Iter= 30 NonCon=     0 RMS=1.20D-08 Max=2.74D-07 NDo=     1
 Linear equations converged to 2.962D-08 2.962D-07 after    30 iterations.
 Incorrect curvature in search direction -- initial direction reversed.
 Gradient too large for Newton-Raphson -- use scaled steepest descent instead.
     Accept linear search using points  2 and  3.
 Gradient too large for Newton-Raphson -- use scaled steepest descent instead.
     Accept linear search using points  1 and  2.
 LinEq1:  Iter=  0 NonCon=     1 RMS=9.05D-05 Max=5.88D-03 NDo=     1
 LinEq1:  Iter=  1 NonCon=     1 RMS=1.04D-04 Max=2.63D-03 NDo=     1
 LinEq1:  Iter=  2 NonCon=     1 RMS=4.16D-05 Max=2.61D-03 NDo=     1
 LinEq1:  Iter=  3 NonCon=     1 RMS=2.88D-05 Max=1.03D-03 NDo=     1
 LinEq1:  Iter=  4 NonCon=     1 RMS=2.35D-05 Max=7.85D-04 NDo=     1
 LinEq1:  Iter=  5 NonCon=     1 RMS=1.91D-05 Max=1.02D-03 NDo=     1
 LinEq1:  Iter=  6 NonCon=     1 RMS=1.25D-05 Max=3.24D-04 NDo=     1
 LinEq1:  Iter=  7 NonCon=     1 RMS=1.03D-05 Max=6.50D-04 NDo=     1
 LinEq1:  Iter=  8 NonCon=     1 RMS=8.47D-06 Max=4.28D-04 NDo=     1
 LinEq1:  Iter=  9 NonCon=     1 RMS=7.23D-06 Max=2.25D-04 NDo=     1
 LinEq1:  Iter= 10 NonCon=     1 RMS=6.38D-06 Max=3.93D-04 NDo=     1
 LinEq1:  Iter= 11 NonCon=     1 RMS=4.23D-06 Max=1.52D-04 NDo=     1
 LinEq1:  Iter= 12 NonCon=     1 RMS=3.28D-06 Max=1.45D-04 NDo=     1
 LinEq1:  Iter= 13 NonCon=     1 RMS=3.11D-06 Max=1.09D-04 NDo=     1
 LinEq1:  Iter= 14 NonCon=     1 RMS=2.07D-06 Max=7.02D-05 NDo=     1
 LinEq1:  Iter= 15 NonCon=     1 RMS=1.46D-06 Max=6.97D-05 NDo=     1
 LinEq1:  Iter= 16 NonCon=     1 RMS=1.15D-06 Max=3.43D-05 NDo=     1
 LinEq1:  Iter= 17 NonCon=     1 RMS=9.33D-07 Max=3.78D-05 NDo=     1
 LinEq1:  Iter= 18 NonCon=     1 RMS=7.96D-07 Max=2.42D-05 NDo=     1
 LinEq1:  Iter= 19 NonCon=     1 RMS=4.00D-07 Max=1.27D-05 NDo=     1
 LinEq1:  Iter= 20 NonCon=     1 RMS=2.56D-07 Max=5.58D-06 NDo=     1
 LinEq1:  Iter= 21 NonCon=     1 RMS=1.79D-07 Max=3.71D-06 NDo=     1
 LinEq1:  Iter= 22 NonCon=     1 RMS=1.33D-07 Max=3.72D-06 NDo=     1
 LinEq1:  Iter= 23 NonCon=     1 RMS=1.07D-07 Max=2.43D-06 NDo=     1
 LinEq1:  Iter= 24 NonCon=     1 RMS=7.08D-08 Max=1.15D-06 NDo=     1
 LinEq1:  Iter= 25 NonCon=     1 RMS=4.99D-08 Max=1.24D-06 NDo=     1
 LinEq1:  Iter= 26 NonCon=     1 RMS=2.62D-08 Max=6.08D-07 NDo=     1
 LinEq1:  Iter= 27 NonCon=     1 RMS=2.04D-08 Max=4.85D-07 NDo=     1
 LinEq1:  Iter= 28 NonCon=     0 RMS=1.24D-08 Max=2.22D-07 NDo=     1
 Linear equations converged to 2.962D-08 2.962D-07 after    28 iterations.
 LinEq1:  Iter=  0 NonCon=     1 RMS=8.90D-05 Max=5.49D-03 NDo=     1
 LinEq1:  Iter=  1 NonCon=     1 RMS=1.01D-04 Max=2.49D-03 NDo=     1
 LinEq1:  Iter=  2 NonCon=     1 RMS=4.51D-05 Max=2.70D-03 NDo=     1
 LinEq1:  Iter=  3 NonCon=     1 RMS=3.44D-05 Max=1.35D-03 NDo=     1
 LinEq1:  Iter=  4 NonCon=     1 RMS=2.72D-05 Max=8.52D-04 NDo=     1
 LinEq1:  Iter=  5 NonCon=     1 RMS=2.32D-05 Max=1.19D-03 NDo=     1
 LinEq1:  Iter=  6 NonCon=     1 RMS=1.89D-05 Max=5.47D-04 NDo=     1
 LinEq1:  Iter=  7 NonCon=     1 RMS=1.23D-05 Max=7.34D-04 NDo=     1
 LinEq1:  Iter=  8 NonCon=     1 RMS=1.05D-05 Max=4.82D-04 NDo=     1
 LinEq1:  Iter=  9 NonCon=     1 RMS=9.29D-06 Max=2.48D-04 NDo=     1
 LinEq1:  Iter= 10 NonCon=     1 RMS=7.73D-06 Max=4.00D-04 NDo=     1
 LinEq1:  Iter= 11 NonCon=     1 RMS=6.11D-06 Max=2.10D-04 NDo=     1
 LinEq1:  Iter= 12 NonCon=     1 RMS=4.36D-06 Max=2.07D-04 NDo=     1
 LinEq1:  Iter= 13 NonCon=     1 RMS=3.86D-06 Max=1.08D-04 NDo=     1
 LinEq1:  Iter= 14 NonCon=     1 RMS=3.22D-06 Max=9.84D-05 NDo=     1
 LinEq1:  Iter= 15 NonCon=     1 RMS=2.43D-06 Max=1.26D-04 NDo=     1
 LinEq1:  Iter= 16 NonCon=     1 RMS=2.04D-06 Max=4.92D-05 NDo=     1
 LinEq1:  Iter= 17 NonCon=     1 RMS=1.32D-06 Max=4.36D-05 NDo=     1
 LinEq1:  Iter= 18 NonCon=     1 RMS=1.01D-06 Max=2.93D-05 NDo=     1
 LinEq1:  Iter= 19 NonCon=     1 RMS=7.50D-07 Max=1.48D-05 NDo=     1
 LinEq1:  Iter= 20 NonCon=     1 RMS=5.99D-07 Max=1.53D-05 NDo=     1
 LinEq1:  Iter= 21 NonCon=     1 RMS=3.93D-07 Max=9.66D-06 NDo=     1
 LinEq1:  Iter= 22 NonCon=     1 RMS=3.39D-07 Max=1.16D-05 NDo=     1
 LinEq1:  Iter= 23 NonCon=     1 RMS=2.63D-07 Max=7.59D-06 NDo=     1
 LinEq1:  Iter= 24 NonCon=     1 RMS=1.78D-07 Max=4.34D-06 NDo=     1
 LinEq1:  Iter= 25 NonCon=     1 RMS=7.89D-08 Max=1.78D-06 NDo=     1
 LinEq1:  Iter= 26 NonCon=     1 RMS=6.34D-08 Max=1.68D-06 NDo=     1
 LinEq1:  Iter= 27 NonCon=     1 RMS=3.60D-08 Max=1.03D-06 NDo=     1
 LinEq1:  Iter= 28 NonCon=     1 RMS=1.79D-08 Max=4.90D-07 NDo=     1
 LinEq1:  Iter= 29 NonCon=     1 RMS=1.15D-08 Max=3.02D-07 NDo=     1
 LinEq1:  Iter= 30 NonCon=     0 RMS=6.67D-09 Max=1.67D-07 NDo=     1
 Linear equations converged to 2.962D-08 2.962D-07 after    30 iterations.
 Incorrect curvature in search direction -- initial direction reversed.
 LinEq1:  Iter=  0 NonCon=     1 RMS=1.03D-04 Max=5.64D-03 NDo=     1
 LinEq1:  Iter=  1 NonCon=     1 RMS=1.15D-04 Max=2.93D-03 NDo=     1
 LinEq1:  Iter=  2 NonCon=     1 RMS=6.28D-05 Max=2.66D-03 NDo=     1
 LinEq1:  Iter=  3 NonCon=     1 RMS=5.28D-05 Max=2.28D-03 NDo=     1
 LinEq1:  Iter=  4 NonCon=     1 RMS=3.51D-05 Max=1.07D-03 NDo=     1
 LinEq1:  Iter=  5 NonCon=     1 RMS=3.08D-05 Max=1.10D-03 NDo=     1
 LinEq1:  Iter=  6 NonCon=     1 RMS=2.83D-05 Max=7.71D-04 NDo=     1
 LinEq1:  Iter=  7 NonCon=     1 RMS=1.78D-05 Max=7.43D-04 NDo=     1
 LinEq1:  Iter=  8 NonCon=     1 RMS=1.43D-05 Max=5.24D-04 NDo=     1
 LinEq1:  Iter=  9 NonCon=     1 RMS=1.26D-05 Max=3.11D-04 NDo=     1
 LinEq1:  Iter= 10 NonCon=     1 RMS=1.13D-05 Max=3.57D-04 NDo=     1
 LinEq1:  Iter= 11 NonCon=     1 RMS=8.45D-06 Max=1.58D-04 NDo=     1
 LinEq1:  Iter= 12 NonCon=     1 RMS=6.23D-06 Max=1.82D-04 NDo=     1
 LinEq1:  Iter= 13 NonCon=     1 RMS=5.19D-06 Max=1.14D-04 NDo=     1
 LinEq1:  Iter= 14 NonCon=     1 RMS=4.17D-06 Max=1.29D-04 NDo=     1
 LinEq1:  Iter= 15 NonCon=     1 RMS=3.39D-06 Max=1.02D-04 NDo=     1
 LinEq1:  Iter= 16 NonCon=     1 RMS=2.60D-06 Max=8.31D-05 NDo=     1
 LinEq1:  Iter= 17 NonCon=     1 RMS=2.21D-06 Max=5.49D-05 NDo=     1
 LinEq1:  Iter= 18 NonCon=     1 RMS=1.49D-06 Max=4.65D-05 NDo=     1
 LinEq1:  Iter= 19 NonCon=     1 RMS=9.56D-07 Max=2.64D-05 NDo=     1
 LinEq1:  Iter= 20 NonCon=     1 RMS=7.52D-07 Max=2.25D-05 NDo=     1
 LinEq1:  Iter= 21 NonCon=     1 RMS=5.66D-07 Max=1.06D-05 NDo=     1
 LinEq1:  Iter= 22 NonCon=     1 RMS=4.98D-07 Max=2.34D-05 NDo=     1
 LinEq1:  Iter= 23 NonCon=     1 RMS=3.02D-07 Max=7.23D-06 NDo=     1
 LinEq1:  Iter= 24 NonCon=     1 RMS=1.96D-07 Max=6.76D-06 NDo=     1
 LinEq1:  Iter= 25 NonCon=     1 RMS=1.26D-07 Max=2.85D-06 NDo=     1
 LinEq1:  Iter= 26 NonCon=     1 RMS=8.19D-08 Max=3.20D-06 NDo=     1
 LinEq1:  Iter= 27 NonCon=     1 RMS=6.08D-08 Max=1.79D-06 NDo=     1
 LinEq1:  Iter= 28 NonCon=     1 RMS=4.35D-08 Max=1.74D-06 NDo=     1
 LinEq1:  Iter= 29 NonCon=     1 RMS=2.25D-08 Max=5.22D-07 NDo=     1
 LinEq1:  Iter= 30 NonCon=     1 RMS=1.38D-08 Max=4.35D-07 NDo=     1
 LinEq1:  Iter= 31 NonCon=     0 RMS=8.86D-09 Max=2.53D-07 NDo=     1
 Linear equations converged to 2.962D-08 2.962D-07 after    31 iterations.
 LinEq1:  Iter=  0 NonCon=     1 RMS=9.76D-05 Max=5.18D-03 NDo=     1
 LinEq1:  Iter=  1 NonCon=     1 RMS=1.05D-04 Max=2.43D-03 NDo=     1
 LinEq1:  Iter=  2 NonCon=     1 RMS=6.38D-05 Max=2.38D-03 NDo=     1
 LinEq1:  Iter=  3 NonCon=     1 RMS=5.57D-05 Max=2.35D-03 NDo=     1
 LinEq1:  Iter=  4 NonCon=     1 RMS=3.48D-05 Max=1.22D-03 NDo=     1
 LinEq1:  Iter=  5 NonCon=     1 RMS=3.02D-05 Max=1.14D-03 NDo=     1
 LinEq1:  Iter=  6 NonCon=     1 RMS=2.80D-05 Max=8.35D-04 NDo=     1
 LinEq1:  Iter=  7 NonCon=     1 RMS=1.83D-05 Max=1.01D-03 NDo=     1
 LinEq1:  Iter=  8 NonCon=     1 RMS=1.48D-05 Max=6.90D-04 NDo=     1
 LinEq1:  Iter=  9 NonCon=     1 RMS=1.28D-05 Max=4.32D-04 NDo=     1
 LinEq1:  Iter= 10 NonCon=     1 RMS=1.15D-05 Max=5.65D-04 NDo=     1
 LinEq1:  Iter= 11 NonCon=     1 RMS=9.43D-06 Max=3.05D-04 NDo=     1
 LinEq1:  Iter= 12 NonCon=     1 RMS=7.35D-06 Max=2.64D-04 NDo=     1
 LinEq1:  Iter= 13 NonCon=     1 RMS=5.79D-06 Max=1.72D-04 NDo=     1
 LinEq1:  Iter= 14 NonCon=     1 RMS=4.17D-06 Max=9.37D-05 NDo=     1
 LinEq1:  Iter= 15 NonCon=     1 RMS=3.14D-06 Max=1.23D-04 NDo=     1
 LinEq1:  Iter= 16 NonCon=     1 RMS=2.39D-06 Max=7.18D-05 NDo=     1
 LinEq1:  Iter= 17 NonCon=     1 RMS=2.68D-06 Max=1.06D-04 NDo=     1
 LinEq1:  Iter= 18 NonCon=     1 RMS=1.38D-06 Max=3.02D-05 NDo=     1
 LinEq1:  Iter= 19 NonCon=     1 RMS=1.13D-06 Max=3.28D-05 NDo=     1
 LinEq1:  Iter= 20 NonCon=     1 RMS=8.43D-07 Max=4.05D-05 NDo=     1
 LinEq1:  Iter= 21 NonCon=     1 RMS=6.29D-07 Max=1.95D-05 NDo=     1
 LinEq1:  Iter= 22 NonCon=     1 RMS=5.54D-07 Max=1.63D-05 NDo=     1
 LinEq1:  Iter= 23 NonCon=     1 RMS=3.81D-07 Max=9.39D-06 NDo=     1
 LinEq1:  Iter= 24 NonCon=     1 RMS=2.59D-07 Max=6.40D-06 NDo=     1
 LinEq1:  Iter= 25 NonCon=     1 RMS=1.97D-07 Max=7.34D-06 NDo=     1
 LinEq1:  Iter= 26 NonCon=     1 RMS=1.25D-07 Max=3.71D-06 NDo=     1
 LinEq1:  Iter= 27 NonCon=     1 RMS=8.03D-08 Max=3.24D-06 NDo=     1
 LinEq1:  Iter= 28 NonCon=     1 RMS=5.31D-08 Max=1.86D-06 NDo=     1
 LinEq1:  Iter= 29 NonCon=     1 RMS=2.32D-08 Max=6.60D-07 NDo=     1
 LinEq1:  Iter= 30 NonCon=     1 RMS=1.63D-08 Max=5.38D-07 NDo=     1
 LinEq1:  Iter= 31 NonCon=     1 RMS=9.64D-09 Max=3.11D-07 NDo=     1
 LinEq1:  Iter= 32 NonCon=     0 RMS=4.86D-09 Max=1.29D-07 NDo=     1
 Linear equations converged to 2.962D-08 2.962D-07 after    32 iterations.
 LinEq1:  Iter=  0 NonCon=     1 RMS=8.24D-05 Max=4.34D-03 NDo=     1
 LinEq1:  Iter=  1 NonCon=     1 RMS=8.53D-05 Max=2.13D-03 NDo=     1
 LinEq1:  Iter=  2 NonCon=     1 RMS=6.28D-05 Max=2.51D-03 NDo=     1
 LinEq1:  Iter=  3 NonCon=     1 RMS=5.38D-05 Max=1.44D-03 NDo=     1
 LinEq1:  Iter=  4 NonCon=     1 RMS=3.45D-05 Max=7.88D-04 NDo=     1
 LinEq1:  Iter=  5 NonCon=     1 RMS=2.38D-05 Max=1.08D-03 NDo=     1
 LinEq1:  Iter=  6 NonCon=     1 RMS=2.29D-05 Max=6.14D-04 NDo=     1
 LinEq1:  Iter=  7 NonCon=     1 RMS=1.74D-05 Max=8.77D-04 NDo=     1
 LinEq1:  Iter=  8 NonCon=     1 RMS=1.48D-05 Max=7.00D-04 NDo=     1
 LinEq1:  Iter=  9 NonCon=     1 RMS=1.15D-05 Max=5.38D-04 NDo=     1
 LinEq1:  Iter= 10 NonCon=     1 RMS=9.94D-06 Max=5.41D-04 NDo=     1
 LinEq1:  Iter= 11 NonCon=     1 RMS=7.57D-06 Max=3.17D-04 NDo=     1
 LinEq1:  Iter= 12 NonCon=     1 RMS=6.89D-06 Max=2.87D-04 NDo=     1
 LinEq1:  Iter= 13 NonCon=     1 RMS=5.56D-06 Max=2.03D-04 NDo=     1
 LinEq1:  Iter= 14 NonCon=     1 RMS=4.63D-06 Max=2.34D-04 NDo=     1
 LinEq1:  Iter= 15 NonCon=     1 RMS=3.37D-06 Max=1.03D-04 NDo=     1
 LinEq1:  Iter= 16 NonCon=     1 RMS=2.91D-06 Max=9.72D-05 NDo=     1
 LinEq1:  Iter= 17 NonCon=     1 RMS=2.83D-06 Max=1.21D-04 NDo=     1
 LinEq1:  Iter= 18 NonCon=     1 RMS=1.74D-06 Max=4.23D-05 NDo=     1
 LinEq1:  Iter= 19 NonCon=     1 RMS=1.12D-06 Max=2.05D-05 NDo=     1
 LinEq1:  Iter= 20 NonCon=     1 RMS=9.36D-07 Max=1.76D-05 NDo=     1
 LinEq1:  Iter= 21 NonCon=     1 RMS=5.98D-07 Max=1.50D-05 NDo=     1
 LinEq1:  Iter= 22 NonCon=     1 RMS=5.49D-07 Max=1.72D-05 NDo=     1
 LinEq1:  Iter= 23 NonCon=     1 RMS=4.14D-07 Max=1.14D-05 NDo=     1
 LinEq1:  Iter= 24 NonCon=     1 RMS=2.62D-07 Max=8.43D-06 NDo=     1
 LinEq1:  Iter= 25 NonCon=     1 RMS=2.12D-07 Max=6.48D-06 NDo=     1
 LinEq1:  Iter= 26 NonCon=     1 RMS=1.30D-07 Max=3.01D-06 NDo=     1
 LinEq1:  Iter= 27 NonCon=     1 RMS=6.66D-08 Max=2.04D-06 NDo=     1
 LinEq1:  Iter= 28 NonCon=     1 RMS=3.83D-08 Max=9.57D-07 NDo=     1
 LinEq1:  Iter= 29 NonCon=     1 RMS=2.80D-08 Max=7.75D-07 NDo=     1
 LinEq1:  Iter= 30 NonCon=     1 RMS=1.48D-08 Max=4.00D-07 NDo=     1
 LinEq1:  Iter= 31 NonCon=     0 RMS=9.05D-09 Max=2.22D-07 NDo=     1
 Linear equations converged to 2.962D-08 2.962D-07 after    31 iterations.
 LinEq1:  Iter=  0 NonCon=     1 RMS=8.07D-05 Max=3.15D-03 NDo=     1
 LinEq1:  Iter=  1 NonCon=     1 RMS=7.27D-05 Max=1.88D-03 NDo=     1
 LinEq1:  Iter=  2 NonCon=     1 RMS=6.08D-05 Max=2.14D-03 NDo=     1
 LinEq1:  Iter=  3 NonCon=     1 RMS=5.48D-05 Max=1.32D-03 NDo=     1
 LinEq1:  Iter=  4 NonCon=     1 RMS=3.80D-05 Max=6.54D-04 NDo=     1
 LinEq1:  Iter=  5 NonCon=     1 RMS=2.95D-05 Max=9.25D-04 NDo=     1
 LinEq1:  Iter=  6 NonCon=     1 RMS=2.76D-05 Max=7.04D-04 NDo=     1
 LinEq1:  Iter=  7 NonCon=     1 RMS=1.83D-05 Max=5.03D-04 NDo=     1
 LinEq1:  Iter=  8 NonCon=     1 RMS=1.68D-05 Max=3.75D-04 NDo=     1
 LinEq1:  Iter=  9 NonCon=     1 RMS=1.38D-05 Max=2.90D-04 NDo=     1
 LinEq1:  Iter= 10 NonCon=     1 RMS=1.15D-05 Max=3.95D-04 NDo=     1
 LinEq1:  Iter= 11 NonCon=     1 RMS=8.66D-06 Max=1.63D-04 NDo=     1
 LinEq1:  Iter= 12 NonCon=     1 RMS=7.86D-06 Max=2.21D-04 NDo=     1
 LinEq1:  Iter= 13 NonCon=     1 RMS=5.96D-06 Max=1.32D-04 NDo=     1
 LinEq1:  Iter= 14 NonCon=     1 RMS=5.13D-06 Max=1.39D-04 NDo=     1
 LinEq1:  Iter= 15 NonCon=     1 RMS=3.98D-06 Max=7.78D-05 NDo=     1
 LinEq1:  Iter= 16 NonCon=     1 RMS=3.08D-06 Max=7.95D-05 NDo=     1
 LinEq1:  Iter= 17 NonCon=     1 RMS=2.77D-06 Max=1.04D-04 NDo=     1
 LinEq1:  Iter= 18 NonCon=     1 RMS=1.75D-06 Max=6.96D-05 NDo=     1
 LinEq1:  Iter= 19 NonCon=     1 RMS=1.40D-06 Max=2.71D-05 NDo=     1
 LinEq1:  Iter= 20 NonCon=     1 RMS=1.20D-06 Max=3.91D-05 NDo=     1
 LinEq1:  Iter= 21 NonCon=     1 RMS=7.80D-07 Max=1.51D-05 NDo=     1
 LinEq1:  Iter= 22 NonCon=     1 RMS=6.62D-07 Max=3.37D-05 NDo=     1
 LinEq1:  Iter= 23 NonCon=     1 RMS=4.00D-07 Max=9.24D-06 NDo=     1
 LinEq1:  Iter= 24 NonCon=     1 RMS=2.72D-07 Max=1.13D-05 NDo=     1
 LinEq1:  Iter= 25 NonCon=     1 RMS=2.02D-07 Max=5.85D-06 NDo=     1
 LinEq1:  Iter= 26 NonCon=     1 RMS=1.14D-07 Max=5.88D-06 NDo=     1
 LinEq1:  Iter= 27 NonCon=     1 RMS=6.34D-08 Max=2.50D-06 NDo=     1
 LinEq1:  Iter= 28 NonCon=     1 RMS=4.03D-08 Max=1.88D-06 NDo=     1
 LinEq1:  Iter= 29 NonCon=     1 RMS=2.82D-08 Max=1.18D-06 NDo=     1
 LinEq1:  Iter= 30 NonCon=     1 RMS=1.48D-08 Max=5.57D-07 NDo=     1
 LinEq1:  Iter= 31 NonCon=     0 RMS=9.97D-09 Max=2.51D-07 NDo=     1
 Linear equations converged to 2.962D-08 2.962D-07 after    31 iterations.
 Incorrect curvature in search direction -- initial direction reversed.
 Gradient too large for Newton-Raphson -- use scaled steepest descent instead.
     Accept linear search using points  2 and  3.
     Minimum is close to point  3 DX= -1.44D-02 DF= -1.91D-08 DXR=  1.12D-02 DFR=  4.66D-05 which will be used.
 Gradient too large for Newton-Raphson -- use scaled steepest descent instead.
     Accept linear search using points  1 and  2.
 LinEq1:  Iter=  0 NonCon=     1 RMS=7.66D-05 Max=3.75D-03 NDo=     1
 LinEq1:  Iter=  1 NonCon=     1 RMS=9.16D-05 Max=2.97D-03 NDo=     1
 LinEq1:  Iter=  2 NonCon=     1 RMS=3.37D-05 Max=9.51D-04 NDo=     1
 LinEq1:  Iter=  3 NonCon=     1 RMS=3.21D-05 Max=7.89D-04 NDo=     1
 LinEq1:  Iter=  4 NonCon=     1 RMS=2.66D-05 Max=8.64D-04 NDo=     1
 LinEq1:  Iter=  5 NonCon=     1 RMS=1.87D-05 Max=4.73D-04 NDo=     1
 LinEq1:  Iter=  6 NonCon=     1 RMS=1.89D-05 Max=4.23D-04 NDo=     1
 LinEq1:  Iter=  7 NonCon=     1 RMS=1.28D-05 Max=2.40D-04 NDo=     1
 LinEq1:  Iter=  8 NonCon=     1 RMS=1.04D-05 Max=2.55D-04 NDo=     1
 LinEq1:  Iter=  9 NonCon=     1 RMS=9.15D-06 Max=1.97D-04 NDo=     1
 LinEq1:  Iter= 10 NonCon=     1 RMS=6.84D-06 Max=2.04D-04 NDo=     1
 LinEq1:  Iter= 11 NonCon=     1 RMS=5.93D-06 Max=1.23D-04 NDo=     1
 LinEq1:  Iter= 12 NonCon=     1 RMS=5.22D-06 Max=1.04D-04 NDo=     1
 LinEq1:  Iter= 13 NonCon=     1 RMS=3.67D-06 Max=6.45D-05 NDo=     1
 LinEq1:  Iter= 14 NonCon=     1 RMS=2.72D-06 Max=7.72D-05 NDo=     1
 LinEq1:  Iter= 15 NonCon=     1 RMS=2.20D-06 Max=1.06D-04 NDo=     1
 LinEq1:  Iter= 16 NonCon=     1 RMS=1.77D-06 Max=7.45D-05 NDo=     1
 LinEq1:  Iter= 17 NonCon=     1 RMS=1.34D-06 Max=3.54D-05 NDo=     1
 LinEq1:  Iter= 18 NonCon=     1 RMS=8.82D-07 Max=3.01D-05 NDo=     1
 LinEq1:  Iter= 19 NonCon=     1 RMS=7.35D-07 Max=1.80D-05 NDo=     1
 LinEq1:  Iter= 20 NonCon=     1 RMS=5.31D-07 Max=1.12D-05 NDo=     1
 LinEq1:  Iter= 21 NonCon=     1 RMS=4.20D-07 Max=1.21D-05 NDo=     1
 LinEq1:  Iter= 22 NonCon=     1 RMS=2.65D-07 Max=6.54D-06 NDo=     1
 LinEq1:  Iter= 23 NonCon=     1 RMS=1.77D-07 Max=4.64D-06 NDo=     1
 LinEq1:  Iter= 24 NonCon=     1 RMS=1.08D-07 Max=3.02D-06 NDo=     1
 LinEq1:  Iter= 25 NonCon=     1 RMS=7.52D-08 Max=2.08D-06 NDo=     1
 LinEq1:  Iter= 26 NonCon=     1 RMS=4.27D-08 Max=1.23D-06 NDo=     1
 LinEq1:  Iter= 27 NonCon=     1 RMS=2.48D-08 Max=5.99D-07 NDo=     1
 LinEq1:  Iter= 28 NonCon=     1 RMS=1.52D-08 Max=4.73D-07 NDo=     1
 LinEq1:  Iter= 29 NonCon=     0 RMS=8.06D-09 Max=2.78D-07 NDo=     1
 Linear equations converged to 2.962D-08 2.962D-07 after    29 iterations.
 Incorrect curvature in search direction -- initial direction reversed.
 LinEq1:  Iter=  0 NonCon=     1 RMS=8.73D-05 Max=4.07D-03 NDo=     1
 LinEq1:  Iter=  1 NonCon=     1 RMS=1.05D-04 Max=3.53D-03 NDo=     1
 LinEq1:  Iter=  2 NonCon=     1 RMS=4.10D-05 Max=1.25D-03 NDo=     1
 LinEq1:  Iter=  3 NonCon=     1 RMS=3.85D-05 Max=1.06D-03 NDo=     1
 LinEq1:  Iter=  4 NonCon=     1 RMS=3.09D-05 Max=9.55D-04 NDo=     1
 LinEq1:  Iter=  5 NonCon=     1 RMS=2.32D-05 Max=4.98D-04 NDo=     1
 LinEq1:  Iter=  6 NonCon=     1 RMS=2.26D-05 Max=5.34D-04 NDo=     1
 LinEq1:  Iter=  7 NonCon=     1 RMS=1.55D-05 Max=3.09D-04 NDo=     1
 LinEq1:  Iter=  8 NonCon=     1 RMS=1.27D-05 Max=2.75D-04 NDo=     1
 LinEq1:  Iter=  9 NonCon=     1 RMS=1.11D-05 Max=2.48D-04 NDo=     1
 LinEq1:  Iter= 10 NonCon=     1 RMS=8.44D-06 Max=2.61D-04 NDo=     1
 LinEq1:  Iter= 11 NonCon=     1 RMS=7.21D-06 Max=1.45D-04 NDo=     1
 LinEq1:  Iter= 12 NonCon=     1 RMS=6.29D-06 Max=1.06D-04 NDo=     1
 LinEq1:  Iter= 13 NonCon=     1 RMS=4.79D-06 Max=7.42D-05 NDo=     1
 LinEq1:  Iter= 14 NonCon=     1 RMS=3.56D-06 Max=8.46D-05 NDo=     1
 LinEq1:  Iter= 15 NonCon=     1 RMS=2.77D-06 Max=9.77D-05 NDo=     1
 LinEq1:  Iter= 16 NonCon=     1 RMS=2.14D-06 Max=1.10D-04 NDo=     1
 LinEq1:  Iter= 17 NonCon=     1 RMS=1.80D-06 Max=8.35D-05 NDo=     1
 LinEq1:  Iter= 18 NonCon=     1 RMS=1.10D-06 Max=3.87D-05 NDo=     1
 LinEq1:  Iter= 19 NonCon=     1 RMS=8.46D-07 Max=1.57D-05 NDo=     1
 LinEq1:  Iter= 20 NonCon=     1 RMS=6.62D-07 Max=1.65D-05 NDo=     1
 LinEq1:  Iter= 21 NonCon=     1 RMS=5.01D-07 Max=9.32D-06 NDo=     1
 LinEq1:  Iter= 22 NonCon=     1 RMS=3.48D-07 Max=9.04D-06 NDo=     1
 LinEq1:  Iter= 23 NonCon=     1 RMS=2.15D-07 Max=6.92D-06 NDo=     1
 LinEq1:  Iter= 24 NonCon=     1 RMS=1.41D-07 Max=3.37D-06 NDo=     1
 LinEq1:  Iter= 25 NonCon=     1 RMS=9.17D-08 Max=2.91D-06 NDo=     1
 LinEq1:  Iter= 26 NonCon=     1 RMS=5.27D-08 Max=1.73D-06 NDo=     1
 LinEq1:  Iter= 27 NonCon=     1 RMS=2.97D-08 Max=9.19D-07 NDo=     1
 LinEq1:  Iter= 28 NonCon=     1 RMS=2.01D-08 Max=7.12D-07 NDo=     1
 LinEq1:  Iter= 29 NonCon=     0 RMS=9.66D-09 Max=2.81D-07 NDo=     1
 Linear equations converged to 2.962D-08 2.962D-07 after    29 iterations.
 Incorrect curvature in search direction -- initial direction reversed.
 LinEq1:  Iter=  0 NonCon=     1 RMS=1.08D-04 Max=4.26D-03 NDo=     1
 LinEq1:  Iter=  1 NonCon=     1 RMS=1.32D-04 Max=3.97D-03 NDo=     1
 LinEq1:  Iter=  2 NonCon=     1 RMS=6.49D-05 Max=1.62D-03 NDo=     1
 LinEq1:  Iter=  3 NonCon=     1 RMS=6.35D-05 Max=1.77D-03 NDo=     1
 LinEq1:  Iter=  4 NonCon=     1 RMS=4.01D-05 Max=7.67D-04 NDo=     1
 LinEq1:  Iter=  5 NonCon=     1 RMS=3.46D-05 Max=8.36D-04 NDo=     1
 LinEq1:  Iter=  6 NonCon=     1 RMS=3.29D-05 Max=7.39D-04 NDo=     1
 LinEq1:  Iter=  7 NonCon=     1 RMS=2.16D-05 Max=3.67D-04 NDo=     1
 LinEq1:  Iter=  8 NonCon=     1 RMS=1.74D-05 Max=4.90D-04 NDo=     1
 LinEq1:  Iter=  9 NonCon=     1 RMS=1.36D-05 Max=3.92D-04 NDo=     1
 LinEq1:  Iter= 10 NonCon=     1 RMS=1.15D-05 Max=3.20D-04 NDo=     1
 LinEq1:  Iter= 11 NonCon=     1 RMS=1.03D-05 Max=2.62D-04 NDo=     1
 LinEq1:  Iter= 12 NonCon=     1 RMS=8.06D-06 Max=1.57D-04 NDo=     1
 LinEq1:  Iter= 13 NonCon=     1 RMS=6.18D-06 Max=1.65D-04 NDo=     1
 LinEq1:  Iter= 14 NonCon=     1 RMS=4.91D-06 Max=1.30D-04 NDo=     1
 LinEq1:  Iter= 15 NonCon=     1 RMS=3.73D-06 Max=1.51D-04 NDo=     1
 LinEq1:  Iter= 16 NonCon=     1 RMS=2.40D-06 Max=7.77D-05 NDo=     1
 LinEq1:  Iter= 17 NonCon=     1 RMS=2.16D-06 Max=9.93D-05 NDo=     1
 LinEq1:  Iter= 18 NonCon=     1 RMS=1.36D-06 Max=4.29D-05 NDo=     1
 LinEq1:  Iter= 19 NonCon=     1 RMS=1.13D-06 Max=3.89D-05 NDo=     1
 LinEq1:  Iter= 20 NonCon=     1 RMS=8.83D-07 Max=3.51D-05 NDo=     1
 LinEq1:  Iter= 21 NonCon=     1 RMS=5.62D-07 Max=1.46D-05 NDo=     1
 LinEq1:  Iter= 22 NonCon=     1 RMS=5.22D-07 Max=2.43D-05 NDo=     1
 LinEq1:  Iter= 23 NonCon=     1 RMS=3.61D-07 Max=1.26D-05 NDo=     1
 LinEq1:  Iter= 24 NonCon=     1 RMS=2.60D-07 Max=9.97D-06 NDo=     1
 LinEq1:  Iter= 25 NonCon=     1 RMS=1.59D-07 Max=5.43D-06 NDo=     1
 LinEq1:  Iter= 26 NonCon=     1 RMS=8.81D-08 Max=2.99D-06 NDo=     1
 LinEq1:  Iter= 27 NonCon=     1 RMS=6.29D-08 Max=2.00D-06 NDo=     1
 LinEq1:  Iter= 28 NonCon=     1 RMS=3.73D-08 Max=1.31D-06 NDo=     1
 LinEq1:  Iter= 29 NonCon=     1 RMS=2.03D-08 Max=5.15D-07 NDo=     1
 LinEq1:  Iter= 30 NonCon=     0 RMS=1.23D-08 Max=2.51D-07 NDo=     1
 Linear equations converged to 2.962D-08 2.962D-07 after    30 iterations.
     Minimum is close to point  6 DX= -2.57D-03 DF= -1.27D-05 DXR=  5.23D-02 DFR=  4.95D-03 which will be used.
 Gradient too large for Newton-Raphson -- use scaled steepest descent instead.
     Accept linear search using points  1 and  2.
 Gradient too large for Newton-Raphson -- use scaled steepest descent instead.
     Minimum is close to point  2 DX=  3.09D-02 DF= -5.96D-07 DXR=  4.90D-02 DFR=  2.41D-03 which will be used.
 LinEq1:  Iter=  0 NonCon=     1 RMS=9.84D-05 Max=3.26D-03 NDo=     1
 LinEq1:  Iter=  1 NonCon=     1 RMS=1.45D-04 Max=4.60D-03 NDo=     1
 LinEq1:  Iter=  2 NonCon=     1 RMS=6.15D-05 Max=1.48D-03 NDo=     1
 LinEq1:  Iter=  3 NonCon=     1 RMS=6.75D-05 Max=2.50D-03 NDo=     1
 LinEq1:  Iter=  4 NonCon=     1 RMS=3.14D-05 Max=7.30D-04 NDo=     1
 LinEq1:  Iter=  5 NonCon=     1 RMS=3.13D-05 Max=8.92D-04 NDo=     1
 LinEq1:  Iter=  6 NonCon=     1 RMS=1.83D-05 Max=4.24D-04 NDo=     1
 LinEq1:  Iter=  7 NonCon=     1 RMS=1.57D-05 Max=4.84D-04 NDo=     1
 LinEq1:  Iter=  8 NonCon=     1 RMS=1.05D-05 Max=1.95D-04 NDo=     1
 LinEq1:  Iter=  9 NonCon=     1 RMS=9.19D-06 Max=3.42D-04 NDo=     1
 LinEq1:  Iter= 10 NonCon=     1 RMS=7.04D-06 Max=1.63D-04 NDo=     1
 LinEq1:  Iter= 11 NonCon=     1 RMS=5.82D-06 Max=1.79D-04 NDo=     1
 LinEq1:  Iter= 12 NonCon=     1 RMS=5.20D-06 Max=1.88D-04 NDo=     1
 LinEq1:  Iter= 13 NonCon=     1 RMS=3.82D-06 Max=8.15D-05 NDo=     1
 LinEq1:  Iter= 14 NonCon=     1 RMS=3.02D-06 Max=1.14D-04 NDo=     1
 LinEq1:  Iter= 15 NonCon=     1 RMS=2.11D-06 Max=6.04D-05 NDo=     1
 LinEq1:  Iter= 16 NonCon=     1 RMS=1.64D-06 Max=6.64D-05 NDo=     1
 LinEq1:  Iter= 17 NonCon=     1 RMS=1.18D-06 Max=4.69D-05 NDo=     1
 LinEq1:  Iter= 18 NonCon=     1 RMS=1.02D-06 Max=5.22D-05 NDo=     1
 LinEq1:  Iter= 19 NonCon=     1 RMS=7.31D-07 Max=2.63D-05 NDo=     1
[...]
 0.,0.,0.,0.,0.,0.,0.,0.,0.,0.,0.,0.,0.,0.,0.,0.,0.,0.,0.,0.,0.,0.,0.,0
 .,0.,0.,0.,0.,0.,0.,0.,0.,0.,0.,0.,0.,0.,0.,0.,0.,0.,0.,0.,0.,0.,0.,0.
 ,0.,0.,0.,0.,0.,0.,0.,0.,0.,0.,0.,0.,0.,0.,0.,0.,0.,0.,0.,0.,0.,0.,0.,
 0.,0.,0.,0.,0.,0.,0.,0.,0.,0.,0.,0.,0.,0.,0.,0.,0.,0.,0.,0.,0.,0.,0.,0
 .,0.,0.,0.,0.,0.,0.,0.,0.,0.,0.,0.,0.,0.,0.,0.,0.,0.,0.,0.,0.,0.,0.,0.
 ,0.,0.,0.,0.,0.,0.,0.,0.,0.,0.,0.,0.,0.,0.,0.,0.,0.,0.,0.,0.,0.,0.,0.,
 0.,0.,0.,0.,0.,0.,0.,0.,0.,0.,0.,0.,0.,0.,0.,0.,0.,0.,0.,0.,0.,0.,0.,0
 .,0.,0.,0.,0.,0.,0.,0.,0.,0.,0.,0.,0.,0.,0.,0.,0.,0.,0.,0.,0.,0.,0.,0.
 ,0.,0.,0.,0.,0.,0.,0.,0.,0.,0.,0.,0.,0.,0.,0.,0.,0.,0.,0.,0.,0.,0.,0.,
 0.,0.,0.,0.,0.,0.,0.,0.,0.,0.,0.,0.,0.,0.,0.,0.,0.,0.,0.,0.,0.,0.,0.,0
 .,0.,0.,0.,0.,0.,0.,0.,0.,0.,0.,0.,0.,0.,0.,0.,0.,0.,0.,0.,0.,0.,0.,0.
 ,0.,0.,0.,0.,0.,0.,0.,0.,0.,0.,0.,0.,0.,0.,0.,0.,0.,0.,0.,0.,0.,0.,0.,
 0.,0.,0.,0.,0.,0.,0.,0.,0.,0.,0.,0.,0.,0.,0.,0.,0.,0.,0.,0.,0.,0.,0.,0
 .,0.,0.,0.,0.,0.,0.,0.,0.,0.,0.,0.,0.,0.,0.,0.,0.,0.,0.,0.,0.,0.,0.,0.
 ,0.,0.,0.,0.,0.,0.,0.,0.,0.,0.,0.,0.,0.,0.,0.,0.,0.,0.,0.,0.,0.,0.,0.,
 0.,0.,0.,0.,0.,0.,0.,0.,0.,0.,0.,0.,0.,0.,0.,0.,0.,0.,0.,0.,0.,0.,0.,0
 .,0.,0.,0.,0.,0.,0.,0.,0.,0.,0.,0.,0.,0.,0.,0.,0.,0.,0.,0.,0.,0.,0.,0.
 ,0.,0.,0.,0.,0.,0.,0.,0.,0.,0.,0.,0.,0.,0.,0.,0.,0.,0.,0.,0.,0.,0.,0.,
 0.,0.,0.,0.,0.,0.,0.,0.,0.,0.,0.,0.,0.,0.,0.,0.,0.,0.,0.,0.,0.,0.,0.,0
 .,0.,0.,0.,0.,0.,0.,0.,0.,0.,0.,0.,0.,0.,0.,0.,0.,0.,0.,0.,0.,0.,0.,0.
 ,0.,0.,0.,0.,0.,0.,0.,0.,0.,0.,0.,0.,0.,0.,0.,0.,0.,0.,0.,0.,0.,0.,0.,
 0.,0.,0.,0.,0.,0.,0.,0.,0.,0.,0.,0.,0.,0.,0.,0.,0.,0.,0.,0.,0.,0.,0.,0
 .,0.,0.,0.,0.,0.,0.,0.,0.,0.,0.,0.,0.,0.,0.,0.,0.,0.,0.,0.,0.,0.,0.,0.
 ,0.,0.,0.,0.,0.,0.,0.,0.,0.,0.,0.,0.,0.,0.,0.,0.,0.,0.,0.,0.,0.,0.,0.,
 0.,0.,0.,0.,0.,0.,0.,0.,0.,0.,0.,0.,0.,0.,0.,0.,0.,0.,0.,0.,0.,0.,0.,0
 .,0.,0.,0.,0.,0.,0.,0.,0.,0.,0.,0.,0.,0.,0.,0.,0.,0.,0.,0.,0.,0.,0.,0.
 ,0.,0.,0.,0.,0.,0.,0.,0.,0.,0.,0.,0.,0.,0.,0.,0.,0.,0.,0.,0.,0.,0.,0.,
 0.,0.,0.,0.,0.,0.,0.,0.,0.,0.,0.,0.,0.,0.,0.,0.,0.,0.,0.,0.,0.,0.,0.,0
 .,0.,0.,0.,0.,0.,0.,0.,0.,0.,0.,0.,0.,0.,0.,0.,0.,0.,0.,0.,0.,0.,0.,0.
 ,0.,0.,0.,0.,0.,0.,0.,0.,0.,0.,0.,0.,0.,0.,0.,0.,0.,0.,0.,0.,0.,0.,0.,
 0.,0.,0.,0.,0.,0.,0.,0.,0.,0.,0.,0.,0.,0.,0.,0.,0.,0.,0.,0.,0.,0.,0.,0
 .,0.,0.,0.,0.,0.,0.,0.,0.,0.,0.,0.,0.,0.,0.,0.,0.,0.,0.,0.,0.,0.,0.,0.
 ,0.,0.,0.,0.,0.,0.,0.,0.,0.,0.,0.,0.,0.,0.,0.,0.,0.,0.,0.,0.,0.,0.,0.,
 0.,0.,0.,0.,0.,0.,0.,0.,0.,0.,0.,0.,0.,0.,0.,0.,0.,0.,0.,0.,0.,0.,0.,0
 .,0.,0.,0.,0.,0.,0.,0.,0.,0.,0.,0.,0.,0.,0.,0.,0.,0.,0.,0.,0.,0.,0.,0.
 ,0.,0.,0.,0.,0.,0.,0.,0.,0.,0.,0.,0.,0.,0.,0.,0.,0.,0.,0.,0.,0.,0.,0.,
 0.,0.,0.,0.,0.,0.,0.,0.,0.,0.,0.,0.,0.,0.,0.,0.,0.,0.,0.,0.,0.,0.,0.,0
 .,0.,0.,0.,0.,0.,0.,0.,0.,0.,0.,0.,0.,0.,0.,0.,0.,0.,0.,0.,0.,0.,0.,0.
 ,0.,0.,0.,0.,0.,0.,0.,0.,0.,0.,0.,0.,0.,0.,0.,0.,0.,0.,0.,0.,0.,0.,0.,
 0.,0.,0.,0.,0.,0.,0.,0.,0.,0.,0.,0.,0.,0.,0.,0.,0.,0.,0.,0.,0.,0.,0.,0
 .,0.,0.,0.,0.,0.,0.,0.,0.,0.,0.,0.,0.,0.,0.,0.,0.,0.,0.,0.,0.,0.,0.,0.
 ,0.,0.,0.,0.,0.,0.,0.,0.,0.,0.,0.,0.,0.,0.,0.,0.,0.,0.,0.,0.,0.,0.,0.,
 0.,0.,0.,0.,0.,0.,0.,0.,0.,0.,0.,0.,0.,0.,0.,0.,0.,0.,0.,0.,0.,0.,0.,0
 .,0.,0.,0.,0.,0.,0.,0.,0.,0.,0.,0.,0.,0.,0.,0.,0.,0.,0.,0.,0.,0.,0.,0.
 ,0.,0.,0.,0.,0.,0.,0.,0.,0.,0.,0.,0.,0.,0.,0.,0.,0.,0.,0.,0.,0.,0.,0.,
 0.,0.,0.,0.,0.,0.,0.,0.,0.,0.,0.,0.,0.,0.,0.,0.,0.,0.,0.,0.,0.,0.,0.,0
 .,0.,0.,0.,0.,0.,0.,0.,0.,0.,0.,0.,0.,0.,0.,0.,0.,0.,0.,0.,0.,0.,0.,0.
 ,0.,0.,0.,0.,0.,0.,0.,0.,0.,0.,0.,0.,0.,0.,0.,0.,0.,0.,0.,0.,0.,0.,0.,
 0.,0.,0.,0.,0.,0.,0.,0.,0.,0.,0.,0.,0.,0.,0.,0.,0.,0.,0.,0.,0.,0.,0.,0
 .,0.,0.,0.,0.,0.,0.,0.,0.,0.,0.,0.,0.,0.,0.,0.,0.,0.,0.,0.,0.,0.,0.,0.
 ,0.,0.,0.,0.,0.,0.,0.,0.,0.,0.,0.,0.,0.,0.,0.,0.,0.,0.,0.,0.,0.,0.,0.,
 0.,0.,0.,0.,0.,0.,0.,0.,0.,0.,0.,0.,0.,0.,0.,0.,0.,0.,0.,0.,0.,0.,0.,0
 .,0.,0.,0.,0.,0.,0.,0.,0.,0.,0.,0.,0.,0.,0.,0.,0.,0.,0.,0.,0.,0.,0.,0.
 ,0.,0.,0.,0.,0.,0.,0.,0.,0.,0.,0.,0.,0.,0.,0.,0.,0.,0.,0.,0.,0.,0.,0.,
 0.,0.,0.,0.,0.,0.,0.,0.,0.,0.,0.,0.,0.,0.,0.,0.,0.,0.,0.,0.,0.,0.,0.,0
 .,0.,0.,0.,0.,0.,0.,0.,0.,0.,0.,0.,0.,0.,0.,0.,0.,0.,0.,0.,0.,0.,0.,0.
 ,0.,0.,0.,0.,0.,0.,0.,0.,0.,0.,0.,0.,0.,0.,0.,0.,0.,0.,0.,0.,0.,0.,0.,
 0.,0.,0.,0.,0.,0.,0.,0.,0.,0.,0.,0.,0.,0.,0.,0.,0.,0.,0.,0.,0.,0.,0.,0
 .,0.,0.,0.,0.,0.,0.,0.,0.,0.,0.,0.,0.,0.,0.,0.,0.,0.,0.,0.,0.,0.,0.,0.
 ,0.,0.,0.,0.,0.,0.,0.,0.,0.,0.,0.,0.,0.,0.,0.,0.,0.,0.,0.,0.,0.,0.,0.,
 0.,0.,0.,0.,0.,0.,0.,0.,0.,0.,0.,0.,0.,0.,0.,0.,0.,0.,0.,0.,0.,0.,0.,0
 .,0.,0.,0.,0.,0.,0.,0.,0.,0.,0.,0.,0.,0.,0.,0.,0.,0.,0.,0.,0.,0.,0.,0.
 ,0.,0.,0.,0.,0.,0.,0.,0.,0.,0.,0.,0.,0.,0.,0.,0.,0.,0.,0.,0.,0.,0.,0.,
 0.,0.,0.,0.,0.,0.,0.,0.,0.,0.,0.,0.,0.,0.,0.,0.,0.,0.,0.,0.,0.,0.,0.,0
 .,0.,0.,0.,0.,0.,0.,0.,0.,0.,0.,0.,0.,0.,0.,0.,0.,0.,0.,0.,0.,0.,0.,0.
 ,0.,0.,0.,0.,0.,0.,0.,0.,0.,0.,0.,0.,0.,0.,0.,0.,0.,0.,0.,0.,0.,0.,0.,
 0.,0.,0.,0.,0.,0.,0.,0.,0.,0.,0.,0.,0.,0.,0.,0.,0.,0.,0.,0.,0.,0.,0.,0
 .,0.,0.,0.,0.,0.,0.,0.,0.,0.,0.,0.,0.,0.,0.,0.,0.,0.,0.,0.,0.,0.,0.,0.
 ,0.,0.,0.,0.,0.,0.,0.,0.,0.,0.,0.,0.,0.,0.,0.,0.,0.,0.,0.,0.,0.,0.,0.,
 0.,0.,0.,0.,0.,0.,0.,0.,0.,0.,0.,0.,0.,0.,0.,0.,0.,0.,0.,0.,0.,0.,0.,0
 .,0.,0.,0.,0.,0.,0.,0.,0.,0.,0.,0.,0.,0.,0.,0.,0.,0.,0.,0.,0.,0.,0.,0.
 ,0.,0.,0.,0.,0.,0.,0.,0.,0.,0.,0.,0.,0.,0.,0.,0.,0.,0.,0.,0.,0.,0.,0.,
 0.,0.,0.,0.,0.,0.,0.,0.,0.,0.,0.,0.,0.,0.,0.,0.,0.,0.,0.,0.,0.,0.,0.,0
 .,0.,0.,0.,0.,0.,0.,0.,0.,0.,0.,0.,0.,0.,0.,0.,0.,0.,0.,0.,0.,0.,0.,0.
 ,0.,0.,0.,0.,0.,0.,0.,0.,0.,0.,0.,0.,0.,0.,0.,0.,0.,0.,0.,0.,0.,0.,0.,
 0.,0.,0.,0.,0.,0.,0.,0.,0.,0.,0.,0.,0.,0.,0.,0.,0.,0.,0.,0.,0.,0.,0.,0
 .,0.,0.,0.,0.,0.,0.,0.,0.,0.,0.,0.,0.,0.,0.,0.,0.,0.,0.,0.,0.,0.,0.,0.
 ,0.,0.,0.,0.,0.,0.,0.,0.,0.,0.,0.,0.,0.,0.,0.,0.,0.,0.,0.,0.,0.,0.,0.,
 0.,0.,0.,0.,0.,0.,0.,0.,0.,0.,0.,0.,0.,0.,0.,0.,0.,0.,0.,0.,0.,0.,0.,0
 .,0.,0.,0.,0.,0.,0.,0.,0.,0.,0.,0.,0.,0.,0.,0.,0.,0.,0.,0.,0.,0.,0.,0.
 ,0.,0.,0.,0.,0.,0.,0.,0.,0.,0.,0.,0.,0.,0.,0.,0.,0.,0.,0.,0.,0.,0.,0.,
 0.,0.,0.,0.,0.,0.,0.,0.,0.,0.,0.,0.,0.,0.,0.,0.,0.,0.,0.,0.,0.,0.,0.,0
 .,0.,0.,0.,0.,0.,0.,0.,0.,0.,0.,0.,0.,0.,0.,0.,0.,0.,0.,0.,0.,0.,0.,0.
 ,0.,0.,0.,0.,0.,0.,0.,0.,0.,0.,0.,0.,0.,0.,0.,0.,0.,0.,0.,0.,0.,0.,0.,
 0.,0.,0.,0.,0.,0.,0.,0.,0.,0.,0.,0.,0.,0.,0.,0.,0.,0.,0.,0.,0.,0.,0.,0
 .,0.,0.,0.,0.,0.,0.,0.,0.,0.,0.,0.,0.,0.,0.,0.,0.,0.,0.,0.,0.,0.,0.,0.
 ,0.,0.,0.,0.,0.,0.,0.,0.,0.,0.,0.,0.,0.,0.,0.,0.,0.,0.,0.,0.,0.,0.,0.,
 0.,0.,0.,0.,0.,0.,0.,0.,0.,0.,0.,0.,0.,0.,0.,0.,0.,0.,0.,0.,0.,0.,0.,0
 .,0.,0.,0.,0.,0.,0.,0.,0.,0.,0.,0.,0.,0.,0.,0.,0.,0.,0.,0.,0.,0.,0.,0.
 ,0.,0.,0.,0.,0.,0.,0.,0.,0.,0.,0.,0.,0.,0.,0.,0.,0.,0.,0.,0.,0.,0.,0.,
 0.,0.,0.,0.,0.,0.,0.,0.,0.,0.,0.,0.,0.,0.,0.,0.,0.,0.,0.,0.,0.,0.,0.,0
 .,0.,0.,0.,0.,0.,0.,0.,0.,0.,0.,0.,0.,0.,0.,0.,0.,0.,0.,0.,0.,0.,0.,0.
 ,0.,0.,0.,0.,0.,0.,0.,0.,0.,0.,0.,0.,0.,0.,0.,0.,0.,0.,0.,0.,0.,0.,0.,
 0.,0.,0.,0.,0.,0.,0.,0.,0.,0.,0.,0.,0.,0.,0.,0.,0.,0.,0.,0.,0.,0.,0.,0
 .,0.,0.,0.,0.,0.,0.,0.,0.,0.,0.,0.,0.,0.,0.,0.,0.,0.,0.,0.,0.,0.,0.,0.
 ,0.,0.,0.,0.,0.,0.,0.,0.,0.,0.,0.,0.,0.,0.,0.,0.,0.,0.,0.,0.,0.,0.,0.,
 0.,0.,0.,0.,0.,0.,0.,0.,0.,0.,0.,0.,0.,0.,0.,0.,0.,0.,0.,0.,0.,0.,0.,0
 .,0.,0.,0.,0.,0.,0.,0.,0.,0.,0.,0.,0.,0.,0.,0.,0.,0.,0.,0.,0.,0.,0.,0.
 ,0.,0.,0.,0.,0.,0.,0.,0.,0.,0.,0.,0.,0.,0.,0.,0.,0.,0.,0.,0.,0.,0.,0.,
 0.,0.,0.,0.,0.,0.,0.,0.,0.,0.,0.,0.,0.,0.,0.,0.,0.,0.,0.,0.,0.,0.,0.,0
 .,0.,0.,0.,0.,0.,0.,0.,0.,0.,0.,0.,0.,0.,0.,0.,0.,0.,0.,0.,0.,0.,0.,0.
 ,0.,0.,0.,0.,0.,0.,0.,0.,0.,0.,0.,0.,0.,0.,0.,0.,0.,0.,0.,0.,0.,0.,0.,
 0.,0.,0.,0.,0.,0.,0.,0.,0.,0.,0.,0.,0.,0.,0.,0.,0.,0.,0.,0.,0.,0.,0.,0
 .,0.,0.,0.,0.,0.,0.,0.,0.,0.,0.,0.,0.,0.,0.,0.,0.,0.,0.,0.,0.,0.,0.,0.
 ,0.,0.,0.,0.,0.,0.,0.,0.,0.,0.,0.,0.,0.,0.,0.,0.,0.,0.,0.,0.,0.,0.,0.,
 0.,0.,0.,0.,0.,0.,0.,0.,0.,0.,0.,0.,0.,0.,0.,0.,0.,0.,0.,0.,0.,0.,0.,0
 .,0.,0.,0.,0.,0.,0.,0.,0.,0.,0.,0.,0.,0.,0.,0.,0.,0.,0.,0.,0.,0.,0.,0.
 ,0.,0.,0.,0.,0.,0.,0.,0.,0.,0.,0.,0.,0.,0.,0.,0.,0.,0.,0.,0.,0.,0.,0.,
 0.,0.,0.,0.,0.,0.,0.,0.,0.,0.,0.,0.,0.,0.,0.,0.,0.,0.,0.,0.,0.,0.,0.,0
 .,0.,0.,0.,0.,0.,0.,0.,0.,0.,0.,0.,0.,0.,0.,0.,0.,0.,0.,0.,0.,0.,0.,0.
 ,0.,0.,0.,0.,0.,0.,0.,0.,0.,0.,0.,0.,0.,0.,0.,0.,0.,0.,0.,0.,0.,0.,0.,
 0.,0.,0.,0.,0.,0.,0.,0.,0.,0.,0.,0.,0.,0.,0.,0.,0.,0.,0.,0.,0.,0.,0.,0
 .,0.,0.,0.,0.,0.,0.,0.,0.,0.,0.,0.,0.,0.,0.,0.,0.,0.,0.,0.,0.,0.,0.,0.
 ,0.,0.,0.,0.,0.,0.,0.,0.,0.,0.,0.,0.,0.,0.,0.,0.,0.,0.,0.,0.,0.,0.,0.,
 0.,0.,0.,0.,0.,0.,0.,0.,0.,0.,0.,0.,0.,0.,0.,0.,0.,0.,0.,0.,0.,0.,0.,0
 .,0.,0.,0.,0.,0.,0.,0.,0.,0.,0.,0.,0.,0.,0.,0.,0.,0.,0.,0.,0.,0.,0.,0.
 ,0.,0.,0.,0.,0.,0.,0.,0.,0.,0.,0.,0.,0.,0.,0.,0.,0.,0.,0.,0.,0.,0.,0.,
 0.,0.,0.,0.,0.,0.,0.,0.,0.,0.,0.,0.,0.,0.,0.,0.,0.,0.,0.,0.,0.,0.,0.,0
 .,0.,0.,0.,0.,0.,0.,0.,0.,0.,0.,0.,0.,0.,0.,0.,0.,0.,0.,0.,0.,0.,0.,0.
 ,0.,0.,0.,0.,0.,0.,0.,0.,0.,0.,0.,0.,0.,0.,0.,0.,0.,0.,0.,0.,0.,0.,0.,
 0.,0.,0.,0.,0.,0.,0.,0.,0.,0.,0.,0.,0.,0.,0.,0.,0.,0.,0.,0.,0.,0.,0.,0
 .,0.,0.,0.,0.,0.,0.,0.,0.,0.,0.,0.,0.,0.,0.,0.,0.,0.,0.,0.,0.,0.,0.,0.
 ,0.,0.,0.,0.,0.,0.,0.,0.,0.,0.,0.,0.,0.,0.,0.,0.,0.,0.,0.,0.,0.,0.,0.,
 0.,0.,0.,0.,0.,0.,0.,0.,0.,0.,0.,0.,0.,0.,0.,0.,0.,0.,0.,0.,0.,0.,0.,0
 .,0.,0.,0.,0.,0.,0.,0.,0.,0.,0.,0.,0.,0.,0.,0.,0.,0.,0.,0.,0.,0.,0.,0.
 ,0.,0.,0.,0.,0.,0.,0.,0.,0.,0.,0.,0.,0.,0.,0.,0.,0.,0.,0.,0.,0.,0.,0.,
 0.,0.,0.,0.,0.,0.,0.,0.,0.,0.,0.,0.,0.,0.,0.,0.,0.,0.,0.,0.,0.,0.,0.,0
 .,0.,0.,0.,0.,0.,0.,0.,0.,0.,0.,0.,0.,0.,0.,0.,0.,0.,0.,0.,0.,0.,0.,0.
 ,0.,0.,0.,0.,0.,0.,0.,0.,0.,0.,0.,0.,0.,0.,0.,0.,0.,0.,0.,0.,0.,0.,0.,
 0.,0.,0.,0.,0.,0.,0.,0.,0.,0.,0.,0.,0.,0.,0.,0.,0.,0.,0.,0.,0.,0.,0.,0
 .,0.,0.,0.,0.,0.,0.,0.,0.,0.,0.,0.,0.,0.,0.,0.,0.,0.,0.,0.,0.,0.,0.,0.
 ,0.,0.,0.,0.,0.,0.,0.,0.,0.,0.,0.,0.,0.,0.,0.,0.,0.,0.,0.,0.,0.,0.,0.,
 0.,0.,0.,0.,0.,0.,0.,0.,0.,0.,0.,0.,0.,0.,0.,0.,0.,0.,0.,0.,0.,0.,0.,0
 .,0.,0.,0.,0.,0.,0.,0.,0.,0.,0.,0.,0.,0.,0.,0.,0.,0.,0.,0.,0.,0.,0.,0.
 ,0.,0.,0.,0.,0.,0.,0.,0.,0.,0.,0.,0.,0.,0.,0.,0.,0.,0.,0.,0.,0.,0.,0.,
 0.,0.,0.,0.,0.,0.,0.,0.,0.,0.,0.,0.,0.,0.,0.,0.,0.,0.,0.,0.,0.,0.,0.,0
 .,0.,0.,0.,0.,0.,0.,0.,0.,0.,0.,0.,0.,0.,0.,0.,0.,0.,0.,0.,0.,0.,0.,0.
 ,0.,0.,0.,0.,0.,0.,0.,0.,0.,0.,0.,0.,0.,0.,0.,0.,0.,0.,0.,0.,0.,0.,0.,
 0.,0.,0.,0.,0.,0.,0.,0.,0.,0.,0.,0.,0.,0.,0.,0.,0.,0.,0.,0.,0.,0.,0.,0
 .,0.,0.,0.,0.,0.,0.,0.,0.,0.,0.,0.,0.,0.,0.,0.,0.,0.,0.,0.,0.,0.,0.,0.
 ,0.,0.,0.,0.,0.,0.,0.,0.,0.,0.,0.,0.,0.,0.,0.,0.,0.,0.,0.,0.,0.,0.,0.,
 0.,0.,0.,0.,0.,0.,0.,0.,0.,0.,0.,0.,0.,0.,0.,0.,0.,0.,0.,0.,0.,0.,0.,0
 .,0.,0.,0.,0.,0.,0.,0.,0.,0.,0.,0.,0.,0.,0.,0.,0.,0.,0.,0.,0.,0.,0.,0.
 ,0.,0.,0.,0.,0.,0.,0.,0.,0.,0.,0.,0.,0.,0.,0.,0.,0.,0.,0.,0.,0.,0.,0.,
 0.,0.,0.,0.,0.,0.,0.,0.,0.,0.,0.,0.,0.,0.,0.,0.,0.,0.,0.,0.,0.,0.,0.,0
 .,0.,0.,0.,0.,0.,0.,0.,0.,0.,0.,0.,0.,0.,0.,0.,0.,0.,0.,0.,0.,0.,0.,0.
 ,0.,0.,0.,0.,0.,0.,0.,0.,0.,0.,0.,0.,0.,0.,0.,0.,0.,0.,0.,0.,0.,0.,0.,
 0.,0.,0.,0.,0.,0.,0.,0.,0.,0.,0.,0.,0.,0.,0.,0.,0.,0.,0.,0.,0.,0.,0.,0
 .,0.,0.,0.,0.,0.,0.,0.,0.,0.,0.,0.,0.,0.,0.,0.,0.,0.,0.,0.,0.,0.,0.,0.
 ,0.,0.,0.,0.,0.,0.,0.,0.,0.,0.,0.,0.,0.,0.,0.,0.,0.,0.,0.,0.,0.,0.,0.,
 0.,0.,0.,0.,0.,0.,0.,0.,0.,0.,0.,0.,0.,0.,0.,0.,0.,0.,0.,0.,0.,0.,0.,0
 .,0.,0.,0.,0.,0.,0.,0.,0.,0.,0.,0.,0.,0.,0.,0.,0.,0.,0.,0.,0.,0.,0.,0.
 ,0.,0.,0.,0.,0.,0.,0.,0.,0.,0.,0.,0.,0.,0.,0.,0.,0.,0.,0.,0.,0.,0.,0.,
 0.,0.,0.,0.,0.,0.,0.,0.,0.,0.,0.,0.,0.,0.,0.,0.,0.,0.,0.,0.,0.,0.,0.,0
 .,0.,0.,0.,0.,0.,0.,0.,0.,0.,0.,0.,0.,0.,0.,0.,0.,0.,0.,0.,0.,0.,0.,0.
 ,0.,0.,0.,0.,0.,0.,0.,0.,0.,0.,0.,0.,0.,0.,0.,0.,0.,0.,0.,0.,0.,0.,0.,
 0.,0.,0.,0.,0.,0.,0.,0.,0.,0.,0.,0.,0.,0.,0.,0.,0.,0.,0.,0.,0.,0.,0.,0
 .,0.,0.,0.,0.,0.,0.,0.,0.,0.,0.,0.,0.,0.,0.,0.,0.,0.,0.,0.,0.,0.,0.,0.
 ,0.,0.,0.,0.,0.,0.,0.,0.,0.,0.,0.,0.,0.,0.,0.,0.,0.,0.,0.,0.,0.,0.,0.,
 0.,0.,0.,0.,0.,0.,0.,0.,0.,0.,0.,0.,0.,0.,0.,0.,0.,0.,0.,0.,0.,0.,0.,0
 .,0.,0.,0.,0.,0.,0.,0.,0.,0.,0.,0.,0.,0.,0.,0.,0.,0.,0.,0.,0.,0.,0.,0.
 ,0.,0.,0.,0.,0.,0.,0.,0.,0.,0.,0.,0.,0.,0.,0.,0.,0.,0.,0.,0.,0.,0.,0.,
 0.,0.,0.,0.,0.,0.,0.,0.,0.,0.,0.,0.,0.,0.,0.,0.,0.,0.,0.,0.,0.,0.,0.,0
 .,0.,0.,0.,0.,0.,0.,0.,0.,0.,0.,0.,0.,0.,0.,0.,0.,0.,0.,0.,0.,0.,0.,0.
 ,0.,0.,0.,0.,0.,0.,0.,0.,0.,0.,0.,0.,0.,0.,0.,0.,0.,0.,0.,0.,0.,0.,0.,
 0.,0.,0.,0.,0.,0.,0.,0.,0.,0.,0.,0.,0.,0.,0.,0.,0.,0.,0.,0.,0.,0.,0.,0
 .,0.,0.,0.,0.,0.,0.,0.,0.,0.,0.,0.,0.,0.,0.,0.,0.,0.,0.,0.,0.,0.,0.,0.
 ,0.,0.,0.,0.,0.,0.,0.,0.,0.,0.,0.,0.,0.,0.,0.,0.,0.,0.,0.,0.,0.,0.,0.,
 0.,0.,0.,0.,0.,0.,0.,0.,0.,0.,0.,0.,0.,0.,0.,0.,0.,0.,0.,0.,0.,0.,0.,0
 .,0.,0.,0.,0.,0.,0.,0.,0.,0.,0.,0.,0.,0.,0.,0.,0.,0.,0.,0.,0.,0.,0.,0.
 ,0.,0.,0.,0.,0.,0.,0.,0.,0.,0.,0.,0.,0.,0.,0.,0.,0.,0.,0.,0.,0.,0.,0.,
 0.,0.,0.,0.,0.,0.,0.,0.,0.,0.,0.,0.,0.,0.,0.,0.,0.,0.,0.,0.,0.,0.,0.,0
 .,0.,0.,0.,0.,0.,0.,0.,0.,0.,0.,0.,0.,0.,0.,0.,0.,0.,0.,0.,0.,0.,0.,0.
 ,0.,0.,0.,0.,0.,0.,0.,0.,0.,0.,0.,0.,0.,0.,0.,0.,0.,0.,0.,0.,0.,0.,0.,
 0.,0.,0.,0.,0.,0.,0.,0.,0.,0.,0.,0.,0.,0.,0.,0.,0.,0.,0.,0.,0.,0.,0.,0
 .,0.,0.,0.,0.,0.,0.,0.,0.,0.,0.,0.,0.,0.,0.,0.,0.,0.,0.,0.,0.,0.,0.,0.
 ,0.,0.,0.,0.,0.,0.,0.,0.,0.,0.,0.,0.,0.,0.,0.,0.,0.,0.,0.,0.,0.,0.,0.,
 0.,0.,0.,0.,0.,0.,0.,0.,0.,0.,0.,0.,0.,0.,0.,0.,0.,0.,0.,0.,0.,0.,0.,0
 .,0.,0.,0.,0.,0.,0.,0.,0.,0.,0.,0.,0.,0.,0.,0.,0.,0.,0.,0.,0.,0.,0.,0.
 ,0.,0.,0.,0.,0.,0.,0.,0.,0.,0.,0.,0.,0.,0.,0.,0.,0.,0.,0.,0.,0.,0.,0.,
 0.,0.,0.,0.,0.,0.,0.,0.,0.,0.,0.,0.,0.,0.,0.,0.,0.,0.,0.,0.,0.,0.,0.,0
 .,0.,0.,0.,0.,0.,0.,0.,0.,0.,0.,0.,0.,0.,0.,0.,0.,0.,0.,0.,0.,0.,0.,0.
 ,0.,0.,0.,0.,0.,0.,0.,0.,0.,0.,0.,0.,0.,0.,0.,0.,0.,0.,0.,0.,0.,0.,0.,
 0.,0.,0.,0.,0.,0.,0.,0.,0.,0.,0.,0.,0.,0.,0.,0.,0.,0.,0.,0.,0.,0.,0.,0
 .,0.,0.,0.,0.,0.,0.,0.,0.,0.,0.,0.,0.,0.,0.,0.,0.,0.,0.,0.,0.,0.,0.,0.
 ,0.,0.,0.,0.,0.,0.,0.,0.,0.,0.,0.,0.,0.,0.,0.,0.,0.,0.,0.,0.,0.,0.,0.,
 0.,0.,0.,0.,0.,0.,0.,0.,0.,0.,0.,0.,0.,0.,0.,0.,0.,0.,0.,0.,0.,0.,0.,0
 .,0.,0.,0.,0.,0.,0.,0.,0.,0.,0.,0.,0.,0.,0.,0.,0.,0.,0.,0.,0.,0.,0.,0.
 ,0.,0.,0.,0.,0.,0.,0.,0.,0.,0.,0.,0.,0.,0.,0.,0.,0.,0.,0.,0.,0.,0.,0.,
 0.,0.,0.,0.,0.,0.,0.,0.,0.,0.,0.,0.,0.,0.,0.,0.,0.,0.,0.,0.,0.,0.,0.,0
 .,0.,0.,0.,0.,0.,0.,0.,0.,0.,0.,0.,0.,0.,0.,0.,0.,0.,0.,0.,0.,0.,0.,0.
 ,0.,0.,0.,0.,0.,0.,0.,0.,0.,0.,0.,0.,0.,0.,0.,0.,0.,0.,0.,0.,0.,0.,0.,
 0.,0.,0.,0.,0.,0.,0.,0.,0.,0.,0.,0.,0.,0.,0.,0.,0.,0.,0.,0.,0.,0.,0.,0
 .,0.,0.,0.,0.,0.,0.,0.,0.,0.,0.,0.,0.,0.,0.,0.,0.,0.,0.,0.,0.,0.,0.,0.
 ,0.,0.,0.,0.,0.,0.,0.,0.,0.,0.,0.,0.,0.,0.,0.,0.,0.,0.,0.,0.,0.,0.,0.,
 0.,0.,0.,0.,0.,0.,0.,0.,0.,0.,0.,0.,0.,0.,0.,0.,0.,0.,0.,0.,0.,0.,0.,0
 .,0.,0.,0.,0.,0.,0.,0.,0.,0.,0.,0.,0.,0.,0.,0.,0.,0.,0.,0.,0.,0.,0.,0.
 ,0.,0.,0.,0.,0.,0.,0.,0.,0.,0.,0.,0.,0.,0.,0.,0.,0.,0.,0.,0.,0.,0.,0.,
 0.,0.,0.,0.,0.,0.,0.,0.,0.,0.,0.,0.,0.,0.,0.,0.,0.,0.,0.,0.,0.,0.,0.,0
 .,0.,0.,0.,0.,0.,0.,0.,0.,0.,0.,0.,0.,0.,0.,0.,0.,0.,0.,0.,0.,0.,0.,0.
 ,0.,0.,0.,0.,0.,0.,0.,0.,0.,0.,0.,0.,0.,0.,0.,0.,0.,0.,0.,0.,0.,0.,0.,
 0.,0.,0.,0.,0.,0.,0.,0.,0.,0.,0.,0.,0.,0.,0.,0.,0.,0.,0.,0.,0.,0.,0.,0
 .,0.,0.,0.,0.,0.,0.,0.,0.,0.,0.,0.,0.,0.,0.,0.,0.,0.,0.,0.,0.,0.,0.,0.
 ,0.,0.,0.,0.,0.,0.,0.,0.,0.,0.,0.,0.,0.,0.,0.,0.,0.,0.,0.,0.,0.,0.,0.,
 0.,0.,0.,0.,0.,0.,0.,0.,0.,0.,0.,0.,0.,0.,0.,0.,0.,0.,0.,0.,0.,0.,0.,0
 .,0.,0.,0.,0.,0.,0.,0.,0.,0.,0.,0.,0.,0.,0.,0.,0.,0.,0.,0.,0.,0.,0.,0.
 ,0.,0.,0.,0.,0.,0.,0.,0.,0.,0.,0.,0.,0.,0.,0.,0.,0.,0.,0.,0.,0.,0.,0.,
 0.,0.,0.,0.,0.,0.,0.,0.,0.,0.,0.,0.,0.,0.,0.,0.,0.,0.,0.,0.,0.,0.,0.,0
 .,0.,0.,0.,0.,0.,0.,0.,0.,0.,0.,0.,0.,0.,0.25591663,0.,0.,0.,0.,0.,0.,
 0.,0.,0.,0.,0.,0.,0.,0.,0.,0.,0.,0.,0.,0.,0.,0.,0.,0.,0.,0.,0.,0.,0.,0
 .,0.,0.,0.,0.,0.,0.,0.,0.,0.,0.,0.,0.,0.,0.,0.,0.,0.,0.,0.,0.,0.,0.,0.
 ,0.,0.,0.,0.,0.,0.,0.,0.,0.,0.,0.,0.,0.,0.,0.,0.,0.,0.,0.,0.,0.,0.,0.,
 0.,0.,0.,0.,0.,0.,0.,0.,0.,0.,0.,0.,0.,0.,0.,0.,0.,0.,0.,0.,0.,0.,0.,0
 .,0.,0.,0.,0.,0.,0.,0.,0.,0.,0.,0.,0.,0.,0.,0.,0.,0.,0.,0.,0.,0.,0.,0.
 ,0.,0.,0.,0.,0.,0.,0.,0.,0.,0.,0.,0.,0.,0.,0.,0.,0.,0.,0.,0.,0.,0.0163
 3783,0.24515075,0.,0.,0.,0.,0.,0.,0.,0.,0.,0.,0.,0.,0.,0.,0.,0.,0.,0.,
 0.,0.,0.,0.,0.,0.,0.,0.,0.,0.,0.,0.,0.,0.,0.,0.,0.,0.,0.,0.,0.,0.,0.,0
 .,0.,0.,0.,0.,0.,0.,0.,0.,0.,0.,0.,0.,0.,0.,0.,0.,0.,0.,0.,0.,0.,0.,0.
 ,0.,0.,0.,0.,0.,0.,0.,0.,0.,0.,0.,0.,0.,0.,0.,0.,0.,0.,0.,0.,0.,0.,0.,
 0.,0.,0.,0.,0.,0.,0.,0.,0.,0.,0.,0.,0.,0.,0.,0.,0.,0.,0.,0.,0.,0.,0.,0
 .,0.,0.,0.,0.,0.,0.,0.,0.,0.,0.,0.,0.,0.,0.,0.,0.,0.,0.,0.,0.,0.,0.,0.
 ,0.,0.,0.,0.,0.,0.,0.,0.,0.,0.07427648,0.07080646,0.43486438,0.,0.,0.,
 0.,0.,0.,0.,0.,0.,0.,0.,0.,0.,0.,0.,0.,0.,0.,0.,0.,0.,0.,0.,0.,0.,0.,0
 .,0.,0.,0.,0.,0.,0.,0.,0.,0.,0.,0.,0.,0.,0.,0.,0.,0.,0.,0.,0.,0.,0.,0.
 ,0.,0.,0.,0.,0.,0.,0.,0.,0.,0.,0.,0.,0.,0.,0.,0.,0.,0.,0.,0.,0.,0.,0.,
 0.,0.,0.,0.,0.,0.,0.,0.,0.,0.,0.,0.,0.,0.,0.,0.,0.,0.,0.,0.,0.,0.,0.,0
 .,0.,0.,0.,0.,0.,0.,0.,0.,0.,0.,0.,0.,0.,0.,0.,0.,0.,0.,0.,0.,0.,0.,0.
 ,0.,0.,0.,0.,0.,0.,0.,0.,0.,0.,0.,0.,0.,0.,0.,0.,0.,0.,0.,0.,0.,0.,0.,
 0.,-0.20950006,-0.05443626,0.04053311,0.20026144,0.,0.,0.,0.,0.,0.,0.,
 0.,0.,0.,0.,0.,0.,0.,0.,0.,0.,0.,0.,0.,0.,0.,0.,0.,0.,0.,0.,0.,0.,0.,0
 .,0.,0.,0.,0.,0.,0.,0.,0.,0.,0.,0.,0.,0.,0.,0.,0.,0.,0.,0.,0.,0.,0.,0.
 ,0.,0.,0.,0.,0.,0.,0.,0.,0.,0.,0.,0.,0.,0.,0.,0.,0.,0.,0.,0.,0.,0.,0.,
 0.,0.,0.,0.,0.,0.,0.,0.,0.,0.,0.,0.,0.,0.,0.,0.,0.,0.,0.,0.,0.,0.,0.,0
 .,0.,0.,0.,0.,0.,0.,0.,0.,0.,0.,0.,0.,0.,0.,0.,0.,0.,0.,0.,0.,0.,0.,0.
 ,0.,0.,0.,0.,0.,0.,0.,0.,0.,0.,0.,0.,0.,0.,0.,0.,0.,0.,0.,0.,-0.076692
 78,-0.04135815,0.00419231,0.07338435,0.03404240,0.,0.,0.,0.,0.,0.,0.,0
 .,0.,0.,0.,0.,0.,0.,0.,0.,0.,0.,0.,0.,0.,0.,0.,0.,0.,0.,0.,0.,0.,0.,0.
 ,0.,0.,0.,0.,0.,0.,0.,0.,0.,0.,0.,0.,0.,0.,0.,0.,0.,0.,0.,0.,0.,0.,0.,
 0.,0.,0.,0.,0.,0.,0.,0.,0.,0.,0.,0.,0.,0.,0.,0.,0.,0.,0.,0.,0.,0.,0.,0
 .,0.,0.,0.,0.,0.,0.,0.,0.,0.,0.,0.,0.,0.,0.,0.,0.,0.,0.,0.,0.,0.,0.,0.
 ,0.,0.,0.,0.,0.,0.,0.,0.,0.,0.,0.,0.,0.,0.,0.,0.,0.,0.,0.,0.,0.,0.,0.,
 0.,0.,0.,0.,0.,0.,0.,0.,0.,0.,0.,0.,0.,0.,0.,0.,0.,0.,0.,0.,0.03621221
 ,0.01010995,-0.01668520,-0.01799993,0.00053852,0.02836307,0.,0.,0.,0.,
 0.,0.,0.,0.,0.,0.,0.,0.,0.,0.,0.,0.,0.,0.,0.,0.,0.,0.,0.,0.,0.,0.,0.,0
 .,0.,0.,0.,0.,0.,0.,0.,0.,0.,0.,0.,0.,0.,0.,0.,0.,0.,0.,0.,0.,0.,0.,0.
 ,0.,0.,0.,0.,0.,0.,0.,0.,0.,0.,0.,0.,0.,0.,0.,0.,0.,0.,0.,0.,0.,0.,0.,
 0.,0.,0.,0.,0.,0.,0.,0.,0.,0.,0.,0.,0.,0.,0.,0.,0.,0.,0.,0.,0.,0.,0.,0
 .,0.,0.,0.,0.,0.,0.,0.,0.,0.,0.,0.,0.,0.,0.,0.,0.,0.,0.,0.,0.,0.,0.,0.
 ,0.,0.,0.,0.,0.,0.,0.,0.,0.,0.,0.,0.,0.,0.,0.,0.,0.,0.,0.,0.,0.,0.,0.,
 -0.04386061,0.05564010,-0.00527795,0.01208815,0.01101969,0.00134680,0.
 03283927,0.,0.,0.,0.,0.,0.,0.,0.,0.,0.,0.,0.,0.,0.,0.,0.,0.,0.,0.,0.,0
 .,0.,0.,0.,0.,0.,0.,0.,0.,0.,0.,0.,0.,0.,0.,0.,0.,0.,0.,0.,0.,0.,0.,0.
 ,0.,0.,0.,0.,0.,0.,0.,0.,0.,0.,0.,0.,0.,0.,0.,0.,0.,0.,0.,0.,0.,0.,0.,
 0.,0.,0.,0.,0.,0.,0.,0.,0.,0.,0.,0.,0.,0.,0.,0.,0.,0.,0.,0.,0.,0.,0.,0
 .,0.,0.,0.,0.,0.,0.,0.,0.,0.,0.,0.,0.,0.,0.,0.,0.,0.,0.,0.,0.,0.,0.,0.
 ,0.,0.,0.,0.,0.,0.,0.,0.,0.,0.,0.,0.,0.,0.,0.,0.,0.,0.,0.,0.,0.,0.,0.,
 0.,0.,0.,0.,0.,0.,0.,0.07241162,-0.21774224,-0.00777923,-0.00900973,0.
 00596346,-0.00178894,-0.06448562,0.21854899,0.,0.,0.,0.,0.,0.,0.,0.,0.
 ,0.,0.,0.,0.,0.,0.,0.,0.,0.,0.,0.,0.,0.,0.,0.,0.,0.,0.,0.,0.,0.,0.,0.,
 0.,0.,0.,0.,0.,0.,0.,0.,0.,0.,0.,0.,0.,0.,0.,0.,0.,0.,0.,0.,0.,0.,0.,0
 .,0.,0.,0.,0.,0.,0.,0.,0.,0.,0.,0.,0.,0.,0.,0.,0.,0.,0.,0.,0.,0.,0.,0.
 ,0.,0.,0.,0.,0.,0.,0.,0.,0.,0.,0.,0.,0.,0.,0.,0.,0.,0.,0.,0.,0.,0.,0.,
 0.,0.,0.,0.,0.,0.,0.,0.,0.,0.,0.,0.,0.,0.,0.,0.,0.,0.,0.,0.,0.,0.,0.,0
 .,0.,0.,0.,0.,0.,0.,0.,0.,0.,0.,0.,0.,0.,0.,0.,0.,0.,0.,-0.00169425,-0
 .00041606,-0.01827457,-0.00109466,-0.00245723,0.00070762,-0.00158306,0
 .02560618,0.03177063||0.,0.,0.,0.,0.,0.,0.,0.,0.,0.,0.,0.,0.,0.,0.,0.,
 0.,0.,0.,0.,0.,0.,0.,0.,0.,0.,0.,0.,0.,0.,0.,0.,0.,0.,0.,0.,0.,0.,0.,0
 .,0.,0.,0.,0.,0.,0.,0.,0.,0.,0.,0.,0.,0.,0.,0.,0.,0.,0.,0.,0.,0.,0.,0.
 ,0.,0.,0.,0.,0.,0.,0.,0.,0.,0.,0.,0.,0.,0.,0.,0.,0.,0.,0.,0.,0.,0.,0.,
 0.,0.,0.,0.,0.,0.,0.,0.,0.,0.,0.,0.,0.,0.,0.,0.,0.,0.,0.,0.,0.,0.,0.,0
 .,0.,0.,0.,0.,0.,0.,0.,0.,0.,0.,0.,0.,0.,0.,0.,0.,0.,0.,0.,0.,0.,0.,0.
 ,0.,0.,0.,0.,0.,0.,0.,0.,0.,0.,0.,-0.05111366,-0.04219560,-0.18170082,
 -0.00115488,0.00260718,-0.00512569,0.00312439,0.00577392,0.00267650|||
 @


 GROWING OLD ISN'T SO BAD -- WHEN YOU CONSIDER THE ALTERNATIVE.

                     -- MAURICE CHEVALIER
 Job cpu time:       0 days  1 hours  0 minutes  0.0 seconds.
 File lengths (MBytes):  RWF=   2327 Int=      0 D2E=      0 Chk=     17 Scr=      1
 Normal termination of Gaussian 09 at Mon Dec 23 22:48:15 2024.
