 Entering Link 1 = C:\Gaussian\G09W\l1.exe PID=     25344.
  
 Copyright (c) 1988,1990,1992,1993,1995,1998,2003,2009,2013,
            Gaussian, Inc.  All Rights Reserved.
  
 This is part of the Gaussian(R) 09 program.  It is based on
 the Gaussian(R) 03 system (copyright 2003, Gaussian, Inc.),
 the Gaussian(R) 98 system (copyright 1998, Gaussian, Inc.),
 the Gaussian(R) 94 system (copyright 1995, Gaussian, Inc.),
 the Gaussian 92(TM) system (copyright 1992, Gaussian, Inc.),
 the Gaussian 90(TM) system (copyright 1990, Gaussian, Inc.),
 the Gaussian 88(TM) system (copyright 1988, Gaussian, Inc.),
 the Gaussian 86(TM) system (copyright 1986, Carnegie Mellon
 University), and the Gaussian 82(TM) system (copyright 1983,
 Carnegie Mellon University). Gaussian is a federally registered
 trademark of Gaussian, Inc.
  
 This software contains proprietary and confidential information,
 including trade secrets, belonging to Gaussian, Inc.
  
 This software is provided under written license and may be
 used, copied, transmitted, or stored only in accord with that
 written license.
  
 The following legend is applicable only to US Government
 contracts under FAR:
  
                    RESTRICTED RIGHTS LEGEND
  
 Use, reproduction and disclosure by the US Government is
 subject to restrictions as set forth in subparagraphs (a)
 and (c) of the Commercial Computer Software - Restricted
 Rights clause in FAR 52.227-19.
  
 Gaussian, Inc.
 340 Quinnipiac St., Bldg. 40, Wallingford CT 06492
  
  
 ---------------------------------------------------------------
 Warning -- This program may not be used in any manner that
 competes with the business of Gaussian, Inc. or will provide
 assistance to any competitor of Gaussian, Inc.  The licensee
 of this program is prohibited from giving any competitor of
 Gaussian, Inc. access to this program.  By using this program,
 the user acknowledges that Gaussian, Inc. is engaged in the
 business of creating and licensing software in the field of
 computational chemistry and represents and warrants to the
 licensee that it is not a competitor of Gaussian, Inc. and that
 it will not use this program in any manner prohibited above.
 ---------------------------------------------------------------
  

 Cite this work as:
 Gaussian 09, Revision D.01,
 M. J. Frisch, G. W. Trucks, H. B. Schlegel, G. E. Scuseria, 
 M. A. Robb, J. R. Cheeseman, G. Scalmani, V. Barone, B. Mennucci, 
 G. A. Petersson, H. Nakatsuji, M. Caricato, X. Li, H. P. Hratchian, 
 A. F. Izmaylov, J. Bloino, G. Zheng, J. L. Sonnenberg, M. Hada, 
 M. Ehara, K. Toyota, R. Fukuda, J. Hasegawa, M. Ishida, T. Nakajima, 
 Y. Honda, O. Kitao, H. Nakai, T. Vreven, J. A. Montgomery, Jr., 
 J. E. Peralta, F. Ogliaro, M. Bearpark, J. J. Heyd, E. Brothers, 
 K. N. Kudin, V. N. Staroverov, T. Keith, R. Kobayashi, J. Normand, 
 K. Raghavachari, A. Rendell, J. C. Burant, S. S. Iyengar, J. Tomasi, 
 M. Cossi, N. Rega, J. M. Millam, M. Klene, J. E. Knox, J. B. Cross, 
 V. Bakken, C. Adamo, J. Jaramillo, R. Gomperts, R. E. Stratmann, 
 O. Yazyev, A. J. Austin, R. Cammi, C. Pomelli, J. W. Ochterski, 
 R. L. Martin, K. Morokuma, V. G. Zakrzewski, G. A. Voth, 
 P. Salvador, J. J. Dannenberg, S. Dapprich, A. D. Daniels, 
 O. Farkas, J. B. Foresman, J. V. Ortiz, J. Cioslowski, 
 and D. J. Fox, Gaussian, Inc., Wallingford CT, 2013.
 
 ******************************************
 Gaussian 09:  IA32W-G09RevD.01 24-Apr-2013
                15-Mar-2026 
 ******************************************
 %chk=C:\Users\User\Desktop\IMRG\ECE+ML\Ru_Gr_NS.chk
 ---------------------------------------
 # opt freq pm6 scf=qc geom=connectivity
 ---------------------------------------
 1/14=-1,18=20,19=15,26=1,38=1,57=2/1,3;
 2/9=110,12=2,17=6,18=5,40=1/2;
 3/5=2,16=1,25=1,41=3900000,71=1/1,2,3;
 4/35=1/1;
 5/5=2,8=3,35=1,38=5/8;
 6/7=2,8=2,9=2,10=2,28=1/1;
 7//1,2,3,16;
 1/14=-1,18=20,19=15,26=1/3(2);
 2/9=110/2;
 99//99;
 2/9=110/2;
 3/5=2,16=1,25=1,41=3900000,71=1,135=20/1,2,3;
 4/5=5,16=3,35=1/1;
 5/5=2,8=3,35=1,38=5/8;
 7//1,2,3,16;
 1/14=-1,18=20,19=15,26=1/3(-5);
 2/9=110/2;
 6/7=2,8=2,9=2,10=2,19=2,28=1/1;
 99/9=1/99;
 --------
 Ru_Gr_NS
 --------
 Symbolic Z-matrix:
 Charge =  0 Multiplicity = 1
 C                     0.17695   1.02371   2.99497 
 C                     1.43495   0.29741   2.57781 
 C                     2.69295   1.02371   2.99497 
 C                     5.20895   1.02371   2.99497 
 C                     7.72495   1.02371   2.99497 
 C                     3.95095   0.29741   2.57781 
 C                     6.46695   0.29741   2.57781 
 C                    -1.08105   3.20263   2.99497 
 C                    -2.33905   5.38155   2.99497 
 C                     0.17695   2.47633   2.57781 
 C                    -1.08105   4.65525   2.57781 
 C                    -2.33905   6.83417   2.57781 
 C                     1.43495   3.20263   2.99497 
 C                     0.17695   5.38155   2.99497 
 C                    -1.08105   7.56047   2.99497 
 C                     3.95095   3.20263   2.99497 
 C                     2.69295   5.38155   2.99497 
 C                     1.43495   7.56047   2.99497 
 C                     6.46695   3.20263   2.99497 
 C                     5.20895   5.38155   2.99497 
 C                     3.95095   7.56047   2.99497 
 C                     2.69295   2.47633   2.57781 
 C                     0.17695   6.83417   2.57781 
 C                     5.20895   2.47633   2.57781 
 C                     3.95095   4.65525   2.57781 
 C                     2.69295   6.83417   2.57781 
 C                     7.72495   2.47633   2.57781 
 C                     6.46695   4.65525   2.57781 
 C                     5.20895   6.83417   2.57781 
 H                     8.6156    2.99054   2.87315 
 H                     7.3576    5.16946   2.87315 
 H                     6.0996    7.34838   2.87315 
 H                     3.95095   8.58891   2.69962 
 H                     1.43495   8.58891   2.69962 
 H                    -1.08105   8.58891   2.69962 
 H                    -3.2297    7.34838   2.87315 
 H                    -3.2297    4.86734   2.69962 
 H                    -1.9717    2.68842   2.69962 
 H                    -0.7137    0.5095    2.69962 
 H                     1.43495  -0.73103   2.87315 
 H                     3.95095  -0.73103   2.87315 
 H                     6.49522  -0.60455   3.15277 
 H                     8.37341   0.35071   3.51599 
 Ru                    1.43495   4.65525   2.57781 
 

 GradGradGradGradGradGradGradGradGradGradGradGradGradGradGradGradGradGrad
 Berny optimization.
 Initialization pass.
                           ----------------------------
                           !    Initial Parameters    !
                           ! (Angstroms and Degrees)  !
 --------------------------                            --------------------------
 ! Name  Definition              Value          Derivative Info.                !
 --------------------------------------------------------------------------------
 ! R1    R(1,2)                  1.5113         estimate D2E/DX2                !
 ! R2    R(1,10)                 1.5113         estimate D2E/DX2                !
 ! R3    R(1,39)                 1.07           estimate D2E/DX2                !
 ! R4    R(2,3)                  1.5113         estimate D2E/DX2                !
 ! R5    R(2,40)                 1.07           estimate D2E/DX2                !
 ! R6    R(3,6)                  1.5113         estimate D2E/DX2                !
 ! R7    R(3,22)                 1.5113         estimate D2E/DX2                !
 ! R8    R(4,6)                  1.5113         estimate D2E/DX2                !
 ! R9    R(4,7)                  1.5113         estimate D2E/DX2                !
 ! R10   R(4,24)                 1.5113         estimate D2E/DX2                !
 ! R11   R(5,7)                  1.5113         estimate D2E/DX2                !
 ! R12   R(5,27)                 1.5113         estimate D2E/DX2                !
 ! R13   R(5,43)                 1.07           estimate D2E/DX2                !
 ! R14   R(6,41)                 1.07           estimate D2E/DX2                !
 ! R15   R(7,42)                 1.07           estimate D2E/DX2                !
 ! R16   R(8,10)                 1.5113         estimate D2E/DX2                !
 ! R17   R(8,11)                 1.5113         estimate D2E/DX2                !
 ! R18   R(8,38)                 1.07           estimate D2E/DX2                !
 ! R19   R(9,11)                 1.5113         estimate D2E/DX2                !
 ! R20   R(9,12)                 1.5113         estimate D2E/DX2                !
 ! R21   R(9,37)                 1.07           estimate D2E/DX2                !
 ! R22   R(10,13)                1.5113         estimate D2E/DX2                !
 ! R23   R(11,14)                1.5113         estimate D2E/DX2                !
 ! R24   R(12,15)                1.5113         estimate D2E/DX2                !
 ! R25   R(12,36)                1.07           estimate D2E/DX2                !
 ! R26   R(13,22)                1.5113         estimate D2E/DX2                !
 ! R27   R(13,44)                1.5113         estimate D2E/DX2                !
 ! R28   R(14,23)                1.5113         estimate D2E/DX2                !
 ! R29   R(14,44)                1.5113         estimate D2E/DX2                !
 ! R30   R(15,23)                1.5113         estimate D2E/DX2                !
 ! R31   R(15,35)                1.07           estimate D2E/DX2                !
 ! R32   R(16,22)                1.5113         estimate D2E/DX2                !
 ! R33   R(16,24)                1.5113         estimate D2E/DX2                !
 ! R34   R(16,25)                1.5113         estimate D2E/DX2                !
 ! R35   R(17,25)                1.5113         estimate D2E/DX2                !
 ! R36   R(17,26)                1.5113         estimate D2E/DX2                !
 ! R37   R(17,44)                1.5113         estimate D2E/DX2                !
 ! R38   R(18,23)                1.5113         estimate D2E/DX2                !
 ! R39   R(18,26)                1.5113         estimate D2E/DX2                !
 ! R40   R(18,34)                1.07           estimate D2E/DX2                !
 ! R41   R(19,24)                1.5113         estimate D2E/DX2                !
 ! R42   R(19,27)                1.5113         estimate D2E/DX2                !
 ! R43   R(19,28)                1.5113         estimate D2E/DX2                !
 ! R44   R(20,25)                1.5113         estimate D2E/DX2                !
 ! R45   R(20,28)                1.5113         estimate D2E/DX2                !
 ! R46   R(20,29)                1.5113         estimate D2E/DX2                !
 ! R47   R(21,26)                1.5113         estimate D2E/DX2                !
 ! R48   R(21,29)                1.5113         estimate D2E/DX2                !
 ! R49   R(21,33)                1.07           estimate D2E/DX2                !
 ! R50   R(27,30)                1.07           estimate D2E/DX2                !
 ! R51   R(28,31)                1.07           estimate D2E/DX2                !
 ! R52   R(29,32)                1.07           estimate D2E/DX2                !
 ! A1    A(2,1,10)             112.6884         estimate D2E/DX2                !
 ! A2    A(2,1,39)             112.6884         estimate D2E/DX2                !
 ! A3    A(10,1,39)            112.6884         estimate D2E/DX2                !
 ! A4    A(1,2,3)              112.6884         estimate D2E/DX2                !
 ! A5    A(1,2,40)             112.6884         estimate D2E/DX2                !
 ! A6    A(3,2,40)             112.6884         estimate D2E/DX2                !
 ! A7    A(2,3,6)              112.6884         estimate D2E/DX2                !
 ! A8    A(2,3,22)             112.6884         estimate D2E/DX2                !
 ! A9    A(6,3,22)             112.6884         estimate D2E/DX2                !
 ! A10   A(6,4,7)              112.6884         estimate D2E/DX2                !
 ! A11   A(6,4,24)             112.6884         estimate D2E/DX2                !
 ! A12   A(7,4,24)             112.6884         estimate D2E/DX2                !
 ! A13   A(7,5,27)             112.6884         estimate D2E/DX2                !
 ! A14   A(7,5,43)             109.6693         estimate D2E/DX2                !
 ! A15   A(27,5,43)            137.6415         estimate D2E/DX2                !
 ! A16   A(3,6,4)              112.6884         estimate D2E/DX2                !
 ! A17   A(3,6,41)             112.6884         estimate D2E/DX2                !
 ! A18   A(4,6,41)             112.6884         estimate D2E/DX2                !
 ! A19   A(4,7,5)              112.6884         estimate D2E/DX2                !
 ! A20   A(4,7,42)             106.187          estimate D2E/DX2                !
 ! A21   A(5,7,42)             103.5792         estimate D2E/DX2                !
 ! A22   A(10,8,11)            112.6884         estimate D2E/DX2                !
 ! A23   A(10,8,38)            112.6884         estimate D2E/DX2                !
 ! A24   A(11,8,38)            112.6884         estimate D2E/DX2                !
 ! A25   A(11,9,12)            112.6884         estimate D2E/DX2                !
 ! A26   A(11,9,37)            112.6884         estimate D2E/DX2                !
 ! A27   A(12,9,37)            112.6884         estimate D2E/DX2                !
 ! A28   A(1,10,8)             112.6884         estimate D2E/DX2                !
 ! A29   A(1,10,13)            112.6884         estimate D2E/DX2                !
 ! A30   A(8,10,13)            112.6884         estimate D2E/DX2                !
 ! A31   A(8,11,9)             112.6884         estimate D2E/DX2                !
 ! A32   A(8,11,14)            112.6884         estimate D2E/DX2                !
 ! A33   A(9,11,14)            112.6884         estimate D2E/DX2                !
 ! A34   A(9,12,15)            112.6884         estimate D2E/DX2                !
 ! A35   A(9,12,36)            112.6884         estimate D2E/DX2                !
 ! A36   A(15,12,36)           112.6884         estimate D2E/DX2                !
 ! A37   A(10,13,22)           112.6884         estimate D2E/DX2                !
 ! A38   A(10,13,44)           112.6884         estimate D2E/DX2                !
 ! A39   A(22,13,44)           112.6884         estimate D2E/DX2                !
 ! A40   A(11,14,23)           112.6884         estimate D2E/DX2                !
 ! A41   A(11,14,44)           112.6884         estimate D2E/DX2                !
 ! A42   A(23,14,44)           112.6884         estimate D2E/DX2                !
 ! A43   A(12,15,23)           112.6884         estimate D2E/DX2                !
 ! A44   A(12,15,35)           112.6884         estimate D2E/DX2                !
 ! A45   A(23,15,35)           112.6884         estimate D2E/DX2                !
 ! A46   A(22,16,24)           112.6884         estimate D2E/DX2                !
 ! A47   A(22,16,25)           112.6884         estimate D2E/DX2                !
 ! A48   A(24,16,25)           112.6884         estimate D2E/DX2                !
 ! A49   A(25,17,26)           112.6884         estimate D2E/DX2                !
 ! A50   A(25,17,44)           112.6884         estimate D2E/DX2                !
 ! A51   A(26,17,44)           112.6884         estimate D2E/DX2                !
 ! A52   A(23,18,26)           112.6884         estimate D2E/DX2                !
 ! A53   A(23,18,34)           112.6884         estimate D2E/DX2                !
 ! A54   A(26,18,34)           112.6884         estimate D2E/DX2                !
 ! A55   A(24,19,27)           112.6884         estimate D2E/DX2                !
 ! A56   A(24,19,28)           112.6884         estimate D2E/DX2                !
 ! A57   A(27,19,28)           112.6884         estimate D2E/DX2                !
 ! A58   A(25,20,28)           112.6884         estimate D2E/DX2                !
 ! A59   A(25,20,29)           112.6884         estimate D2E/DX2                !
 ! A60   A(28,20,29)           112.6884         estimate D2E/DX2                !
 ! A61   A(26,21,29)           112.6884         estimate D2E/DX2                !
 ! A62   A(26,21,33)           112.6884         estimate D2E/DX2                !
 ! A63   A(29,21,33)           112.6884         estimate D2E/DX2                !
 ! A64   A(3,22,13)            112.6884         estimate D2E/DX2                !
 ! A65   A(3,22,16)            112.6884         estimate D2E/DX2                !
 ! A66   A(13,22,16)           112.6884         estimate D2E/DX2                !
 ! A67   A(14,23,15)           112.6884         estimate D2E/DX2                !
 ! A68   A(14,23,18)           112.6884         estimate D2E/DX2                !
 ! A69   A(15,23,18)           112.6884         estimate D2E/DX2                !
 ! A70   A(4,24,16)            112.6884         estimate D2E/DX2                !
 ! A71   A(4,24,19)            112.6884         estimate D2E/DX2                !
 ! A72   A(16,24,19)           112.6884         estimate D2E/DX2                !
 ! A73   A(16,25,17)           112.6884         estimate D2E/DX2                !
 ! A74   A(16,25,20)           112.6884         estimate D2E/DX2                !
 ! A75   A(17,25,20)           112.6884         estimate D2E/DX2                !
 ! A76   A(17,26,18)           112.6884         estimate D2E/DX2                !
 ! A77   A(17,26,21)           112.6884         estimate D2E/DX2                !
 ! A78   A(18,26,21)           112.6884         estimate D2E/DX2                !
 ! A79   A(5,27,19)            112.6884         estimate D2E/DX2                !
 ! A80   A(5,27,30)            112.6884         estimate D2E/DX2                !
 ! A81   A(19,27,30)           112.6884         estimate D2E/DX2                !
 ! A82   A(19,28,20)           112.6884         estimate D2E/DX2                !
 ! A83   A(19,28,31)           112.6884         estimate D2E/DX2                !
 ! A84   A(20,28,31)           112.6884         estimate D2E/DX2                !
 ! A85   A(20,29,21)           112.6884         estimate D2E/DX2                !
 ! A86   A(20,29,32)           112.6884         estimate D2E/DX2                !
 ! A87   A(21,29,32)           112.6884         estimate D2E/DX2                !
 ! A88   A(13,44,14)           112.6884         estimate D2E/DX2                !
 ! A89   A(13,44,17)           112.6884         estimate D2E/DX2                !
 ! A90   A(14,44,17)           112.6884         estimate D2E/DX2                !
 ! D1    D(10,1,2,3)            51.1032         estimate D2E/DX2                !
 ! D2    D(10,1,2,40)          180.0            estimate D2E/DX2                !
 ! D3    D(39,1,2,3)           180.0            estimate D2E/DX2                !
 ! D4    D(39,1,2,40)          -51.1032         estimate D2E/DX2                !
 ! D5    D(2,1,10,8)           180.0            estimate D2E/DX2                !
 ! D6    D(2,1,10,13)          -51.1032         estimate D2E/DX2                !
 ! D7    D(39,1,10,8)           51.1032         estimate D2E/DX2                !
 ! D8    D(39,1,10,13)         180.0            estimate D2E/DX2                !
 ! D9    D(1,2,3,6)            180.0            estimate D2E/DX2                !
 ! D10   D(1,2,3,22)           -51.1032         estimate D2E/DX2                !
 ! D11   D(40,2,3,6)            51.1032         estimate D2E/DX2                !
 ! D12   D(40,2,3,22)         -180.0            estimate D2E/DX2                !
 ! D13   D(2,3,6,4)            180.0            estimate D2E/DX2                !
 ! D14   D(2,3,6,41)           -51.1032         estimate D2E/DX2                !
 ! D15   D(22,3,6,4)            51.1032         estimate D2E/DX2                !
 ! D16   D(22,3,6,41)          180.0            estimate D2E/DX2                !
 ! D17   D(2,3,22,13)           51.1032         estimate D2E/DX2                !
 ! D18   D(2,3,22,16)          180.0            estimate D2E/DX2                !
 ! D19   D(6,3,22,13)          180.0            estimate D2E/DX2                !
 ! D20   D(6,3,22,16)          -51.1032         estimate D2E/DX2                !
 ! D21   D(7,4,6,3)            180.0            estimate D2E/DX2                !
 ! D22   D(7,4,6,41)            51.1032         estimate D2E/DX2                !
 ! D23   D(24,4,6,3)           -51.1032         estimate D2E/DX2                !
 ! D24   D(24,4,6,41)          180.0            estimate D2E/DX2                !
 ! D25   D(6,4,7,5)            180.0            estimate D2E/DX2                !
 ! D26   D(6,4,7,42)           -67.2727         estimate D2E/DX2                !
 ! D27   D(24,4,7,5)            51.1032         estimate D2E/DX2                !
 ! D28   D(24,4,7,42)          163.8304         estimate D2E/DX2                !
 ! D29   D(6,4,24,16)           51.1032         estimate D2E/DX2                !
 ! D30   D(6,4,24,19)          180.0            estimate D2E/DX2                !
 ! D31   D(7,4,24,16)          180.0            estimate D2E/DX2                !
 ! D32   D(7,4,24,19)          -51.1032         estimate D2E/DX2                !
 ! D33   D(27,5,7,4)           -51.1032         estimate D2E/DX2                !
 ! D34   D(27,5,7,42)         -165.4227         estimate D2E/DX2                !
 ! D35   D(43,5,7,4)           128.6399         estimate D2E/DX2                !
 ! D36   D(43,5,7,42)           14.3203         estimate D2E/DX2                !
 ! D37   D(7,5,27,19)           51.1032         estimate D2E/DX2                !
 ! D38   D(7,5,27,30)          180.0            estimate D2E/DX2                !
 ! D39   D(43,5,27,19)        -128.5377         estimate D2E/DX2                !
 ! D40   D(43,5,27,30)           0.3591         estimate D2E/DX2                !
 ! D41   D(11,8,10,1)          180.0            estimate D2E/DX2                !
 ! D42   D(11,8,10,13)          51.1032         estimate D2E/DX2                !
 ! D43   D(38,8,10,1)          -51.1032         estimate D2E/DX2                !
 ! D44   D(38,8,10,13)        -180.0            estimate D2E/DX2                !
 ! D45   D(10,8,11,9)          180.0            estimate D2E/DX2                !
 ! D46   D(10,8,11,14)         -51.1032         estimate D2E/DX2                !
 ! D47   D(38,8,11,9)           51.1032         estimate D2E/DX2                !
 ! D48   D(38,8,11,14)         180.0            estimate D2E/DX2                !
 ! D49   D(12,9,11,8)         -180.0            estimate D2E/DX2                !
 ! D50   D(12,9,11,14)          51.1032         estimate D2E/DX2                !
 ! D51   D(37,9,11,8)          -51.1032         estimate D2E/DX2                !
 ! D52   D(37,9,11,14)         180.0            estimate D2E/DX2                !
 ! D53   D(11,9,12,15)         -51.1032         estimate D2E/DX2                !
 ! D54   D(11,9,12,36)        -180.0            estimate D2E/DX2                !
 ! D55   D(37,9,12,15)         180.0            estimate D2E/DX2                !
 ! D56   D(37,9,12,36)          51.1032         estimate D2E/DX2                !
 ! D57   D(1,10,13,22)          51.1032         estimate D2E/DX2                !
 ! D58   D(1,10,13,44)         180.0            estimate D2E/DX2                !
 ! D59   D(8,10,13,22)         180.0            estimate D2E/DX2                !
 ! D60   D(8,10,13,44)         -51.1032         estimate D2E/DX2                !
 ! D61   D(8,11,14,23)         180.0            estimate D2E/DX2                !
 ! D62   D(8,11,14,44)          51.1032         estimate D2E/DX2                !
 ! D63   D(9,11,14,23)         -51.1032         estimate D2E/DX2                !
 ! D64   D(9,11,14,44)         180.0            estimate D2E/DX2                !
 ! D65   D(9,12,15,23)          51.1032         estimate D2E/DX2                !
 ! D66   D(9,12,15,35)         180.0            estimate D2E/DX2                !
 ! D67   D(36,12,15,23)        180.0            estimate D2E/DX2                !
 ! D68   D(36,12,15,35)        -51.1032         estimate D2E/DX2                !
 ! D69   D(10,13,22,3)         -51.1032         estimate D2E/DX2                !
 ! D70   D(10,13,22,16)        180.0            estimate D2E/DX2                !
 ! D71   D(44,13,22,3)         180.0            estimate D2E/DX2                !
 ! D72   D(44,13,22,16)         51.1032         estimate D2E/DX2                !
 ! D73   D(10,13,44,14)         51.1032         estimate D2E/DX2                !
 ! D74   D(10,13,44,17)        180.0            estimate D2E/DX2                !
 ! D75   D(22,13,44,14)       -180.0            estimate D2E/DX2                !
 ! D76   D(22,13,44,17)        -51.1032         estimate D2E/DX2                !
 ! D77   D(11,14,23,15)         51.1032         estimate D2E/DX2                !
 ! D78   D(11,14,23,18)        180.0            estimate D2E/DX2                !
 ! D79   D(44,14,23,15)        180.0            estimate D2E/DX2                !
 ! D80   D(44,14,23,18)        -51.1032         estimate D2E/DX2                !
 ! D81   D(11,14,44,13)        -51.1032         estimate D2E/DX2                !
 ! D82   D(11,14,44,17)        180.0            estimate D2E/DX2                !
 ! D83   D(23,14,44,13)       -180.0            estimate D2E/DX2                !
 ! D84   D(23,14,44,17)         51.1032         estimate D2E/DX2                !
 ! D85   D(12,15,23,14)        -51.1032         estimate D2E/DX2                !
 ! D86   D(12,15,23,18)        180.0            estimate D2E/DX2                !
 ! D87   D(35,15,23,14)        180.0            estimate D2E/DX2                !
 ! D88   D(35,15,23,18)         51.1032         estimate D2E/DX2                !
 ! D89   D(24,16,22,3)          51.1032         estimate D2E/DX2                !
 ! D90   D(24,16,22,13)        180.0            estimate D2E/DX2                !
 ! D91   D(25,16,22,3)         180.0            estimate D2E/DX2                !
 ! D92   D(25,16,22,13)        -51.1032         estimate D2E/DX2                !
 ! D93   D(22,16,24,4)         -51.1032         estimate D2E/DX2                !
 ! D94   D(22,16,24,19)        180.0            estimate D2E/DX2                !
 ! D95   D(25,16,24,4)         180.0            estimate D2E/DX2                !
 ! D96   D(25,16,24,19)         51.1032         estimate D2E/DX2                !
 ! D97   D(22,16,25,17)         51.1032         estimate D2E/DX2                !
 ! D98   D(22,16,25,20)        180.0            estimate D2E/DX2                !
 ! D99   D(24,16,25,17)        180.0            estimate D2E/DX2                !
 ! D100  D(24,16,25,20)        -51.1032         estimate D2E/DX2                !
 ! D101  D(26,17,25,16)       -180.0            estimate D2E/DX2                !
 ! D102  D(26,17,25,20)         51.1032         estimate D2E/DX2                !
 ! D103  D(44,17,25,16)        -51.1032         estimate D2E/DX2                !
 ! D104  D(44,17,25,20)        180.0            estimate D2E/DX2                !
 ! D105  D(25,17,26,18)        180.0            estimate D2E/DX2                !
 ! D106  D(25,17,26,21)        -51.1032         estimate D2E/DX2                !
 ! D107  D(44,17,26,18)         51.1032         estimate D2E/DX2                !
 ! D108  D(44,17,26,21)        180.0            estimate D2E/DX2                !
 ! D109  D(25,17,44,13)         51.1032         estimate D2E/DX2                !
 ! D110  D(25,17,44,14)        180.0            estimate D2E/DX2                !
 ! D111  D(26,17,44,13)        180.0            estimate D2E/DX2                !
 ! D112  D(26,17,44,14)        -51.1032         estimate D2E/DX2                !
 ! D113  D(26,18,23,14)         51.1032         estimate D2E/DX2                !
 ! D114  D(26,18,23,15)        180.0            estimate D2E/DX2                !
 ! D115  D(34,18,23,14)        180.0            estimate D2E/DX2                !
 ! D116  D(34,18,23,15)        -51.1032         estimate D2E/DX2                !
 ! D117  D(23,18,26,17)        -51.1032         estimate D2E/DX2                !
 ! D118  D(23,18,26,21)        180.0            estimate D2E/DX2                !
 ! D119  D(34,18,26,17)        180.0            estimate D2E/DX2                !
 ! D120  D(34,18,26,21)         51.1032         estimate D2E/DX2                !
 ! D121  D(27,19,24,4)          51.1032         estimate D2E/DX2                !
 ! D122  D(27,19,24,16)        180.0            estimate D2E/DX2                !
 ! D123  D(28,19,24,4)         180.0            estimate D2E/DX2                !
 ! D124  D(28,19,24,16)        -51.1032         estimate D2E/DX2                !
 ! D125  D(24,19,27,5)         -51.1032         estimate D2E/DX2                !
 ! D126  D(24,19,27,30)        180.0            estimate D2E/DX2                !
 ! D127  D(28,19,27,5)         180.0            estimate D2E/DX2                !
 ! D128  D(28,19,27,30)         51.1032         estimate D2E/DX2                !
 ! D129  D(24,19,28,20)         51.1032         estimate D2E/DX2                !
 ! D130  D(24,19,28,31)        180.0            estimate D2E/DX2                !
 ! D131  D(27,19,28,20)        180.0            estimate D2E/DX2                !
 ! D132  D(27,19,28,31)        -51.1032         estimate D2E/DX2                !
 ! D133  D(28,20,25,16)         51.1032         estimate D2E/DX2                !
 ! D134  D(28,20,25,17)        180.0            estimate D2E/DX2                !
 ! D135  D(29,20,25,16)        180.0            estimate D2E/DX2                !
 ! D136  D(29,20,25,17)        -51.1032         estimate D2E/DX2                !
 ! D137  D(25,20,28,19)        -51.1032         estimate D2E/DX2                !
 ! D138  D(25,20,28,31)        180.0            estimate D2E/DX2                !
 ! D139  D(29,20,28,19)       -180.0            estimate D2E/DX2                !
 ! D140  D(29,20,28,31)         51.1032         estimate D2E/DX2                !
 ! D141  D(25,20,29,21)         51.1032         estimate D2E/DX2                !
 ! D142  D(25,20,29,32)        180.0            estimate D2E/DX2                !
 ! D143  D(28,20,29,21)        180.0            estimate D2E/DX2                !
 ! D144  D(28,20,29,32)        -51.1032         estimate D2E/DX2                !
 ! D145  D(29,21,26,17)         51.1032         estimate D2E/DX2                !
 ! D146  D(29,21,26,18)       -180.0            estimate D2E/DX2                !
 ! D147  D(33,21,26,17)        180.0            estimate D2E/DX2                !
 ! D148  D(33,21,26,18)        -51.1032         estimate D2E/DX2                !
 ! D149  D(26,21,29,20)        -51.1032         estimate D2E/DX2                !
 ! D150  D(26,21,29,32)        180.0            estimate D2E/DX2                !
 ! D151  D(33,21,29,20)        180.0            estimate D2E/DX2                !
 ! D152  D(33,21,29,32)         51.1032         estimate D2E/DX2                !
 --------------------------------------------------------------------------------
 Trust Radius=3.00D-01 FncErr=1.00D-07 GrdErr=1.00D-07
 Number of steps in this run=    264 maximum allowed number of steps=    264.
 GradGradGradGradGradGradGradGradGradGradGradGradGradGradGradGradGradGrad

                          Input orientation:                          
 ---------------------------------------------------------------------
 Center     Atomic      Atomic             Coordinates (Angstroms)
 Number     Number       Type             X           Y           Z
 ---------------------------------------------------------------------
      1          6           0        0.176948    1.023714    2.994967
      2          6           0        1.434948    0.297407    2.577810
      3          6           0        2.692948    1.023714    2.994967
      4          6           0        5.208948    1.023714    2.994967
      5          6           0        7.724948    1.023714    2.994967
      6          6           0        3.950948    0.297407    2.577810
      7          6           0        6.466948    0.297407    2.577810
      8          6           0       -1.081052    3.202634    2.994967
      9          6           0       -2.339052    5.381554    2.994967
     10          6           0        0.176948    2.476327    2.577810
     11          6           0       -1.081052    4.655247    2.577810
     12          6           0       -2.339052    6.834167    2.577810
     13          6           0        1.434948    3.202634    2.994967
     14          6           0        0.176948    5.381554    2.994967
     15          6           0       -1.081052    7.560474    2.994967
     16          6           0        3.950948    3.202634    2.994967
     17          6           0        2.692948    5.381554    2.994967
     18          6           0        1.434948    7.560474    2.994967
     19          6           0        6.466948    3.202634    2.994967
     20          6           0        5.208948    5.381554    2.994967
     21          6           0        3.950948    7.560474    2.994967
     22          6           0        2.692948    2.476327    2.577810
     23          6           0        0.176948    6.834167    2.577810
     24          6           0        5.208948    2.476327    2.577810
     25          6           0        3.950948    4.655247    2.577810
     26          6           0        2.692948    6.834167    2.577810
     27          6           0        7.724948    2.476327    2.577810
     28          6           0        6.466948    4.655247    2.577810
     29          6           0        5.208948    6.834167    2.577810
     30          1           0        8.615597    2.990544    2.873152
     31          1           0        7.357597    5.169464    2.873152
     32          1           0        6.099597    7.348383    2.873152
     33          1           0        3.950948    8.588906    2.699625
     34          1           0        1.434948    8.588906    2.699625
     35          1           0       -1.081052    8.588906    2.699625
     36          1           0       -3.229701    7.348383    2.873152
     37          1           0       -3.229701    4.867338    2.699625
     38          1           0       -1.971701    2.688418    2.699625
     39          1           0       -0.713701    0.509498    2.699625
     40          1           0        1.434948   -0.731025    2.873152
     41          1           0        3.950948   -0.731025    2.873152
     42          1           0        6.495217   -0.604546    3.152772
     43          1           0        8.373408    0.350713    3.515994
     44         44           0        1.434948    4.655247    2.577810
 ---------------------------------------------------------------------
                    Distance matrix (angstroms):
                    1          2          3          4          5
     1  C    0.000000
     2  C    1.511326   0.000000
     3  C    2.516000   1.511326   0.000000
     4  C    5.032000   3.865827   2.516000   0.000000
     5  C    7.548000   6.345521   5.032000   2.516000   0.000000
     6  C    3.865827   2.516000   1.511326   1.511326   3.865827
     7  C    6.345521   5.032000   3.865827   1.511326   1.511326
     8  C    2.516000   3.865827   4.357840   6.656710   9.071567
     9  C    5.032000   6.345521   6.656710   8.715680  10.966990
    10  C    1.511326   2.516000   2.935023   5.254058   7.697818
    11  C    3.865827   5.032000   5.254058   7.275036   9.534552
    12  C    6.345521   7.548000   7.697818   9.534552  11.628391
    13  C    2.516000   2.935023   2.516000   4.357840   6.656710
    14  C    4.357840   5.254058   5.032000   6.656710   8.715680
    15  C    6.656710   7.697818   7.548000   9.071567  10.966990
    16  C    4.357840   3.865827   2.516000   2.516000   4.357840
    17  C    5.032000   5.254058   4.357840   5.032000   6.656710
    18  C    6.656710   7.275036   6.656710   7.548000   9.071567
    19  C    6.656710   5.825409   4.357840   2.516000   2.516000
    20  C    6.656710   6.345521   5.032000   4.357840   5.032000
    21  C    7.548000   7.697818   6.656710   6.656710   7.548000
    22  C    2.935023   2.516000   1.511326   2.935023   5.254058
    23  C    5.825409   6.656710   6.345521   7.697818   9.534552
    24  C    5.254058   4.357840   2.935023   1.511326   2.935023
    25  C    5.254058   5.032000   3.865827   3.865827   5.254058
    26  C    6.345521   6.656710   5.825409   6.345521   7.697818
    27  C    7.697818   6.656710   5.254058   2.935023   1.511326
    28  C    7.275036   6.656710   5.254058   3.865827   3.865827
    29  C    7.697818   7.548000   6.345521   5.825409   6.345521
    30  H    8.665682   7.674759   6.241877   3.935545   2.162524
    31  H    8.292394   7.674759   6.241877   4.671056   4.163775
    32  H    8.665682   8.459458   7.184813   6.388234   6.531313
    33  H    8.459458   8.665682   7.674759   7.674759   8.459458
    34  H    7.674759   8.292394   7.674759   8.459458   9.842940
    35  H    7.674759   8.665682   8.459458   9.842940  11.613139
    36  H    7.184813   8.459458   8.665682  10.546425  12.649925
    37  H    5.144504   6.531313   7.066713   9.277471  11.613139
    38  H    2.734073   4.163775   4.961594   7.377003   9.842940
    39  H    1.070000   2.162524   3.457875   5.952261   8.459458
    40  H    2.162524   1.070000   2.162524   4.163775   6.531313
    41  H    4.163775   2.734073   2.162524   2.162524   4.163775
    42  H    6.526612   5.172082   4.139249   2.081015   2.046551
    43  H    8.240531   7.001804   5.743868   3.276920   1.070000
    44  Ru   3.865827   4.357840   3.865827   5.254058   7.275036
                    6          7          8          9         10
     6  C    0.000000
     7  C    2.516000   0.000000
     8  C    5.825409   8.098559   0.000000
     9  C    8.098559  10.176846   2.516000   0.000000
    10  C    4.357840   6.656710   1.511326   3.865827   0.000000
    11  C    6.656710   8.715680   1.511326   1.511326   2.516000
    12  C    9.071567  10.966990   3.865827   1.511326   5.032000
    13  C    3.865827   5.825409   2.516000   4.357840   1.511326
    14  C    6.345521   8.098559   2.516000   2.516000   2.935023
    15  C    8.845743  10.483246   4.357840   2.516000   5.254058
    16  C    2.935023   3.865827   5.032000   6.656710   3.865827
    17  C    5.254058   6.345521   4.357840   5.032000   3.865827
    18  C    7.697818   8.845743   5.032000   4.357840   5.254058
    19  C    3.865827   2.935023   7.548000   9.071567   6.345521
    20  C    5.254058   5.254058   6.656710   7.548000   5.825409
    21  C    7.275036   7.697818   6.656710   6.656710   6.345521
    22  C    2.516000   4.357840   3.865827   5.825409   2.516000
    23  C    7.548000   9.071567   3.865827   2.935023   4.357840
    24  C    2.516000   2.516000   6.345521   8.098559   5.032000
    25  C    4.357840   5.032000   5.254058   6.345521   4.357840
    26  C    6.656710   7.548000   5.254058   5.254058   5.032000
    27  C    4.357840   2.516000   8.845743  10.483246   7.548000
    28  C    5.032000   4.357840   7.697818   8.845743   6.656710
    29  C    6.656710   6.656710   7.275036   7.697818   6.656710
    30  H    5.394363   3.457875   9.699733  11.213211   8.459458
    31  H    5.952261   4.961594   8.665682   9.699733   7.674759
    32  H    7.377003   7.066713   8.292394   8.665682   7.674759
    33  H    8.292394   8.665682   7.377003   7.066713   7.184813
    34  H    8.665682   9.699733   5.952261   4.961594   6.241877
    35  H    9.699733  11.213211   5.394363   3.457875   6.241877
    36  H   10.068029  11.992851   4.671056   2.162524   5.952261
    37  H    8.512392  10.720266   2.734073   1.070000   4.163775
    38  H    6.388234   8.771691   1.070000   2.734073   2.162524
    39  H    4.671056   7.184813   2.734073   5.144504   2.162524
    40  H    2.734073   5.144504   4.671056   7.184813   3.457875
    41  H    1.070000   2.734073   6.388234   8.771691   4.961594
    42  H    2.759965   1.070000   8.480529  10.672516   7.052864
    43  H    4.521192   2.125469   9.888970  11.846418   8.519412
    44  Ru   5.032000   6.656710   2.935023   3.865827   2.516000
                   11         12         13         14         15
    11  C    0.000000
    12  C    2.516000   0.000000
    13  C    2.935023   5.254058   0.000000
    14  C    1.511326   2.935023   2.516000   0.000000
    15  C    2.935023   1.511326   5.032000   2.516000   0.000000
    16  C    5.254058   7.275036   2.516000   4.357840   6.656710
    17  C    3.865827   5.254058   2.516000   2.516000   4.357840
    18  C    3.865827   3.865827   4.357840   2.516000   2.516000
    19  C    7.697818   9.534552   5.032000   6.656710   8.715680
    20  C    6.345521   7.697818   4.357840   5.032000   6.656710
    21  C    5.825409   6.345521   5.032000   4.357840   5.032000
    22  C    4.357840   6.656710   1.511326   3.865827   6.345521
    23  C    2.516000   2.516000   3.865827   1.511326   1.511326
    24  C    6.656710   8.715680   3.865827   5.825409   8.098559
    25  C    5.032000   6.656710   2.935023   3.865827   5.825409
    26  C    4.357840   5.032000   3.865827   2.935023   3.865827
    27  C    9.071567  10.966990   6.345521   8.098559  10.176846
    28  C    7.548000   9.071567   5.254058   6.345521   8.098559
    29  C    6.656710   7.548000   5.254058   5.254058   6.345521
    30  H    9.842940  11.613139   7.184813   8.771691  10.720266
    31  H    8.459458   9.842940   6.241877   7.184813   8.771691
    32  H    7.674759   8.459458   6.241877   6.241877   7.184813
    33  H    6.388234   6.531313   5.952261   4.961594   5.144504
    34  H    4.671056   4.163775   5.394363   3.457875   2.734073
    35  H    3.935545   2.162524   5.952261   3.457875   1.070000
    36  H    3.457875   1.070000   6.241877   3.935545   2.162524
    37  H    2.162524   2.162524   4.961594   3.457875   3.457875
    38  H    2.162524   4.163775   3.457875   3.457875   4.961594
    39  H    4.163775   6.531313   3.457875   4.961594   7.066713
    40  H    5.952261   8.459458   3.935545   6.241877   8.665682
    41  H    7.377003   9.842940   4.671056   7.184813   9.699733
    42  H    9.240988  11.563276   6.334497   8.705103  11.139673
    43  H   10.430533  12.556757   7.519784   9.631344  11.901215
    44  Ru   2.516000   4.357840   1.511326   1.511326   3.865827
                   16         17         18         19         20
    16  C    0.000000
    17  C    2.516000   0.000000
    18  C    5.032000   2.516000   0.000000
    19  C    2.516000   4.357840   6.656710   0.000000
    20  C    2.516000   2.516000   4.357840   2.516000   0.000000
    21  C    4.357840   2.516000   2.516000   5.032000   2.516000
    22  C    1.511326   2.935023   5.254058   3.865827   3.865827
    23  C    5.254058   2.935023   1.511326   7.275036   5.254058
    24  C    1.511326   3.865827   6.345521   1.511326   2.935023
    25  C    1.511326   1.511326   3.865827   2.935023   1.511326
    26  C    3.865827   1.511326   1.511326   5.254058   2.935023
    27  C    3.865827   5.825409   8.098559   1.511326   3.865827
    28  C    2.935023   3.865827   5.825409   1.511326   1.511326
    29  C    3.865827   2.935023   3.865827   3.865827   1.511326
    30  H    4.671056   6.388234   8.512392   2.162524   4.163775
    31  H    3.935545   4.671056   6.388234   2.162524   2.162524
    32  H    4.671056   3.935545   4.671056   4.163775   2.162524
    33  H    5.394363   3.457875   2.734073   5.952261   3.457875
    34  H    5.952261   3.457875   1.070000   7.377003   4.961594
    35  H    7.377003   4.961594   2.734073   9.277471   7.066713
    36  H    8.292394   6.241877   4.671056  10.546425   8.665682
    37  H    7.377003   5.952261   5.394363   9.842940   8.459458
    38  H    5.952261   5.394363   5.952261   8.459458   7.674759
    39  H    5.394363   5.952261   7.377003   7.674759   7.674759
    40  H    4.671056   6.241877   8.292394   6.388234   7.184813
    41  H    3.935545   6.241877   8.665682   4.671056   6.241877
    42  H    4.581793   7.093345   9.607225   3.810554   6.124768
    43  H    5.288012   7.605817  10.019698   3.469800   5.966124
    44  Ru   2.935023   1.511326   2.935023   5.254058   3.865827
                   21         22         23         24         25
    21  C    0.000000
    22  C    5.254058   0.000000
    23  C    3.865827   5.032000   0.000000
    24  C    5.254058   2.516000   6.656710   0.000000
    25  C    2.935023   2.516000   4.357840   2.516000   0.000000
    26  C    1.511326   4.357840   2.516000   5.032000   2.516000
    27  C    6.345521   5.032000   8.715680   2.516000   4.357840
    28  C    3.865827   4.357840   6.656710   2.516000   2.516000
    29  C    1.511326   5.032000   5.032000   4.357840   2.516000
    30  H    6.531313   5.952261   9.277471   3.457875   4.961594
    31  H    4.163775   5.394363   7.377003   3.457875   3.457875
    32  H    2.162524   5.952261   5.952261   4.961594   3.457875
    33  H    1.070000   6.241877   4.163775   6.241877   3.935545
    34  H    2.734073   6.241877   2.162524   7.184813   4.671056
    35  H    5.144504   7.184813   2.162524   8.771691   6.388234
    36  H    7.184813   7.674759   3.457875   9.748587   7.674759
    37  H    7.674759   6.388234   3.935545   8.771691   7.184813
    38  H    7.674759   4.671056   4.671056   7.184813   6.241877
    39  H    8.459458   3.935545   6.388234   6.241877   6.241877
    40  H    8.665682   3.457875   7.674759   4.961594   5.952261
    41  H    8.292394   3.457875   8.459458   3.457875   5.394363
    42  H    8.553698   4.927435   9.776787   3.387750   5.871057
    43  H    8.474094   6.137267  10.492727   3.925841   6.242384
    44  Ru   3.865827   2.516000   2.516000   4.357840   2.516000
                   26         27         28         29         30
    26  C    0.000000
    27  C    6.656710   0.000000
    28  C    4.357840   2.516000   0.000000
    29  C    2.516000   5.032000   2.516000   0.000000
    30  H    7.066713   1.070000   2.734073   5.144504   0.000000
    31  H    4.961594   2.734073   1.070000   2.734073   2.516000
    32  H    3.457875   5.144504   2.734073   1.070000   5.032000
    33  H    2.162524   7.184813   4.671056   2.162524   7.289082
    34  H    2.162524   8.771691   6.388234   4.163775   9.106783
    35  H    4.163775  10.720266   8.512392   6.531313  11.198070
    36  H    5.952261  11.992851  10.068029   8.459458  12.621483
    37  H    6.241877  11.213211   9.699733   8.665682  11.994313
    38  H    6.241877   9.699733   8.665682   8.292394  10.593029
    39  H    7.184813   8.665682   8.292394   8.665682   9.655127
    40  H    7.674759   7.066713   7.377003   8.459458   8.087755
    41  H    7.674759   4.961594   5.952261   7.674759   5.967329
    42  H    8.373905   3.366689   5.291201   7.570966   4.183164
    43  H    8.670812   2.412245   4.800395   7.275244   2.727747
    44  Ru   2.516000   6.656710   5.032000   4.357840   7.377003
                   31         32         33         34         35
    31  H    0.000000
    32  H    2.516000   0.000000
    33  H    4.829902   2.487107   0.000000
    34  H    6.841087   4.829902   2.516000   0.000000
    35  H    9.106783   7.289082   5.032000   2.516000   0.000000
    36  H   10.809188   9.329297   7.289082   4.829902   2.487107
    37  H   10.593029   9.655127   8.087755   5.967329   4.297297
    38  H    9.655127   9.321547   8.360235   6.813297   5.967329
    39  H    9.321547   9.655127   9.329297   8.360235   8.087755
    40  H    8.360235   9.329297   9.655127   9.321547   9.655127
    41  H    6.813297   8.360235   9.321547   9.655127  10.593029
    42  H    5.844747   7.967671   9.549775  10.503867  11.921609
    43  H    4.966435   7.385855   9.385757  10.801690  12.566666
    44  Ru   5.952261   5.394363   4.671056   3.935545   4.671056
                   36         37         38         39         40
    36  H    0.000000
    37  H    2.487107   0.000000
    38  H    4.829902   2.516000   0.000000
    39  H    7.289082   5.032000   2.516000   0.000000
    40  H    9.329297   7.289082   4.829902   2.487107   0.000000
    41  H   10.809188   9.106783   6.841087   4.829902   2.516000
    42  H   12.565878  11.167850   9.096024   7.308552   5.069567
    43  H   13.565130  12.477920  10.637321   9.125087   7.051640
    44  Ru   5.394363   4.671056   3.935545   4.671056   5.394363
                   41         42         43         44
    41  H    0.000000
    42  H    2.562712   0.000000
    43  H    4.597995   2.138235   0.000000
    44  Ru   5.952261   7.321361   8.218967   0.000000
 Stoichiometry    C29H14Ru
 Framework group  C1[X(C29H14Ru)]
 Deg. of freedom   126
 Full point group                 C1      NOp   1
 Largest Abelian subgroup         C1      NOp   1
 Largest concise Abelian subgroup C1      NOp   1
                         Standard orientation:                         
 ---------------------------------------------------------------------
 Center     Atomic      Atomic             Coordinates (Angstroms)
 Number     Number       Type             X           Y           Z
 ---------------------------------------------------------------------
      1          6           0       -0.483467   -3.774029    0.236872
      2          6           0        0.967446   -3.772443   -0.186156
      3          6           0        1.694362   -2.514166    0.229098
      4          6           0        3.872191   -1.254302    0.221324
      5          6           0        6.050021    0.005561    0.213549
      6          6           0        3.145275   -2.512580   -0.193930
      7          6           0        5.323105   -1.252717   -0.201705
      8          6           0       -2.663441   -2.517893    0.246724
      9          6           0       -4.843414   -1.261758    0.256576
     10          6           0       -1.212527   -2.516308   -0.176304
     11          6           0       -3.392500   -1.260173   -0.166452
     12          6           0       -5.572474   -0.004037   -0.156600
     13          6           0       -0.485611   -1.258030    0.238950
     14          6           0       -2.665584   -0.001895    0.248802
     15          6           0       -4.845558    1.254240    0.258654
     16          6           0        1.692218    0.001833    0.231176
     17          6           0       -0.487755    1.257968    0.241027
     18          6           0       -2.667728    2.514103    0.250879
     19          6           0        3.870047    1.261696    0.223401
     20          6           0        1.690074    2.517831    0.233253
     21          6           0       -0.489899    3.773966    0.243105
     22          6           0        0.965302   -1.256445   -0.184078
     23          6           0       -3.394644    1.255826   -0.164375
     24          6           0        3.143131    0.003418   -0.191853
     25          6           0        0.963158    1.259554   -0.182001
     26          6           0       -1.216815    2.515689   -0.172149
     27          6           0        5.320961    1.263281   -0.199627
     28          6           0        3.140988    2.519417   -0.189775
     29          6           0        0.961014    3.775552   -0.179923
     30          1           0        5.835608    2.154126    0.094368
     31          1           0        3.655635    3.410262    0.104220
     32          1           0        1.475662    4.666397    0.114072
     33          1           0       -1.006065    4.664417   -0.049419
     34          1           0       -3.183894    3.404554   -0.041644
     35          1           0       -5.361723    2.144691   -0.033870
     36          1           0       -6.599703   -0.005160    0.142898
     37          1           0       -5.358061   -2.152603   -0.037419
     38          1           0       -3.178088   -3.408738   -0.047271
     39          1           0       -0.998115   -4.664874   -0.057123
     40          1           0        1.483612   -4.662894    0.106368
     41          1           0        3.661441   -3.403031    0.098593
     42          1           0        5.801539   -2.019762    0.370696
     43          1           0        6.950424   -0.252705    0.730727
     44         44           0       -1.214671   -0.000310   -0.174227
 ---------------------------------------------------------------------
 Rotational constants (GHZ):      0.2987651      0.1283156      0.0903940
 Standard basis: VSTO-6G (5D, 7F)
 There are   140 symmetry adapted cartesian basis functions of A   symmetry.
 There are   139 symmetry adapted basis functions of A   symmetry.
   139 basis functions,   840 primitive gaussians,   140 cartesian basis functions
    69 alpha electrons       69 beta electrons
       nuclear repulsion energy      1297.8763108500 Hartrees.
 Integral buffers will be    262144 words long.
 Regular integral format.
 Two-electron integral symmetry is turned off.
 Do NDO integrals.
 One-electron integrals computed using PRISM.
 NBasis=   139 RedAO= F EigKep=  0.00D+00  NBF=   139
 NBsUse=   139 1.00D-04 EigRej=  0.00D+00 NBFU=   139
 Simple Huckel Guess.
 Keep J ints in memory in canonical form, NReq=2092071.
 Gradient too large for Newton-Raphson -- use scaled steepest descent instead.
 Gradient too large for Newton-Raphson -- use scaled steepest descent instead.
     Accept linear search using points  4 and  5.
 Gradient too large for Newton-Raphson -- use scaled steepest descent instead.
     Accept linear search using points  1 and  2.
     Minimum is close to point  2 DX= -8.33D-02 DF= -4.00D-04 DXR=  8.19D-02 DFR=  7.85D-03 which will be used.
 Gradient too large for Newton-Raphson -- use scaled steepest descent instead.
     Accept linear search using points  1 and  2.
     Minimum is close to point  2 DX= -3.75D-02 DF= -4.02D-05 DXR=  3.22D-02 DFR=  1.38D-03 which will be used.
 Gradient too large for Newton-Raphson -- use scaled steepest descent instead.
 Gradient too large for Newton-Raphson -- use scaled steepest descent instead.
 Gradient too large for Newton-Raphson -- use scaled steepest descent instead.
     Accept linear search using points  1 and  2.
     Minimum is close to point  2 DX= -1.43D-02 DF= -2.23D-06 DXR=  1.11D-02 DFR=  1.91D-04 which will be used.
 Gradient too large for Newton-Raphson -- use scaled steepest descent instead.
     Minimum is close to point  2 DX=  7.15D-02 DF= -2.52D-05 DXR=  5.22D-02 DFR=  2.73D-03 which will be used.
 Gradient too large for Newton-Raphson -- use scaled steepest descent instead.
 Gradient too large for Newton-Raphson -- use scaled steepest descent instead.
     Accept linear search using points  1 and  2.
     Minimum is close to point  2 DX= -7.11D-02 DF= -2.70D-05 DXR=  5.35D-02 DFR=  4.67D-03 which will be used.
 Gradient too large for Newton-Raphson -- use scaled steepest descent instead.
     Accept linear search using points  1 and  2.
     Minimum is close to point  2 DX= -1.20D-01 DF= -6.16D-05 DXR=  9.35D-02 DFR=  1.38D-02 which will be used.
 Gradient too large for Newton-Raphson -- use scaled steepest descent instead.
     Accept linear search using points  1 and  2.
 Gradient too large for Newton-Raphson -- use scaled steepest descent instead.
 Gradient too large for Newton-Raphson -- use scaled steepest descent instead.
     Accept linear search using points  1 and  2.
     Minimum is close to point  2 DX= -2.88D-02 DF= -1.49D-06 DXR=  2.26D-02 DFR=  7.87D-04 which will be used.
 Gradient too large for Newton-Raphson -- use scaled steepest descent instead.
     Accept linear search using points  1 and  2.
     Minimum is close to point  2 DX= -2.89D-02 DF= -1.10D-06 DXR=  2.27D-02 DFR=  7.91D-04 which will be used.
 Gradient too large for Newton-Raphson -- use scaled steepest descent instead.
     Accept linear search using points  1 and  2.
     Minimum is close to point  2 DX= -4.45D-02 DF= -1.93D-06 DXR=  3.55D-02 DFR=  1.91D-03 which will be used.
 Gradient too large for Newton-Raphson -- use scaled steepest descent instead.
     Accept linear search using points  1 and  2.
     Minimum is close to point  2 DX= -7.52D-02 DF= -4.10D-06 DXR=  6.14D-02 DFR=  5.60D-03 which will be used.
 Gradient too large for Newton-Raphson -- use scaled steepest descent instead.
     Accept linear search using points  1 and  2.
     Minimum is close to point  2 DX= -6.06D-02 DF= -2.07D-06 DXR=  5.32D-02 DFR=  3.80D-03 which will be used.
 Gradient too large for Newton-Raphson -- use scaled steepest descent instead.
     Minimum is close to point  2 DX=  1.25D-03 DF= -4.25D-10 DXR=  1.04D-03 DFR=  1.09D-06 which will be used.
 Gradient too large for Newton-Raphson -- use scaled steepest descent instead.
     Minimum is close to point  2 DX=  1.02D-01 DF= -1.75D-06 DXR=  7.85D-02 DFR=  6.20D-03 which will be used.
 LinEq1:  Iter=  0 NonCon=     1 RMS=2.67D-04 Max=6.07D-03 NDo=     1
 AX will form     1 AO Fock derivatives at one time.
 LinEq1:  Iter=  1 NonCon=     1 RMS=1.78D-04 Max=4.63D-03 NDo=     1
 LinEq1:  Iter=  2 NonCon=     1 RMS=3.28D-05 Max=8.92D-04 NDo=     1
 LinEq1:  Iter=  3 NonCon=     1 RMS=1.34D-05 Max=4.63D-04 NDo=     1
 LinEq1:  Iter=  4 NonCon=     1 RMS=6.17D-06 Max=1.95D-04 NDo=     1
 LinEq1:  Iter=  5 NonCon=     1 RMS=1.67D-06 Max=2.96D-05 NDo=     1
 LinEq1:  Iter=  6 NonCon=     1 RMS=5.53D-07 Max=1.49D-05 NDo=     1
 LinEq1:  Iter=  7 NonCon=     1 RMS=1.57D-07 Max=2.87D-06 NDo=     1
 LinEq1:  Iter=  8 NonCon=     1 RMS=5.94D-08 Max=9.64D-07 NDo=     1
 LinEq1:  Iter=  9 NonCon=     1 RMS=2.58D-08 Max=3.24D-07 NDo=     1
 LinEq1:  Iter= 10 NonCon=     1 RMS=7.41D-09 Max=1.14D-07 NDo=     1
 LinEq1:  Iter= 11 NonCon=     0 RMS=2.08D-09 Max=5.19D-08 NDo=     1
 Linear equations converged to 9.829D-09 9.829D-08 after    11 iterations.
     Accept linear search using points  1 and  2.
     Minimum is close to point  2 DX= -2.66D-02 DF= -6.56D-07 DXR=  2.74D-02 DFR=  7.65D-04 which will be used.
 LinEq1:  Iter=  0 NonCon=     1 RMS=2.26D-05 Max=7.29D-04 NDo=     1
 LinEq1:  Iter=  1 NonCon=     1 RMS=1.21D-05 Max=4.21D-04 NDo=     1
 LinEq1:  Iter=  2 NonCon=     1 RMS=4.34D-06 Max=1.07D-04 NDo=     1
 LinEq1:  Iter=  3 NonCon=     1 RMS=1.45D-06 Max=2.98D-05 NDo=     1
 LinEq1:  Iter=  4 NonCon=     1 RMS=4.21D-07 Max=6.87D-06 NDo=     1
 LinEq1:  Iter=  5 NonCon=     1 RMS=1.50D-07 Max=3.21D-06 NDo=     1
 LinEq1:  Iter=  6 NonCon=     1 RMS=5.08D-08 Max=1.03D-06 NDo=     1
 LinEq1:  Iter=  7 NonCon=     1 RMS=1.69D-08 Max=4.39D-07 NDo=     1
 LinEq1:  Iter=  8 NonCon=     1 RMS=5.99D-09 Max=1.95D-07 NDo=     1
 LinEq1:  Iter=  9 NonCon=     0 RMS=2.39D-09 Max=5.03D-08 NDo=     1
 Linear equations converged to 8.173D-09 8.173D-08 after     9 iterations.
     Minimum is close to point  2 DX=  9.70D-04 DF= -2.73D-12 DXR=  9.69D-04 DFR=  9.38D-07 which will be used.
 LinEq1:  Iter=  0 NonCon=     1 RMS=1.31D-07 Max=2.80D-06 NDo=     1
 LinEq1:  Iter=  1 NonCon=     1 RMS=8.50D-08 Max=3.79D-06 NDo=     1
 LinEq1:  Iter=  2 NonCon=     1 RMS=3.15D-08 Max=7.66D-07 NDo=     1
 LinEq1:  Iter=  3 NonCon=     1 RMS=1.02D-08 Max=2.19D-07 NDo=     1
 LinEq1:  Iter=  4 NonCon=     1 RMS=3.23D-09 Max=5.95D-08 NDo=     1
 LinEq1:  Iter=  5 NonCon=     1 RMS=1.13D-09 Max=1.48D-08 NDo=     1
 LinEq1:  Iter=  6 NonCon=     1 RMS=4.36D-10 Max=9.37D-09 NDo=     1
 LinEq1:  Iter=  7 NonCon=     1 RMS=1.94D-10 Max=4.82D-09 NDo=     1
 LinEq1:  Iter=  8 NonCon=     1 RMS=8.33D-11 Max=1.72D-09 NDo=     1
 LinEq1:  Iter=  9 NonCon=     1 RMS=3.65D-11 Max=7.85D-10 NDo=     1
 LinEq1:  Iter= 10 NonCon=     0 RMS=9.51D-12 Max=1.99D-10 NDo=     1
 Linear equations converged to 5.566D-11 5.566D-10 after    10 iterations.
 SCF Done:  E(RPM6) =   1.44865490472     a.u. after   24 cycles
            Convg  =    0.2077D-06                    76 Fock formations.
              S**2 =  0.0000                  -V/T =  1.0153

 **********************************************************************

            Population analysis using the SCF density.

 **********************************************************************

 Orbital symmetries:
       Occupied  (A) (A) (A) (A) (A) (A) (A) (A) (A) (A) (A) (A)
                 (A) (A) (A) (A) (A) (A) (A) (A) (A) (A) (A) (A)
                 (A) (A) (A) (A) (A) (A) (A) (A) (A) (A) (A) (A)
                 (A) (A) (A) (A) (A) (A) (A) (A) (A) (A) (A) (A)
                 (A) (A) (A) (A) (A) (A) (A) (A) (A) (A) (A) (A)
                 (A) (A) (A) (A) (A) (A) (A) (A) (A)
       Virtual   (A) (A) (A) (A) (A) (A) (A) (A) (A) (A) (A) (A)
                 (A) (A) (A) (A) (A) (A) (A) (A) (A) (A) (A) (A)
                 (A) (A) (A) (A) (A) (A) (A) (A) (A) (A) (A) (A)
                 (A) (A) (A) (A) (A) (A) (A) (A) (A) (A) (A) (A)
                 (A) (A) (A) (A) (A) (A) (A) (A) (A) (A) (A) (A)
                 (A) (A) (A) (A) (A) (A) (A) (A) (A) (A)
 The electronic state is 1-A.
 Alpha  occ. eigenvalues --   -1.23012  -1.01378  -1.00582  -0.99515  -0.97389
 Alpha  occ. eigenvalues --   -0.96209  -0.95005  -0.93373  -0.89411  -0.87525
 Alpha  occ. eigenvalues --   -0.87245  -0.86650  -0.83622  -0.82127  -0.81050
 Alpha  occ. eigenvalues --   -0.76214  -0.74742  -0.72775  -0.72579  -0.69990
 Alpha  occ. eigenvalues --   -0.69473  -0.67354  -0.65649  -0.63180  -0.61721
 Alpha  occ. eigenvalues --   -0.57225  -0.56873  -0.56647  -0.54656  -0.53072
 Alpha  occ. eigenvalues --   -0.52369  -0.52188  -0.50438  -0.49663  -0.49262
 Alpha  occ. eigenvalues --   -0.48597  -0.47226  -0.47012  -0.46740  -0.46232
 Alpha  occ. eigenvalues --   -0.45914  -0.45353  -0.44738  -0.43627  -0.43560
 Alpha  occ. eigenvalues --   -0.43046  -0.42478  -0.41711  -0.41253  -0.41030
 Alpha  occ. eigenvalues --   -0.40082  -0.39950  -0.39327  -0.38545  -0.38171
 Alpha  occ. eigenvalues --   -0.37671  -0.36288  -0.36014  -0.35651  -0.35546
 Alpha  occ. eigenvalues --   -0.33482  -0.33340  -0.32003  -0.31428  -0.29464
 Alpha  occ. eigenvalues --   -0.28838  -0.26469  -0.22861  -0.22134
 Alpha virt. eigenvalues --   -0.06194  -0.05432  -0.02024  -0.01342   0.00656
 Alpha virt. eigenvalues --    0.01130   0.01629   0.02268   0.02338   0.04084
 Alpha virt. eigenvalues --    0.04156   0.05037   0.05612   0.06840   0.07229
 Alpha virt. eigenvalues --    0.07733   0.09569   0.10544   0.13041   0.13140
 Alpha virt. eigenvalues --    0.14703   0.14754   0.15258   0.15785   0.15855
 Alpha virt. eigenvalues --    0.16363   0.16890   0.16965   0.17215   0.17331
 Alpha virt. eigenvalues --    0.17487   0.17920   0.17962   0.18088   0.18399
 Alpha virt. eigenvalues --    0.18493   0.18873   0.18883   0.19126   0.19228
 Alpha virt. eigenvalues --    0.19239   0.19484   0.19527   0.19775   0.19854
 Alpha virt. eigenvalues --    0.20046   0.20252   0.20628   0.20830   0.21192
 Alpha virt. eigenvalues --    0.21228   0.21451   0.22077   0.22140   0.22717
 Alpha virt. eigenvalues --    0.22809   0.23021   0.23030   0.23501   0.23631
 Alpha virt. eigenvalues --    0.23738   0.23755   0.24226   0.24303   0.25122
 Alpha virt. eigenvalues --    0.25279   0.26565   0.26646   0.26741   0.27404
          Condensed to atoms (all electrons):
               1          2          3          4          5          6
     1  C    4.160530   0.000000   0.000000   0.000000   0.000000   0.000000
     2  C    0.000000   4.139462   0.000000   0.000000   0.000000   0.000000
     3  C    0.000000   0.000000   3.960708   0.000000   0.000000   0.000000
     4  C    0.000000   0.000000   0.000000   3.956197   0.000000   0.000000
     5  C    0.000000   0.000000   0.000000   0.000000   4.095969   0.000000
     6  C    0.000000   0.000000   0.000000   0.000000   0.000000   4.247054
     7  C    0.000000   0.000000   0.000000   0.000000   0.000000   0.000000
     8  C    0.000000   0.000000   0.000000   0.000000   0.000000   0.000000
     9  C    0.000000   0.000000   0.000000   0.000000   0.000000   0.000000
    10  C    0.000000   0.000000   0.000000   0.000000   0.000000   0.000000
    11  C    0.000000   0.000000   0.000000   0.000000   0.000000   0.000000
    12  C    0.000000   0.000000   0.000000   0.000000   0.000000   0.000000
    13  C    0.000000   0.000000   0.000000   0.000000   0.000000   0.000000
    14  C    0.000000   0.000000   0.000000   0.000000   0.000000   0.000000
    15  C    0.000000   0.000000   0.000000   0.000000   0.000000   0.000000
    16  C    0.000000   0.000000   0.000000   0.000000   0.000000   0.000000
    17  C    0.000000   0.000000   0.000000   0.000000   0.000000   0.000000
    18  C    0.000000   0.000000   0.000000   0.000000   0.000000   0.000000
    19  C    0.000000   0.000000   0.000000   0.000000   0.000000   0.000000
    20  C    0.000000   0.000000   0.000000   0.000000   0.000000   0.000000
    21  C    0.000000   0.000000   0.000000   0.000000   0.000000   0.000000
    22  C    0.000000   0.000000   0.000000   0.000000   0.000000   0.000000
    23  C    0.000000   0.000000   0.000000   0.000000   0.000000   0.000000
    24  C    0.000000   0.000000   0.000000   0.000000   0.000000   0.000000
    25  C    0.000000   0.000000   0.000000   0.000000   0.000000   0.000000
    26  C    0.000000   0.000000   0.000000   0.000000   0.000000   0.000000
    27  C    0.000000   0.000000   0.000000   0.000000   0.000000   0.000000
    28  C    0.000000   0.000000   0.000000   0.000000   0.000000   0.000000
    29  C    0.000000   0.000000   0.000000   0.000000   0.000000   0.000000
    30  H    0.000000   0.000000   0.000000   0.000000   0.000000   0.000000
    31  H    0.000000   0.000000   0.000000   0.000000   0.000000   0.000000
    32  H    0.000000   0.000000   0.000000   0.000000   0.000000   0.000000
    33  H    0.000000   0.000000   0.000000   0.000000   0.000000   0.000000
    34  H    0.000000   0.000000   0.000000   0.000000   0.000000   0.000000
    35  H    0.000000   0.000000   0.000000   0.000000   0.000000   0.000000
    36  H    0.000000   0.000000   0.000000   0.000000   0.000000   0.000000
    37  H    0.000000   0.000000   0.000000   0.000000   0.000000   0.000000
    38  H    0.000000   0.000000   0.000000   0.000000   0.000000   0.000000
    39  H    0.000000   0.000000   0.000000   0.000000   0.000000   0.000000
    40  H    0.000000   0.000000   0.000000   0.000000   0.000000   0.000000
    41  H    0.000000   0.000000   0.000000   0.000000   0.000000   0.000000
    42  H    0.000000   0.000000   0.000000   0.000000   0.000000   0.000000
    43  H    0.000000   0.000000   0.000000   0.000000   0.000000   0.000000
    44  Ru   0.000000   0.000000   0.000000   0.000000   0.000000   0.000000
               7          8          9         10         11         12
     1  C    0.000000   0.000000   0.000000   0.000000   0.000000   0.000000
     2  C    0.000000   0.000000   0.000000   0.000000   0.000000   0.000000
     3  C    0.000000   0.000000   0.000000   0.000000   0.000000   0.000000
     4  C    0.000000   0.000000   0.000000   0.000000   0.000000   0.000000
     5  C    0.000000   0.000000   0.000000   0.000000   0.000000   0.000000
     6  C    0.000000   0.000000   0.000000   0.000000   0.000000   0.000000
     7  C    4.252637   0.000000   0.000000   0.000000   0.000000   0.000000
     8  C    0.000000   4.175068   0.000000   0.000000   0.000000   0.000000
     9  C    0.000000   0.000000   4.021892   0.000000   0.000000   0.000000
    10  C    0.000000   0.000000   0.000000   4.057120   0.000000   0.000000
    11  C    0.000000   0.000000   0.000000   0.000000   4.181261   0.000000
    12  C    0.000000   0.000000   0.000000   0.000000   0.000000   4.319966
    13  C    0.000000   0.000000   0.000000   0.000000   0.000000   0.000000
    14  C    0.000000   0.000000   0.000000   0.000000   0.000000   0.000000
    15  C    0.000000   0.000000   0.000000   0.000000   0.000000   0.000000
    16  C    0.000000   0.000000   0.000000   0.000000   0.000000   0.000000
    17  C    0.000000   0.000000   0.000000   0.000000   0.000000   0.000000
    18  C    0.000000   0.000000   0.000000   0.000000   0.000000   0.000000
    19  C    0.000000   0.000000   0.000000   0.000000   0.000000   0.000000
    20  C    0.000000   0.000000   0.000000   0.000000   0.000000   0.000000
    21  C    0.000000   0.000000   0.000000   0.000000   0.000000   0.000000
    22  C    0.000000   0.000000   0.000000   0.000000   0.000000   0.000000
    23  C    0.000000   0.000000   0.000000   0.000000   0.000000   0.000000
    24  C    0.000000   0.000000   0.000000   0.000000   0.000000   0.000000
    25  C    0.000000   0.000000   0.000000   0.000000   0.000000   0.000000
    26  C    0.000000   0.000000   0.000000   0.000000   0.000000   0.000000
    27  C    0.000000   0.000000   0.000000   0.000000   0.000000   0.000000
    28  C    0.000000   0.000000   0.000000   0.000000   0.000000   0.000000
    29  C    0.000000   0.000000   0.000000   0.000000   0.000000   0.000000
    30  H    0.000000   0.000000   0.000000   0.000000   0.000000   0.000000
    31  H    0.000000   0.000000   0.000000   0.000000   0.000000   0.000000
    32  H    0.000000   0.000000   0.000000   0.000000   0.000000   0.000000
    33  H    0.000000   0.000000   0.000000   0.000000   0.000000   0.000000
    34  H    0.000000   0.000000   0.000000   0.000000   0.000000   0.000000
    35  H    0.000000   0.000000   0.000000   0.000000   0.000000   0.000000
    36  H    0.000000   0.000000   0.000000   0.000000   0.000000   0.000000
    37  H    0.000000   0.000000   0.000000   0.000000   0.000000   0.000000
    38  H    0.000000   0.000000   0.000000   0.000000   0.000000   0.000000
    39  H    0.000000   0.000000   0.000000   0.000000   0.000000   0.000000
    40  H    0.000000   0.000000   0.000000   0.000000   0.000000   0.000000
    41  H    0.000000   0.000000   0.000000   0.000000   0.000000   0.000000
    42  H    0.000000   0.000000   0.000000   0.000000   0.000000   0.000000
    43  H    0.000000   0.000000   0.000000   0.000000   0.000000   0.000000
    44  Ru   0.000000   0.000000   0.000000   0.000000   0.000000   0.000000
              13         14         15         16         17         18
     1  C    0.000000   0.000000   0.000000   0.000000   0.000000   0.000000
     2  C    0.000000   0.000000   0.000000   0.000000   0.000000   0.000000
     3  C    0.000000   0.000000   0.000000   0.000000   0.000000   0.000000
     4  C    0.000000   0.000000   0.000000   0.000000   0.000000   0.000000
     5  C    0.000000   0.000000   0.000000   0.000000   0.000000   0.000000
     6  C    0.000000   0.000000   0.000000   0.000000   0.000000   0.000000
     7  C    0.000000   0.000000   0.000000   0.000000   0.000000   0.000000
     8  C    0.000000   0.000000   0.000000   0.000000   0.000000   0.000000
     9  C    0.000000   0.000000   0.000000   0.000000   0.000000   0.000000
    10  C    0.000000   0.000000   0.000000   0.000000   0.000000   0.000000
    11  C    0.000000   0.000000   0.000000   0.000000   0.000000   0.000000
    12  C    0.000000   0.000000   0.000000   0.000000   0.000000   0.000000
    13  C    4.627706   0.000000   0.000000   0.000000   0.000000   0.000000
    14  C    0.000000   4.555875   0.000000   0.000000   0.000000   0.000000
    15  C    0.000000   0.000000   4.021497   0.000000   0.000000   0.000000
    16  C    0.000000   0.000000   0.000000   4.010683   0.000000   0.000000
    17  C    0.000000   0.000000   0.000000   0.000000   4.623567   0.000000
    18  C    0.000000   0.000000   0.000000   0.000000   0.000000   4.172935
    19  C    0.000000   0.000000   0.000000   0.000000   0.000000   0.000000
    20  C    0.000000   0.000000   0.000000   0.000000   0.000000   0.000000
    21  C    0.000000   0.000000   0.000000   0.000000   0.000000   0.000000
    22  C    0.000000   0.000000   0.000000   0.000000   0.000000   0.000000
    23  C    0.000000   0.000000   0.000000   0.000000   0.000000   0.000000
    24  C    0.000000   0.000000   0.000000   0.000000   0.000000   0.000000
    25  C    0.000000   0.000000   0.000000   0.000000   0.000000   0.000000
    26  C    0.000000   0.000000   0.000000   0.000000   0.000000   0.000000
    27  C    0.000000   0.000000   0.000000   0.000000   0.000000   0.000000
    28  C    0.000000   0.000000   0.000000   0.000000   0.000000   0.000000
    29  C    0.000000   0.000000   0.000000   0.000000   0.000000   0.000000
    30  H    0.000000   0.000000   0.000000   0.000000   0.000000   0.000000
    31  H    0.000000   0.000000   0.000000   0.000000   0.000000   0.000000
    32  H    0.000000   0.000000   0.000000   0.000000   0.000000   0.000000
    33  H    0.000000   0.000000   0.000000   0.000000   0.000000   0.000000
    34  H    0.000000   0.000000   0.000000   0.000000   0.000000   0.000000
    35  H    0.000000   0.000000   0.000000   0.000000   0.000000   0.000000
    36  H    0.000000   0.000000   0.000000   0.000000   0.000000   0.000000
    37  H    0.000000   0.000000   0.000000   0.000000   0.000000   0.000000
    38  H    0.000000   0.000000   0.000000   0.000000   0.000000   0.000000
    39  H    0.000000   0.000000   0.000000   0.000000   0.000000   0.000000
    40  H    0.000000   0.000000   0.000000   0.000000   0.000000   0.000000
    41  H    0.000000   0.000000   0.000000   0.000000   0.000000   0.000000
    42  H    0.000000   0.000000   0.000000   0.000000   0.000000   0.000000
    43  H    0.000000   0.000000   0.000000   0.000000   0.000000   0.000000
    44  Ru   0.000000   0.000000   0.000000   0.000000   0.000000   0.000000
              19         20         21         22         23         24
     1  C    0.000000   0.000000   0.000000   0.000000   0.000000   0.000000
     2  C    0.000000   0.000000   0.000000   0.000000   0.000000   0.000000
     3  C    0.000000   0.000000   0.000000   0.000000   0.000000   0.000000
     4  C    0.000000   0.000000   0.000000   0.000000   0.000000   0.000000
     5  C    0.000000   0.000000   0.000000   0.000000   0.000000   0.000000
     6  C    0.000000   0.000000   0.000000   0.000000   0.000000   0.000000
     7  C    0.000000   0.000000   0.000000   0.000000   0.000000   0.000000
     8  C    0.000000   0.000000   0.000000   0.000000   0.000000   0.000000
     9  C    0.000000   0.000000   0.000000   0.000000   0.000000   0.000000
    10  C    0.000000   0.000000   0.000000   0.000000   0.000000   0.000000
    11  C    0.000000   0.000000   0.000000   0.000000   0.000000   0.000000
    12  C    0.000000   0.000000   0.000000   0.000000   0.000000   0.000000
    13  C    0.000000   0.000000   0.000000   0.000000   0.000000   0.000000
    14  C    0.000000   0.000000   0.000000   0.000000   0.000000   0.000000
    15  C    0.000000   0.000000   0.000000   0.000000   0.000000   0.000000
    16  C    0.000000   0.000000   0.000000   0.000000   0.000000   0.000000
    17  C    0.000000   0.000000   0.000000   0.000000   0.000000   0.000000
    18  C    0.000000   0.000000   0.000000   0.000000   0.000000   0.000000
    19  C    3.952660   0.000000   0.000000   0.000000   0.000000   0.000000
    20  C    0.000000   3.953999   0.000000   0.000000   0.000000   0.000000
    21  C    0.000000   0.000000   4.159615   0.000000   0.000000   0.000000
    22  C    0.000000   0.000000   0.000000   4.155458   0.000000   0.000000
    23  C    0.000000   0.000000   0.000000   0.000000   4.183149   0.000000
    24  C    0.000000   0.000000   0.000000   0.000000   0.000000   3.980719
    25  C    0.000000   0.000000   0.000000   0.000000   0.000000   0.000000
    26  C    0.000000   0.000000   0.000000   0.000000   0.000000   0.000000
    27  C    0.000000   0.000000   0.000000   0.000000   0.000000   0.000000
    28  C    0.000000   0.000000   0.000000   0.000000   0.000000   0.000000
    29  C    0.000000   0.000000   0.000000   0.000000   0.000000   0.000000
    30  H    0.000000   0.000000   0.000000   0.000000   0.000000   0.000000
    31  H    0.000000   0.000000   0.000000   0.000000   0.000000   0.000000
    32  H    0.000000   0.000000   0.000000   0.000000   0.000000   0.000000
    33  H    0.000000   0.000000   0.000000   0.000000   0.000000   0.000000
    34  H    0.000000   0.000000   0.000000   0.000000   0.000000   0.000000
    35  H    0.000000   0.000000   0.000000   0.000000   0.000000   0.000000
    36  H    0.000000   0.000000   0.000000   0.000000   0.000000   0.000000
    37  H    0.000000   0.000000   0.000000   0.000000   0.000000   0.000000
    38  H    0.000000   0.000000   0.000000   0.000000   0.000000   0.000000
    39  H    0.000000   0.000000   0.000000   0.000000   0.000000   0.000000
    40  H    0.000000   0.000000   0.000000   0.000000   0.000000   0.000000
    41  H    0.000000   0.000000   0.000000   0.000000   0.000000   0.000000
    42  H    0.000000   0.000000   0.000000   0.000000   0.000000   0.000000
    43  H    0.000000   0.000000   0.000000   0.000000   0.000000   0.000000
    44  Ru   0.000000   0.000000   0.000000   0.000000   0.000000   0.000000
              25         26         27         28         29         30
     1  C    0.000000   0.000000   0.000000   0.000000   0.000000   0.000000
     2  C    0.000000   0.000000   0.000000   0.000000   0.000000   0.000000
     3  C    0.000000   0.000000   0.000000   0.000000   0.000000   0.000000
     4  C    0.000000   0.000000   0.000000   0.000000   0.000000   0.000000
     5  C    0.000000   0.000000   0.000000   0.000000   0.000000   0.000000
     6  C    0.000000   0.000000   0.000000   0.000000   0.000000   0.000000
     7  C    0.000000   0.000000   0.000000   0.000000   0.000000   0.000000
     8  C    0.000000   0.000000   0.000000   0.000000   0.000000   0.000000
     9  C    0.000000   0.000000   0.000000   0.000000   0.000000   0.000000
    10  C    0.000000   0.000000   0.000000   0.000000   0.000000   0.000000
    11  C    0.000000   0.000000   0.000000   0.000000   0.000000   0.000000
    12  C    0.000000   0.000000   0.000000   0.000000   0.000000   0.000000
    13  C    0.000000   0.000000   0.000000   0.000000   0.000000   0.000000
    14  C    0.000000   0.000000   0.000000   0.000000   0.000000   0.000000
    15  C    0.000000   0.000000   0.000000   0.000000   0.000000   0.000000
    16  C    0.000000   0.000000   0.000000   0.000000   0.000000   0.000000
    17  C    0.000000   0.000000   0.000000   0.000000   0.000000   0.000000
    18  C    0.000000   0.000000   0.000000   0.000000   0.000000   0.000000
    19  C    0.000000   0.000000   0.000000   0.000000   0.000000   0.000000
    20  C    0.000000   0.000000   0.000000   0.000000   0.000000   0.000000
    21  C    0.000000   0.000000   0.000000   0.000000   0.000000   0.000000
    22  C    0.000000   0.000000   0.000000   0.000000   0.000000   0.000000
    23  C    0.000000   0.000000   0.000000   0.000000   0.000000   0.000000
    24  C    0.000000   0.000000   0.000000   0.000000   0.000000   0.000000
    25  C    4.162134   0.000000   0.000000   0.000000   0.000000   0.000000
    26  C    0.000000   4.059729   0.000000   0.000000   0.000000   0.000000
    27  C    0.000000   0.000000   4.226012   0.000000   0.000000   0.000000
    28  C    0.000000   0.000000   0.000000   4.258044   0.000000   0.000000
    29  C    0.000000   0.000000   0.000000   0.000000   4.140669   0.000000
    30  H    0.000000   0.000000   0.000000   0.000000   0.000000   0.883718
    31  H    0.000000   0.000000   0.000000   0.000000   0.000000   0.000000
    32  H    0.000000   0.000000   0.000000   0.000000   0.000000   0.000000
    33  H    0.000000   0.000000   0.000000   0.000000   0.000000   0.000000
    34  H    0.000000   0.000000   0.000000   0.000000   0.000000   0.000000
[...]
 510,0.00012250,-0.00026450,-0.00255492,0.00413317,-0.02807835,0.025972
 53,0.00001220,0.00007499,0.00003400,-0.00130776,0.00088009,0.00007265,
 -0.00640179,0.02837222,-0.00709799,-0.00634285,-0.02748608,0.00278404,
 -0.00006107,-0.00027718,0.00002070,-0.03408580,0.00263964,0.00063455,-
 0.00145924,-0.00081222,0.00004212,-0.00007468,0.00005990,0.00004024,-0
 .00004745,0.00005859,0.00003656,0.00009317,-0.00002991,-0.00004180,0.0
 0001936,-0.00008012,-0.00002287,-0.00005139,-0.00008452,0.00000368,0.0
 0011602,0.00032528,-0.00007956,0.00004413,-0.00004124,-0.00005183,0.00
 007812,-0.00000480,-0.00003704,-0.00036511,-0.00011251,-0.00009209,0.0
 0017982,-0.00008292,0.00009079,0.00006812,0.00001468,0.00000013,0.0003
 0701,-0.00062815,0.00012852,0.00014352,0.00000906,0.00003463,0.0000161
 1,0.00000667,-0.00000658,-0.00186281,0.00112153,-0.00145692,-0.0000539
 4,0.00004289,0.00004653,-0.00225337,-0.00133414,-0.00052965,-0.0001992
 8,0.00011427,0.00000695,-0.00006536,0.00004918,0.00001998,-0.00019643,
 0.00032032,-0.00005791,-0.00019294,0.00009542,-0.00005995,-0.00000380,
 0.00000256,0.00000687,0.00000592,0.00000581,-0.00000259,0.00001121,-0.
 00002078,-0.00000036,-0.00000021,0.00000083,-0.00000085,0.00000033,-0.
 00000392,-0.00000297,-0.00000103,-0.00001075,-0.00000474,0.00000102,0.
 00000316,0.00000057,0.00000091,-0.00000034,-0.00000164,0.00000256,0.00
 000783,-0.00000152,-0.00001377,0.00001126,0.00000337,-0.00003111,-0.00
 003984,-0.00004810,-0.00093903,-0.00012711,-0.00021938,0.05596834,-0.0
 0028277,-0.00032517,-0.00008900,0.00079171,-0.00012224,-0.00031119,0.0
 1656619,-0.02692652,0.00849079,-0.01575191,-0.02459924,0.00288358,0.00
 004611,-0.00035801,0.00003354,0.00227192,-0.21370209,0.03170186,-0.000
 19045,-0.00042650,-0.00006710,0.00010297,-0.00041799,-0.00002212,0.000
 10610,-0.00020698,-0.00010540,-0.00048158,0.00016859,0.00022295,-0.000
 13481,0.00018734,0.00009918,0.00011602,0.00023839,0.00000093,0.0005831
 8,-0.00059750,0.00038339,-0.00015272,0.00014932,0.00018820,-0.00019565
 ,0.00004443,0.00009463,-0.00077841,-0.00023691,-0.00016911,0.00031367,
 -0.00004537,0.00021519,-0.00003509,0.00005211,0.00002821,0.00005312,-0
 .00019699,-0.00001414,-0.00006050,0.00002820,0.00002009,-0.00004050,-0
 .00000049,0.00000447,0.00097449,0.00102995,0.00104101,0.00009102,-0.00
 007762,-0.00008491,-0.00092162,-0.00060343,0.00031018,-0.00014904,0.00
 040835,-0.00021290,-0.00000863,-0.00004057,-0.00001216,0.00000089,0.00
 005922,-0.00002226,0.00007211,-0.00000619,0.00002391,0.00008093,0.0000
 0836,0.00001262,-0.00002457,-0.00000816,0.00000399,-0.00003597,-0.0000
 2136,-0.00000659,-0.00003082,-0.00001735,-0.00000594,0.00000088,-0.000
 01247,0.00000068,-0.00000714,-0.00003563,-0.00000664,0.00000454,-0.000
 06625,-0.00001581,0.00003876,-0.00002024,-0.00002161,0.00006035,0.0000
 1820,-0.00001839,0.00011617,0.00007093,-0.00004061,0.00009611,0.000157
 21,0.00001861,0.00000260,0.00050266,0.00001540,-0.00312836,0.26530372,
 0.00011569,0.00003968,-0.00003263,0.00005290,-0.00035203,-0.00248704,-
 0.00545775,0.01079417,0.00303556,0.00011002,0.00076812,0.00667573,-0.0
 0003878,-0.00002242,-0.00005747,0.00135944,0.03161607,-0.04529095,0.00
 001409,-0.00022841,-0.00087797,-0.00001863,-0.00000288,0.00003489,-0.0
 0000587,0.00001706,-0.00000765,0.00003544,0.00013271,0.00004159,0.0000
 1809,-0.00002699,-0.00001274,0.00000279,-0.00000536,-0.00001148,0.0002
 1398,-0.00014866,0.00012323,-0.00005565,-0.00004322,0.00005021,-0.0000
 0434,-0.00000894,-0.00000043,0.00065367,0.00036950,0.00031679,-0.00020
 756,0.00006436,-0.00003417,-0.00003064,-0.00001403,-0.00001098,0.00012
 971,-0.00002565,-0.00016230,0.00000994,0.00000805,0.00003139,0.0000041
 8,-0.00000556,-0.00000204,-0.00211856,0.00096758,0.00594625,0.00002396
 ,-0.00000992,-0.00001401,-0.00074380,0.00046302,0.00182449,0.00023988,
 -0.00034094,-0.00046208,0.00002118,-0.00005902,0.00002260,-0.00001201,
 0.00005847,-0.00011638,-0.00004003,-0.00003840,0.00000669,-0.00001313,
 -0.00001177,-0.00002230,-0.00000456,0.00000601,0.00004825,0.00000568,0
 .00000379,0.00003108,0.00000332,0.00000137,0.00000828,-0.00000117,0.00
 000161,0.00000483,0.00000030,0.00001298,0.00000019,0.00000027,0.000008
 80,0.00000205,-0.00000556,0.00000268,0.00000904,-0.00000534,-0.0000080
 8,0.00001259,-0.00001521,-0.00000341,-0.00000664,-0.00003722,-0.000002
 79,0.00025099,-0.00023009,-0.00005829,0.00039144,0.00610698,-0.0440387
 2,0.03054295,0.00001054,0.00004414,0.00001664,0.00002448,-0.00007335,-
 0.00000177,-0.00005506,0.00024246,-0.00005614,-0.00597939,0.02785821,-
 0.00575219,-0.00680827,-0.02872590,0.00134370,-0.00127077,0.00073936,-
 0.00000234,-0.03448552,-0.00032917,0.00122318,-0.00002951,0.00006928,0
 .00001416,-0.00002733,0.00004605,0.00002539,0.00007457,-0.00003588,-0.
 00003826,0.00002557,-0.00004411,-0.00001907,-0.00003397,-0.00005864,0.
 00000278,-0.00002985,0.00002191,-0.00002529,0.00002427,-0.00003428,-0.
 00003682,0.00005350,-0.00000921,-0.00002496,0.00031056,0.00044968,0.00
 000946,0.00006763,-0.00001170,0.00000614,0.00003765,-0.00000335,-0.000
 00606,-0.00005768,-0.00000389,-0.00005444,0.00000018,-0.00002660,0.000
 00109,0.00001348,0.00000615,-0.00000403,-0.00012696,-0.00020263,0.0000
 2718,-0.00003666,0.00001801,0.00002680,-0.00218225,0.00101326,-0.00143
 909,-0.00013743,0.00007572,-0.00002566,-0.00003443,0.00003619,0.000013
 16,-0.00225371,-0.00133903,-0.00123198,-0.00004072,0.00002898,0.000142
 95,-0.00001323,0.00000798,-0.00001824,0.00004242,-0.00041883,0.0000551
 5,0.00000340,0.00000436,-0.00000741,0.00000557,0.00000331,0.00000093,-
 0.00000071,-0.00000078,0.00000176,0.00000040,0.00000358,-0.00000174,-0
 .00000039,0.00001071,0.00000194,-0.00000458,0.00000266,0.00000166,-0.0
 0000693,0.00000045,0.00000141,-0.00001807,-0.00000602,0.00000406,-0.00
 002144,-0.00001778,0.00000240,-0.00002701,0.00001805,-0.00001457,-0.00
 095628,-0.00009807,-0.00018114,0.05437108,-0.00005433,-0.00005297,-0.0
 0001950,0.00004012,-0.00006197,0.00002695,0.00010011,-0.00056897,0.000
 15226,0.01556700,-0.02431783,0.00672046,-0.01580468,-0.02848771,0.0012
 3510,-0.00012853,-0.00040211,-0.00021649,-0.00040867,-0.21706529,0.022
 53539,-0.00000364,-0.00012452,0.00001272,-0.00003434,0.00000764,0.0000
 1446,-0.00014569,0.00006085,0.00005390,-0.00000096,0.00002605,-0.00000
 532,-0.00004423,-0.00003616,0.00000337,0.00031174,-0.00027896,0.000226
 04,-0.00012660,0.00005618,0.00012385,0.00005675,0.00001635,-0.00002421
 ,-0.00029550,0.00013780,-0.00011963,0.00042060,-0.00013978,0.00023993,
 0.00018629,0.00006073,-0.00000787,0.00040517,-0.00070707,0.00012843,0.
 00071365,0.00003588,0.00017160,0.00005922,0.00007587,-0.00003443,-0.00
 024736,0.00034427,-0.00017927,-0.00009145,-0.00000306,0.00002927,0.001
 49181,-0.00073222,0.00107109,-0.00049053,-0.00018725,-0.00016927,-0.00
 019505,0.00014557,0.00008274,-0.00205301,0.00079452,0.00016347,-0.0003
 7472,0.00076154,-0.00024064,-0.00000635,-0.00001855,0.00001959,-0.0000
 2358,-0.00021166,-0.00000526,-0.00002602,-0.00000566,0.00000117,-0.000
 04044,-0.00001884,-0.00000078,-0.00001188,-0.00006688,-0.00000906,-0.0
 0000038,-0.00006785,-0.00001627,0.00000927,-0.00004688,-0.00001258,0.0
 0003249,-0.00001813,-0.00001845,0.00005016,0.00002243,-0.00001408,0.00
 005188,0.00003783,-0.00001513,0.00003948,0.00004129,-0.00000965,-0.000
 04003,0.00012441,-0.00001483,0.00004015,0.00046470,-0.00000851,0.00158
 349,0.26992535,0.00000262,0.00003167,0.00000720,0.00001004,0.00001325,
 0.00006219,-0.00013118,0.00022387,0.00000150,-0.00494005,0.00954016,0.
 00362842,-0.00084960,-0.00173804,0.00545625,0.00029922,-0.00008126,-0.
 00170195,0.00221024,0.02253254,-0.04236657,-0.00002096,0.00006391,0.00
 000171,-0.00001269,0.00003169,0.00001240,0.00007869,-0.00003119,-0.000
 03482,0.00002295,-0.00003072,-0.00002377,-0.00001272,-0.00002904,-0.00
 000569,-0.00014469,0.00008548,-0.00001322,-0.00000782,-0.00000911,0.00
 001136,0.00002092,-0.00000739,-0.00001134,0.00007394,0.00002286,-0.000
 05161,0.00003106,-0.00001850,0.00008422,0.00000969,-0.00001239,-0.0000
 0663,0.00042404,-0.00005252,0.00038701,0.00003718,0.00000472,0.0000126
 4,-0.00000293,-0.00000436,0.00000144,0.00012288,-0.00018766,-0.0000223
 8,-0.00000993,0.00000170,-0.00000256,-0.00168219,0.00048507,0.00424255
 ,-0.00004383,0.00001877,-0.00014729,0.00001464,0.00002461,-0.00004090,
 -0.00132549,0.00075667,0.00465446,0.00015827,-0.00001162,-0.00082036,-
 0.00002709,0.00000479,0.00007991,0.00003176,-0.00004431,-0.00014138,-0
 .00000459,0.00000042,0.00004827,0.00000589,0.00000284,0.00000538,0.000
 00243,0.00000789,-0.00000755,0.00000219,0.00000707,0.00001208,0.000000
 37,0.00000989,0.00000454,-0.00000606,0.00000327,0.00000635,-0.00000844
 ,-0.00000490,0.00000591,-0.00001364,-0.00000991,0.00001076,-0.00001126
 ,-0.00001092,0.00000079,-0.00000330,-0.00000889,0.00003395,-0.00019874
 ,-0.00001692,0.00038273,0.00571275,-0.03118207,0.02741641,0.00001906,0
 .00002371,0.00001087,0.00002038,0.00003594,-0.00001153,-0.00019305,0.0
 0000834,-0.00001769,-0.00231237,-0.00142944,-0.00131203,-0.16612709,0.
 07640764,-0.03164724,-0.00009884,0.00029221,0.00003098,-0.03867567,0.0
 0420551,-0.00886827,-0.00004454,0.00010511,0.00000383,-0.00000444,0.00
 001257,0.00000026,0.00017481,0.00000116,-0.00001314,0.00001647,-0.0000
 6515,-0.00001239,0.00002964,-0.00000580,-0.00001330,-0.00042368,0.0002
 9774,-0.00023157,0.00005679,-0.00003003,-0.00005159,-0.00003009,-0.000
 00153,0.00000792,-0.00089314,0.00050986,-0.00007872,-0.00051362,0.0002
 4715,-0.00024784,-0.00013617,-0.00001401,0.00000682,-0.00043093,0.0002
 1529,-0.00120151,-0.00022489,0.00009432,-0.00004717,-0.00002336,-0.000
 04275,0.00001326,0.00060276,-0.00008137,0.00014471,0.00007974,0.000016
 02,-0.00001954,0.00100701,-0.00052290,0.00029481,0.00043385,-0.0004736
 0,0.00016145,0.00010538,-0.00017302,-0.00001918,-0.00176227,0.01066504
 ,-0.00260998,0.00019877,-0.00043332,0.00017248,0.00001167,-0.00006283,
 -0.00000357,0.00080781,-0.00014247,0.00040358,0.00006792,0.00004372,-0
 .00000518,0.00002713,0.00001546,0.00000089,0.00000613,0.00002721,0.000
 00248,0.00000125,0.00002649,0.00000581,-0.00000207,0.00002235,0.000006
 94,-0.00001972,0.00001154,0.00001345,-0.00002018,-0.00000952,0.0000068
 3,-0.00001975,-0.00001285,0.00000501,-0.00001811,-0.00001391,0.0000020
 9,0.00000098,-0.00002299,0.00000074,0.00000757,-0.00002426,-0.00001279
 ,-0.00039174,-0.00045310,0.00020730,0.20853924,-0.00001843,-0.00003431
 ,-0.00000883,-0.00005779,-0.00000371,-0.00000223,0.00011257,-0.0001658
 5,0.00004394,-0.00086477,-0.00112177,0.00064318,0.07640743,-0.07830746
 ,0.01829410,-0.00060411,0.00011716,-0.00018091,-0.01052234,0.00678018,
 -0.00210293,0.00003851,-0.00008382,-0.00000534,0.00001316,-0.00002375,
 -0.00000891,-0.00013300,0.00000681,0.00001491,-0.00002022,0.00005155,0
 .00001518,-0.00000577,0.00002301,0.00000765,0.00029886,-0.00019987,0.0
 0015303,-0.00002993,0.00002252,0.00002988,-0.00000214,0.00000189,0.000
 00421,0.00050975,-0.00030772,0.00004417,0.00024644,-0.00011015,0.00012
 466,0.00005250,0.00000771,-0.00000079,-0.00034943,-0.00300262,0.000843
 99,-0.00000976,-0.00013403,-0.00000668,-0.00000066,0.00000809,-0.00000
 503,-0.00037648,0.00011480,-0.00010224,-0.00002880,-0.00001168,0.00000
 325,-0.00052307,0.00040537,-0.00017069,-0.00017850,0.00028358,-0.00007
 512,-0.00003862,0.00007621,0.00000376,0.02539345,-0.03009950,0.0087988
 6,0.00046298,-0.00017995,0.00006144,0.00003094,0.00000497,0.00001114,0
 .00023547,-0.00073410,-0.00000753,0.00001038,0.00001879,0.00001203,-0.
 00000798,-0.00000334,-0.00000025,0.,-0.00001047,-0.00000090,-0.0000008
 1,-0.00001193,-0.00000235,0.00000086,-0.00001283,-0.00000381,0.0000115
 0,-0.00000652,-0.00000778,0.00001194,0.00000527,-0.00000415,0.00001441
 ,0.00000905,-0.00000391,0.00001329,0.00001374,-0.00000177,0.00000045,0
 .00002279,-0.00000070,0.00000908,0.00007910,-0.00000148,-0.00083121,0.
 00046414,-0.00034986,-0.08919636,0.10598247,0.00000177,0.00000807,0.00
 000850,0.00001002,0.00001710,0.00003469,-0.00002526,-0.00004404,-0.000
 19928,-0.00140509,0.00067392,0.00541671,-0.03157858,0.01825418,-0.0514
 4688,0.00010016,-0.00002657,-0.00049315,-0.00716405,0.00072838,0.00468
 152,-0.00001228,0.00003096,-0.00000206,-0.00000246,0.00000769,0.000001
 16,0.00004855,-0.00000737,-0.00001829,0.00000907,-0.00001906,-0.000011
 25,0.00000693,-0.00000408,-0.00000686,-0.00013764,0.00008770,0.0000131
 3,-0.00000096,0.00000055,0.00000543,-0.00000782,-0.00000169,0.00000114
 ,-0.00011768,0.00006667,-0.00072658,-0.00014431,0.00007564,0.00001325,
 -0.00003286,-0.00000475,-0.00000200,-0.00127237,0.00090828,0.00541651,
 0.00002580,0.00004343,-0.00019936,-0.00000605,-0.00000548,0.00000852,0
 .00019734,-0.00000095,0.00002861,0.00002096,0.00000159,-0.00001126,0.0
 0028546,-0.00016543,0.00012755,0.00009876,-0.00017060,0.00002886,0.000
 03044,-0.00003840,-0.00001820,-0.00426224,0.00593764,0.00464899,0.0000
 7027,-0.00007373,-0.00049354,-0.00000989,-0.00001700,0.00003474,0.0003
 8653,-0.00008977,-0.00118955,-0.00000572,0.00000901,0.00009013,0.00000
 444,0.00000382,0.00000661,0.00000154,0.00000646,-0.00000157,0.00000129
 ,0.00000633,0.00000581,0.00000048,0.00000618,0.00000344,-0.00000539,0.
 00000313,0.00000539,-0.00000512,-0.00000348,0.00000346,-0.00000485,-0.
 00000426,0.00000583,-0.00000485,-0.00000457,-0.00000155,-0.00000109,-0
 .00000576,0.00000663,-0.00001054,0.00000056,0.00009017,0.00027131,-0.0
 0029482,-0.00118827,0.04460791,-0.02587349,0.03526916,-0.00108626,0.00
 072919,0.00127966,0.00145601,0.00003046,0.00007408,-0.00434941,0.00391
 733,-0.00285134,-0.00667454,-0.00027959,-0.00106281,-0.00335958,-0.005
 34034,-0.00005398,0.00620757,0.00110574,0.00086697,0.00607513,0.000105
 71,0.00114197,-0.00646441,0.00856772,0.00202388,-0.00145660,-0.0008325
 1,0.00046085,0.00982848,-0.01324296,0.00117726,-0.02338110,-0.00933072
 ,0.01495532,-0.00091045,0.00031012,0.00068135,-0.03153715,0.00946241,-
 0.00701826,-0.05393050,0.02303935,0.05501605,0.00078358,0.00042000,-0.
 00068446,-0.00659242,-0.01855031,-0.00058463,-0.06660406,-0.03326089,-
 0.05232303,-0.00854690,-0.00173461,0.00117886,0.00553264,-0.00349478,0
 .00135161,0.00513542,0.00406470,0.00234535,-0.00149196,-0.00131030,0.0
 0092777,0.01481306,0.00982014,-0.00076006,0.00434075,0.01856317,0.0081
 7807,-0.00484854,0.00025157,-0.00112398,-0.04218785,0.02065669,-0.0188
 8003,0.00468110,-0.01859356,-0.01094185,-0.00336416,0.00587389,-0.0013
 3923,-0.00309779,0.00374567,-0.00093584,0.00051053,-0.00154068,-0.0000
 5169,0.00003551,0.00002634,0.00001655,0.00001057,0.00010860,-0.0000538
 9,-0.00002370,-0.00009584,-0.00020172,-0.00004177,0.00005530,-0.000073
 46,0.00009370,0.00012210,0.00078215,-0.00008144,0.00021675,-0.00001499
 ,0.00018148,-0.00010652,0.00001726,-0.00050245,0.00015913,-0.00007726,
 -0.00020989,-0.00014304,0.00018217,-0.00005248,-0.00025902,-0.00006296
 ,0.00005718,0.00006629,-0.00015999,-0.00010865,0.00004434,0.00011791,-
 0.00003565,-0.00005673,-0.00002192,0.00015195,-0.00007547,0.00003891,0
 .21105408,-0.00107559,-0.00182806,-0.00032674,-0.00099755,-0.00035470,
 0.00010663,-0.00138499,0.00969910,-0.00435674,-0.01049936,0.00336184,-
 0.00216665,-0.00534067,-0.00948805,0.00005652,0.00908298,-0.00030807,0
 .00156839,0.01129118,0.00007247,0.00218541,-0.00053937,-0.00463278,-0.
 00017636,-0.00086075,0.00055286,0.00105668,-0.01560705,-0.01351973,0.0
 1334382,0.00268167,0.00961478,-0.00093594,0.00030991,-0.00055926,-0.00
 039429,-0.01303335,-0.07999867,0.05640462,0.02299477,-0.02772221,-0.03
 199887,0.00045296,-0.00169935,-0.00091322,-0.01854239,-0.02788290,0.00
 041013,-0.01071028,-0.04521150,-0.02204333,0.00737685,-0.00255135,-0.0
 0167590,0.00672881,-0.00883949,0.00201598,0.00937208,0.00024645,0.0046
 3615,0.00049570,-0.00142746,-0.00094260,0.05337284,-0.02459621,0.02134
 215,0.00655828,-0.01817423,-0.01248558,0.00025049,-0.00455379,0.000659
 91,-0.02293412,0.03230833,-0.01002402,-0.01622033,-0.00846320,-0.00760
 899,-0.00531489,0.00950383,-0.00209809,-0.00424022,0.00899108,-0.00155
 433,-0.00051323,0.00058865,-0.00011783,-0.00001517,-0.00005270,0.00003
 505,0.00011328,-0.00002069,-0.00016740,0.00002060,0.00004092,0.0000680
 6,-0.00025339,-0.00016862,0.00003118,0.00003082,-0.00022145,0.00023902
 ,0.00040120,-0.00028611,0.00008054,-0.00010774,0.00005987,-0.00001074,
 -0.00002492,0.00013379,-0.00002796,-0.00005456,0.00007834,-0.00079827,
 0.00004851,-0.00015810,0.00004821,-0.00004898,-0.00004036,0.00014083,0
 .00004014,0.00009753,0.00012879,-0.00001446,0.00001727,-0.00003184,-0.
 00007488,0.00006483,-0.00002249,-0.00320785,0.20734419,0.00190565,0.00
 013818,0.00045697,0.00013499,0.00055636,0.00013200,-0.00129017,-0.0040
 9450,0.00387481,0.00146176,-0.00033480,0.00019596,0.00005816,-0.000008
 21,-0.00004914,-0.00199646,0.00149646,-0.00059228,-0.00111452,0.000534
 24,-0.00014208,0.00190360,-0.00248367,-0.00093960,0.00194031,0.0012117
 9,0.00279505,0.00435036,0.01440720,-0.00027251,0.02024926,0.00336020,-
 0.00758840,0.00092393,-0.00053443,-0.00021845,0.00121608,0.03893147,-0
 .07123436,0.03292334,-0.01920391,-0.08229676,-0.00008377,-0.00227334,0
 .00280625,0.00411661,-0.00231205,-0.00305591,-0.03313818,-0.02044965,-
 0.07095734,0.00309231,-0.00040715,-0.00094099,0.00098801,-0.00106758,0
 .00018905,0.00287872,0.00316055,0.00384166,0.00083050,-0.00171380,0.00
 046191,-0.01441810,0.01976800,-0.00146745,0.00712293,-0.01923691,-0.00
 752027,-0.00200369,0.00116903,-0.00013881,-0.02418012,0.00252924,-0.00
 136875,-0.01029086,-0.01088668,-0.00017930,-0.00099613,0.00066108,-0.0
 0013371,-0.00227424,0.00095125,-0.00058488,-0.00041451,-0.00039268,0.0
 0013438,0.00035811,0.00016501,0.00001510,0.00039873,0.00032982,-0.0002
 7713,0.00018423,0.00007079,-0.00015345,-0.00031990,0.00025979,-0.00013
 270,0.00002444,0.00051942,-0.00028908,0.00017789,0.00017426,-0.0001774
 2,-0.00058663,0.00033900,-0.00038126,-0.00006199,-0.00024224,-0.000176
 38,-0.00043827,-0.00028051,-0.00028543,-0.00038481,0.00014868,-0.00013
 255,0.00003008,-0.00019546,-0.00015304,-0.00008806,-0.00051122,-0.0002
 7603,0.00003526,-0.00039265,0.00001636,0.00031408,-0.00018183,0.000056
 29,0.00645752,-0.00367655,0.23714150||-0.00001012,-0.00000142,-0.00000
 497,0.00001369,-0.00002788,0.00001107,-0.00001569,0.00002383,0.0000037
 9,0.00005739,-0.00001215,-0.00001748,-0.00000319,-0.00000575,0.0000373
 5,-0.00001129,-0.00000150,-0.00001417,-0.00002928,0.00003355,-0.000008
 21,-0.00001797,0.00005632,0.00006146,0.00001981,0.00006053,-0.00004804
 ,0.00012427,0.00000474,-0.00006253,-0.00006449,-0.00003850,0.00001495,
 0.00004631,-0.00002636,-0.00000477,-0.00000096,-0.00000787,0.00000999,
 0.00001160,-0.00000390,-0.00002160,-0.00004159,-0.00004805,-0.00004388
 ,0.00000535,-0.00000729,-0.00000969,0.00000262,0.00001135,0.00000887,-
 0.00005781,-0.00001056,0.00006144,0.00002453,-0.00004786,-0.00002420,-
 0.00002318,-0.00000221,0.00000483,0.00000082,0.00000625,-0.00000662,0.
 00002811,-0.00000267,0.00001441,0.00000107,0.00007248,0.00001278,-0.00
 005771,0.00002991,0.00002514,0.00002435,-0.00002150,0.00001517,0.00005
 753,-0.00011064,-0.00006065,-0.00002773,0.00000353,0.00000533,-0.00001
 051,0.00002074,-0.00001257,0.00002476,0.00000106,0.00000907,0.00000211
 ,0.00000710,-0.00000866,0.00000137,0.00001807,0.00000523,-0.00001315,-
 0.00000833,-0.00000281,0.00000938,0.00000958,0.00000697,-0.00000905,0.
 00003151,-0.00000684,0.00000706,-0.00000550,0.00000798,0.00001194,-0.0
 0000621,0.00001054,0.00001001,-0.00000466,0.00000843,-0.00003327,-0.00
 001019,-0.00000668,-0.00000231,-0.00001198,0.00000576,0.00000060,0.000
 01626,-0.00000343,-0.00001407,-0.00000284,0.00000673,0.00000209,-0.000
 00218,-0.00000452,0.00000366,-0.00000386,-0.00001313,-0.00004704,0.000
 02505,0.00003816|||@


 FOR THE NATURE OF THE CHEMICAL BOND
 IS THE PROBLEM AT THE HEART OF ALL CHEMISTRY.

                     -- BRYCE CRAWFORD, JR., 1953
 Job cpu time:       0 days  0 hours  0 minutes  6.0 seconds.
 File lengths (MBytes):  RWF=    370 Int=      0 D2E=      0 Chk=      4 Scr=      1
 Normal termination of Gaussian 09 at Sun Mar 15 21:01:00 2026.
