 Entering Link 1 = C:\Gaussian\G09W\l1.exe PID=      8856.
  
 Copyright (c) 1988,1990,1992,1993,1995,1998,2003,2009,2013,
            Gaussian, Inc.  All Rights Reserved.
  
 This is part of the Gaussian(R) 09 program.  It is based on
 the Gaussian(R) 03 system (copyright 2003, Gaussian, Inc.),
 the Gaussian(R) 98 system (copyright 1998, Gaussian, Inc.),
 the Gaussian(R) 94 system (copyright 1995, Gaussian, Inc.),
 the Gaussian 92(TM) system (copyright 1992, Gaussian, Inc.),
 the Gaussian 90(TM) system (copyright 1990, Gaussian, Inc.),
 the Gaussian 88(TM) system (copyright 1988, Gaussian, Inc.),
 the Gaussian 86(TM) system (copyright 1986, Carnegie Mellon
 University), and the Gaussian 82(TM) system (copyright 1983,
 Carnegie Mellon University). Gaussian is a federally registered
 trademark of Gaussian, Inc.
  
 This software contains proprietary and confidential information,
 including trade secrets, belonging to Gaussian, Inc.
  
 This software is provided under written license and may be
 used, copied, transmitted, or stored only in accord with that
 written license.
  
 The following legend is applicable only to US Government
 contracts under FAR:
  
                    RESTRICTED RIGHTS LEGEND
  
 Use, reproduction and disclosure by the US Government is
 subject to restrictions as set forth in subparagraphs (a)
 and (c) of the Commercial Computer Software - Restricted
 Rights clause in FAR 52.227-19.
  
 Gaussian, Inc.
 340 Quinnipiac St., Bldg. 40, Wallingford CT 06492
  
  
 ---------------------------------------------------------------
 Warning -- This program may not be used in any manner that
 competes with the business of Gaussian, Inc. or will provide
 assistance to any competitor of Gaussian, Inc.  The licensee
 of this program is prohibited from giving any competitor of
 Gaussian, Inc. access to this program.  By using this program,
 the user acknowledges that Gaussian, Inc. is engaged in the
 business of creating and licensing software in the field of
 computational chemistry and represents and warrants to the
 licensee that it is not a competitor of Gaussian, Inc. and that
 it will not use this program in any manner prohibited above.
 ---------------------------------------------------------------
  

 Cite this work as:
 Gaussian 09, Revision D.01,
 M. J. Frisch, G. W. Trucks, H. B. Schlegel, G. E. Scuseria, 
 M. A. Robb, J. R. Cheeseman, G. Scalmani, V. Barone, B. Mennucci, 
 G. A. Petersson, H. Nakatsuji, M. Caricato, X. Li, H. P. Hratchian, 
 A. F. Izmaylov, J. Bloino, G. Zheng, J. L. Sonnenberg, M. Hada, 
 M. Ehara, K. Toyota, R. Fukuda, J. Hasegawa, M. Ishida, T. Nakajima, 
 Y. Honda, O. Kitao, H. Nakai, T. Vreven, J. A. Montgomery, Jr., 
 J. E. Peralta, F. Ogliaro, M. Bearpark, J. J. Heyd, E. Brothers, 
 K. N. Kudin, V. N. Staroverov, T. Keith, R. Kobayashi, J. Normand, 
 K. Raghavachari, A. Rendell, J. C. Burant, S. S. Iyengar, J. Tomasi, 
 M. Cossi, N. Rega, J. M. Millam, M. Klene, J. E. Knox, J. B. Cross, 
 V. Bakken, C. Adamo, J. Jaramillo, R. Gomperts, R. E. Stratmann, 
 O. Yazyev, A. J. Austin, R. Cammi, C. Pomelli, J. W. Ochterski, 
 R. L. Martin, K. Morokuma, V. G. Zakrzewski, G. A. Voth, 
 P. Salvador, J. J. Dannenberg, S. Dapprich, A. D. Daniels, 
 O. Farkas, J. B. Foresman, J. V. Ortiz, J. Cioslowski, 
 and D. J. Fox, Gaussian, Inc., Wallingford CT, 2013.
 
 ******************************************
 Gaussian 09:  IA32W-G09RevD.01 24-Apr-2013
                15-Mar-2026 
 ******************************************
 %chk=C:\Users\User\Desktop\IMRG\ECE+ML\Sc_Gr_NS.chk
 ---------------------------------------
 # opt freq pm6 scf=qc geom=connectivity
 ---------------------------------------
 1/14=-1,18=20,19=15,26=1,38=1,57=2/1,3;
 2/9=110,12=2,17=6,18=5,40=1/2;
 3/5=2,16=1,25=1,41=3900000,71=1/1,2,3;
 4/35=1/1;
 5/5=2,8=3,35=1,38=5/8;
 6/7=2,8=2,9=2,10=2,28=1/1;
 7//1,2,3,16;
 1/14=-1,18=20,19=15,26=1/3(2);
 2/9=110/2;
 99//99;
 2/9=110/2;
 3/5=2,16=1,25=1,41=3900000,71=1,135=20/1,2,3;
 4/5=5,16=3,35=1/1;
 5/5=2,8=3,35=1,38=5/8;
 7//1,2,3,16;
 1/14=-1,18=20,19=15,26=1/3(-5);
 2/9=110/2;
 6/7=2,8=2,9=2,10=2,19=2,28=1/1;
 99/9=1/99;
 --------
 Sc_Gr_NS
 --------
 Symbolic Z-matrix:
 Charge =  0 Multiplicity = 2
 C                     0.17695   1.02371   2.99497 
 C                     1.43495   0.29741   2.57781 
 C                     2.69295   1.02371   2.99497 
 C                     5.20895   1.02371   2.99497 
 C                     7.72495   1.02371   2.99497 
 C                     3.95095   0.29741   2.57781 
 C                     6.46695   0.29741   2.57781 
 C                    -1.08105   3.20263   2.99497 
 C                    -2.33905   5.38155   2.99497 
 C                     0.17695   2.47633   2.57781 
 C                    -1.08105   4.65525   2.57781 
 C                    -2.33905   6.83417   2.57781 
 C                     1.43495   3.20263   2.99497 
 C                     0.17695   5.38155   2.99497 
 C                    -1.08105   7.56047   2.99497 
 C                     3.95095   3.20263   2.99497 
 C                     2.69295   5.38155   2.99497 
 C                     1.43495   7.56047   2.99497 
 C                     6.46695   3.20263   2.99497 
 C                     5.20895   5.38155   2.99497 
 C                     3.95095   7.56047   2.99497 
 C                     2.69295   2.47633   2.57781 
 C                     0.17695   6.83417   2.57781 
 C                     5.20895   2.47633   2.57781 
 C                     3.95095   4.65525   2.57781 
 C                     2.69295   6.83417   2.57781 
 C                     7.72495   2.47633   2.57781 
 C                     6.46695   4.65525   2.57781 
 C                     5.20895   6.83417   2.57781 
 H                     8.6156    2.99054   2.87315 
 H                     7.3576    5.16946   2.87315 
 H                     6.0996    7.34838   2.87315 
 H                     3.95095   8.58891   2.69962 
 H                     1.43495   8.58891   2.69962 
 H                    -1.08105   8.58891   2.69962 
 H                    -3.2297    7.34838   2.87315 
 H                    -3.2297    4.86734   2.69962 
 H                    -1.9717    2.68842   2.69962 
 H                    -0.7137    0.5095    2.69962 
 H                     1.43495  -0.73103   2.87315 
 H                     3.95095  -0.73103   2.87315 
 H                     6.49522  -0.60455   3.15277 
 H                     8.37341   0.35071   3.51599 
 Sc                    1.43495   4.65525   2.57781 
 

 GradGradGradGradGradGradGradGradGradGradGradGradGradGradGradGradGradGrad
 Berny optimization.
 Initialization pass.
                           ----------------------------
                           !    Initial Parameters    !
                           ! (Angstroms and Degrees)  !
 --------------------------                            --------------------------
 ! Name  Definition              Value          Derivative Info.                !
 --------------------------------------------------------------------------------
 ! R1    R(1,2)                  1.5113         estimate D2E/DX2                !
 ! R2    R(1,10)                 1.5113         estimate D2E/DX2                !
 ! R3    R(1,39)                 1.07           estimate D2E/DX2                !
 ! R4    R(2,3)                  1.5113         estimate D2E/DX2                !
 ! R5    R(2,40)                 1.07           estimate D2E/DX2                !
 ! R6    R(3,6)                  1.5113         estimate D2E/DX2                !
 ! R7    R(3,22)                 1.5113         estimate D2E/DX2                !
 ! R8    R(4,6)                  1.5113         estimate D2E/DX2                !
 ! R9    R(4,7)                  1.5113         estimate D2E/DX2                !
 ! R10   R(4,24)                 1.5113         estimate D2E/DX2                !
 ! R11   R(5,7)                  1.5113         estimate D2E/DX2                !
 ! R12   R(5,27)                 1.5113         estimate D2E/DX2                !
 ! R13   R(5,43)                 1.07           estimate D2E/DX2                !
 ! R14   R(6,41)                 1.07           estimate D2E/DX2                !
 ! R15   R(7,42)                 1.07           estimate D2E/DX2                !
 ! R16   R(8,10)                 1.5113         estimate D2E/DX2                !
 ! R17   R(8,11)                 1.5113         estimate D2E/DX2                !
 ! R18   R(8,38)                 1.07           estimate D2E/DX2                !
 ! R19   R(9,11)                 1.5113         estimate D2E/DX2                !
 ! R20   R(9,12)                 1.5113         estimate D2E/DX2                !
 ! R21   R(9,37)                 1.07           estimate D2E/DX2                !
 ! R22   R(10,13)                1.5113         estimate D2E/DX2                !
 ! R23   R(11,14)                1.5113         estimate D2E/DX2                !
 ! R24   R(12,15)                1.5113         estimate D2E/DX2                !
 ! R25   R(12,36)                1.07           estimate D2E/DX2                !
 ! R26   R(13,22)                1.5113         estimate D2E/DX2                !
 ! R27   R(13,44)                1.5113         estimate D2E/DX2                !
 ! R28   R(14,23)                1.5113         estimate D2E/DX2                !
 ! R29   R(14,44)                1.5113         estimate D2E/DX2                !
 ! R30   R(15,23)                1.5113         estimate D2E/DX2                !
 ! R31   R(15,35)                1.07           estimate D2E/DX2                !
 ! R32   R(16,22)                1.5113         estimate D2E/DX2                !
 ! R33   R(16,24)                1.5113         estimate D2E/DX2                !
 ! R34   R(16,25)                1.5113         estimate D2E/DX2                !
 ! R35   R(17,25)                1.5113         estimate D2E/DX2                !
 ! R36   R(17,26)                1.5113         estimate D2E/DX2                !
 ! R37   R(17,44)                1.5113         estimate D2E/DX2                !
 ! R38   R(18,23)                1.5113         estimate D2E/DX2                !
 ! R39   R(18,26)                1.5113         estimate D2E/DX2                !
 ! R40   R(18,34)                1.07           estimate D2E/DX2                !
 ! R41   R(19,24)                1.5113         estimate D2E/DX2                !
 ! R42   R(19,27)                1.5113         estimate D2E/DX2                !
 ! R43   R(19,28)                1.5113         estimate D2E/DX2                !
 ! R44   R(20,25)                1.5113         estimate D2E/DX2                !
 ! R45   R(20,28)                1.5113         estimate D2E/DX2                !
 ! R46   R(20,29)                1.5113         estimate D2E/DX2                !
 ! R47   R(21,26)                1.5113         estimate D2E/DX2                !
 ! R48   R(21,29)                1.5113         estimate D2E/DX2                !
 ! R49   R(21,33)                1.07           estimate D2E/DX2                !
 ! R50   R(27,30)                1.07           estimate D2E/DX2                !
 ! R51   R(28,31)                1.07           estimate D2E/DX2                !
 ! R52   R(29,32)                1.07           estimate D2E/DX2                !
 ! A1    A(2,1,10)             112.6884         estimate D2E/DX2                !
 ! A2    A(2,1,39)             112.6884         estimate D2E/DX2                !
 ! A3    A(10,1,39)            112.6884         estimate D2E/DX2                !
 ! A4    A(1,2,3)              112.6884         estimate D2E/DX2                !
 ! A5    A(1,2,40)             112.6884         estimate D2E/DX2                !
 ! A6    A(3,2,40)             112.6884         estimate D2E/DX2                !
 ! A7    A(2,3,6)              112.6884         estimate D2E/DX2                !
 ! A8    A(2,3,22)             112.6884         estimate D2E/DX2                !
 ! A9    A(6,3,22)             112.6884         estimate D2E/DX2                !
 ! A10   A(6,4,7)              112.6884         estimate D2E/DX2                !
 ! A11   A(6,4,24)             112.6884         estimate D2E/DX2                !
 ! A12   A(7,4,24)             112.6884         estimate D2E/DX2                !
 ! A13   A(7,5,27)             112.6884         estimate D2E/DX2                !
 ! A14   A(7,5,43)             109.6693         estimate D2E/DX2                !
 ! A15   A(27,5,43)            137.6415         estimate D2E/DX2                !
 ! A16   A(3,6,4)              112.6884         estimate D2E/DX2                !
 ! A17   A(3,6,41)             112.6884         estimate D2E/DX2                !
 ! A18   A(4,6,41)             112.6884         estimate D2E/DX2                !
 ! A19   A(4,7,5)              112.6884         estimate D2E/DX2                !
 ! A20   A(4,7,42)             106.187          estimate D2E/DX2                !
 ! A21   A(5,7,42)             103.5792         estimate D2E/DX2                !
 ! A22   A(10,8,11)            112.6884         estimate D2E/DX2                !
 ! A23   A(10,8,38)            112.6884         estimate D2E/DX2                !
 ! A24   A(11,8,38)            112.6884         estimate D2E/DX2                !
 ! A25   A(11,9,12)            112.6884         estimate D2E/DX2                !
 ! A26   A(11,9,37)            112.6884         estimate D2E/DX2                !
 ! A27   A(12,9,37)            112.6884         estimate D2E/DX2                !
 ! A28   A(1,10,8)             112.6884         estimate D2E/DX2                !
 ! A29   A(1,10,13)            112.6884         estimate D2E/DX2                !
 ! A30   A(8,10,13)            112.6884         estimate D2E/DX2                !
 ! A31   A(8,11,9)             112.6884         estimate D2E/DX2                !
 ! A32   A(8,11,14)            112.6884         estimate D2E/DX2                !
 ! A33   A(9,11,14)            112.6884         estimate D2E/DX2                !
 ! A34   A(9,12,15)            112.6884         estimate D2E/DX2                !
 ! A35   A(9,12,36)            112.6884         estimate D2E/DX2                !
 ! A36   A(15,12,36)           112.6884         estimate D2E/DX2                !
 ! A37   A(10,13,22)           112.6884         estimate D2E/DX2                !
 ! A38   A(10,13,44)           112.6884         estimate D2E/DX2                !
 ! A39   A(22,13,44)           112.6884         estimate D2E/DX2                !
 ! A40   A(11,14,23)           112.6884         estimate D2E/DX2                !
 ! A41   A(11,14,44)           112.6884         estimate D2E/DX2                !
 ! A42   A(23,14,44)           112.6884         estimate D2E/DX2                !
 ! A43   A(12,15,23)           112.6884         estimate D2E/DX2                !
 ! A44   A(12,15,35)           112.6884         estimate D2E/DX2                !
 ! A45   A(23,15,35)           112.6884         estimate D2E/DX2                !
 ! A46   A(22,16,24)           112.6884         estimate D2E/DX2                !
 ! A47   A(22,16,25)           112.6884         estimate D2E/DX2                !
 ! A48   A(24,16,25)           112.6884         estimate D2E/DX2                !
 ! A49   A(25,17,26)           112.6884         estimate D2E/DX2                !
 ! A50   A(25,17,44)           112.6884         estimate D2E/DX2                !
 ! A51   A(26,17,44)           112.6884         estimate D2E/DX2                !
 ! A52   A(23,18,26)           112.6884         estimate D2E/DX2                !
 ! A53   A(23,18,34)           112.6884         estimate D2E/DX2                !
 ! A54   A(26,18,34)           112.6884         estimate D2E/DX2                !
 ! A55   A(24,19,27)           112.6884         estimate D2E/DX2                !
 ! A56   A(24,19,28)           112.6884         estimate D2E/DX2                !
 ! A57   A(27,19,28)           112.6884         estimate D2E/DX2                !
 ! A58   A(25,20,28)           112.6884         estimate D2E/DX2                !
 ! A59   A(25,20,29)           112.6884         estimate D2E/DX2                !
 ! A60   A(28,20,29)           112.6884         estimate D2E/DX2                !
 ! A61   A(26,21,29)           112.6884         estimate D2E/DX2                !
 ! A62   A(26,21,33)           112.6884         estimate D2E/DX2                !
 ! A63   A(29,21,33)           112.6884         estimate D2E/DX2                !
 ! A64   A(3,22,13)            112.6884         estimate D2E/DX2                !
 ! A65   A(3,22,16)            112.6884         estimate D2E/DX2                !
 ! A66   A(13,22,16)           112.6884         estimate D2E/DX2                !
 ! A67   A(14,23,15)           112.6884         estimate D2E/DX2                !
 ! A68   A(14,23,18)           112.6884         estimate D2E/DX2                !
 ! A69   A(15,23,18)           112.6884         estimate D2E/DX2                !
 ! A70   A(4,24,16)            112.6884         estimate D2E/DX2                !
 ! A71   A(4,24,19)            112.6884         estimate D2E/DX2                !
 ! A72   A(16,24,19)           112.6884         estimate D2E/DX2                !
 ! A73   A(16,25,17)           112.6884         estimate D2E/DX2                !
 ! A74   A(16,25,20)           112.6884         estimate D2E/DX2                !
 ! A75   A(17,25,20)           112.6884         estimate D2E/DX2                !
 ! A76   A(17,26,18)           112.6884         estimate D2E/DX2                !
 ! A77   A(17,26,21)           112.6884         estimate D2E/DX2                !
 ! A78   A(18,26,21)           112.6884         estimate D2E/DX2                !
 ! A79   A(5,27,19)            112.6884         estimate D2E/DX2                !
 ! A80   A(5,27,30)            112.6884         estimate D2E/DX2                !
 ! A81   A(19,27,30)           112.6884         estimate D2E/DX2                !
 ! A82   A(19,28,20)           112.6884         estimate D2E/DX2                !
 ! A83   A(19,28,31)           112.6884         estimate D2E/DX2                !
 ! A84   A(20,28,31)           112.6884         estimate D2E/DX2                !
 ! A85   A(20,29,21)           112.6884         estimate D2E/DX2                !
 ! A86   A(20,29,32)           112.6884         estimate D2E/DX2                !
 ! A87   A(21,29,32)           112.6884         estimate D2E/DX2                !
 ! A88   A(13,44,14)           112.6884         estimate D2E/DX2                !
 ! A89   A(13,44,17)           112.6884         estimate D2E/DX2                !
 ! A90   A(14,44,17)           112.6884         estimate D2E/DX2                !
 ! D1    D(10,1,2,3)            51.1032         estimate D2E/DX2                !
 ! D2    D(10,1,2,40)          180.0            estimate D2E/DX2                !
 ! D3    D(39,1,2,3)           180.0            estimate D2E/DX2                !
 ! D4    D(39,1,2,40)          -51.1032         estimate D2E/DX2                !
 ! D5    D(2,1,10,8)           180.0            estimate D2E/DX2                !
 ! D6    D(2,1,10,13)          -51.1032         estimate D2E/DX2                !
 ! D7    D(39,1,10,8)           51.1032         estimate D2E/DX2                !
 ! D8    D(39,1,10,13)         180.0            estimate D2E/DX2                !
 ! D9    D(1,2,3,6)            180.0            estimate D2E/DX2                !
 ! D10   D(1,2,3,22)           -51.1032         estimate D2E/DX2                !
 ! D11   D(40,2,3,6)            51.1032         estimate D2E/DX2                !
 ! D12   D(40,2,3,22)         -180.0            estimate D2E/DX2                !
 ! D13   D(2,3,6,4)            180.0            estimate D2E/DX2                !
 ! D14   D(2,3,6,41)           -51.1032         estimate D2E/DX2                !
 ! D15   D(22,3,6,4)            51.1032         estimate D2E/DX2                !
 ! D16   D(22,3,6,41)          180.0            estimate D2E/DX2                !
 ! D17   D(2,3,22,13)           51.1032         estimate D2E/DX2                !
 ! D18   D(2,3,22,16)          180.0            estimate D2E/DX2                !
 ! D19   D(6,3,22,13)          180.0            estimate D2E/DX2                !
 ! D20   D(6,3,22,16)          -51.1032         estimate D2E/DX2                !
 ! D21   D(7,4,6,3)            180.0            estimate D2E/DX2                !
 ! D22   D(7,4,6,41)            51.1032         estimate D2E/DX2                !
 ! D23   D(24,4,6,3)           -51.1032         estimate D2E/DX2                !
 ! D24   D(24,4,6,41)          180.0            estimate D2E/DX2                !
 ! D25   D(6,4,7,5)            180.0            estimate D2E/DX2                !
 ! D26   D(6,4,7,42)           -67.2727         estimate D2E/DX2                !
 ! D27   D(24,4,7,5)            51.1032         estimate D2E/DX2                !
 ! D28   D(24,4,7,42)          163.8304         estimate D2E/DX2                !
 ! D29   D(6,4,24,16)           51.1032         estimate D2E/DX2                !
 ! D30   D(6,4,24,19)          180.0            estimate D2E/DX2                !
 ! D31   D(7,4,24,16)          180.0            estimate D2E/DX2                !
 ! D32   D(7,4,24,19)          -51.1032         estimate D2E/DX2                !
 ! D33   D(27,5,7,4)           -51.1032         estimate D2E/DX2                !
 ! D34   D(27,5,7,42)         -165.4227         estimate D2E/DX2                !
 ! D35   D(43,5,7,4)           128.6399         estimate D2E/DX2                !
 ! D36   D(43,5,7,42)           14.3203         estimate D2E/DX2                !
 ! D37   D(7,5,27,19)           51.1032         estimate D2E/DX2                !
 ! D38   D(7,5,27,30)          180.0            estimate D2E/DX2                !
 ! D39   D(43,5,27,19)        -128.5377         estimate D2E/DX2                !
 ! D40   D(43,5,27,30)           0.3591         estimate D2E/DX2                !
 ! D41   D(11,8,10,1)          180.0            estimate D2E/DX2                !
 ! D42   D(11,8,10,13)          51.1032         estimate D2E/DX2                !
 ! D43   D(38,8,10,1)          -51.1032         estimate D2E/DX2                !
 ! D44   D(38,8,10,13)        -180.0            estimate D2E/DX2                !
 ! D45   D(10,8,11,9)          180.0            estimate D2E/DX2                !
 ! D46   D(10,8,11,14)         -51.1032         estimate D2E/DX2                !
 ! D47   D(38,8,11,9)           51.1032         estimate D2E/DX2                !
 ! D48   D(38,8,11,14)         180.0            estimate D2E/DX2                !
 ! D49   D(12,9,11,8)         -180.0            estimate D2E/DX2                !
 ! D50   D(12,9,11,14)          51.1032         estimate D2E/DX2                !
 ! D51   D(37,9,11,8)          -51.1032         estimate D2E/DX2                !
 ! D52   D(37,9,11,14)         180.0            estimate D2E/DX2                !
 ! D53   D(11,9,12,15)         -51.1032         estimate D2E/DX2                !
 ! D54   D(11,9,12,36)        -180.0            estimate D2E/DX2                !
 ! D55   D(37,9,12,15)         180.0            estimate D2E/DX2                !
 ! D56   D(37,9,12,36)          51.1032         estimate D2E/DX2                !
 ! D57   D(1,10,13,22)          51.1032         estimate D2E/DX2                !
 ! D58   D(1,10,13,44)         180.0            estimate D2E/DX2                !
 ! D59   D(8,10,13,22)         180.0            estimate D2E/DX2                !
 ! D60   D(8,10,13,44)         -51.1032         estimate D2E/DX2                !
 ! D61   D(8,11,14,23)         180.0            estimate D2E/DX2                !
 ! D62   D(8,11,14,44)          51.1032         estimate D2E/DX2                !
 ! D63   D(9,11,14,23)         -51.1032         estimate D2E/DX2                !
 ! D64   D(9,11,14,44)         180.0            estimate D2E/DX2                !
 ! D65   D(9,12,15,23)          51.1032         estimate D2E/DX2                !
 ! D66   D(9,12,15,35)         180.0            estimate D2E/DX2                !
 ! D67   D(36,12,15,23)        180.0            estimate D2E/DX2                !
 ! D68   D(36,12,15,35)        -51.1032         estimate D2E/DX2                !
 ! D69   D(10,13,22,3)         -51.1032         estimate D2E/DX2                !
 ! D70   D(10,13,22,16)        180.0            estimate D2E/DX2                !
 ! D71   D(44,13,22,3)         180.0            estimate D2E/DX2                !
 ! D72   D(44,13,22,16)         51.1032         estimate D2E/DX2                !
 ! D73   D(10,13,44,14)         51.1032         estimate D2E/DX2                !
 ! D74   D(10,13,44,17)        180.0            estimate D2E/DX2                !
 ! D75   D(22,13,44,14)       -180.0            estimate D2E/DX2                !
 ! D76   D(22,13,44,17)        -51.1032         estimate D2E/DX2                !
 ! D77   D(11,14,23,15)         51.1032         estimate D2E/DX2                !
 ! D78   D(11,14,23,18)        180.0            estimate D2E/DX2                !
 ! D79   D(44,14,23,15)        180.0            estimate D2E/DX2                !
 ! D80   D(44,14,23,18)        -51.1032         estimate D2E/DX2                !
 ! D81   D(11,14,44,13)        -51.1032         estimate D2E/DX2                !
 ! D82   D(11,14,44,17)        180.0            estimate D2E/DX2                !
 ! D83   D(23,14,44,13)       -180.0            estimate D2E/DX2                !
 ! D84   D(23,14,44,17)         51.1032         estimate D2E/DX2                !
 ! D85   D(12,15,23,14)        -51.1032         estimate D2E/DX2                !
 ! D86   D(12,15,23,18)        180.0            estimate D2E/DX2                !
 ! D87   D(35,15,23,14)        180.0            estimate D2E/DX2                !
 ! D88   D(35,15,23,18)         51.1032         estimate D2E/DX2                !
 ! D89   D(24,16,22,3)          51.1032         estimate D2E/DX2                !
 ! D90   D(24,16,22,13)        180.0            estimate D2E/DX2                !
 ! D91   D(25,16,22,3)         180.0            estimate D2E/DX2                !
 ! D92   D(25,16,22,13)        -51.1032         estimate D2E/DX2                !
 ! D93   D(22,16,24,4)         -51.1032         estimate D2E/DX2                !
 ! D94   D(22,16,24,19)        180.0            estimate D2E/DX2                !
 ! D95   D(25,16,24,4)         180.0            estimate D2E/DX2                !
 ! D96   D(25,16,24,19)         51.1032         estimate D2E/DX2                !
 ! D97   D(22,16,25,17)         51.1032         estimate D2E/DX2                !
 ! D98   D(22,16,25,20)        180.0            estimate D2E/DX2                !
 ! D99   D(24,16,25,17)        180.0            estimate D2E/DX2                !
 ! D100  D(24,16,25,20)        -51.1032         estimate D2E/DX2                !
 ! D101  D(26,17,25,16)       -180.0            estimate D2E/DX2                !
 ! D102  D(26,17,25,20)         51.1032         estimate D2E/DX2                !
 ! D103  D(44,17,25,16)        -51.1032         estimate D2E/DX2                !
 ! D104  D(44,17,25,20)        180.0            estimate D2E/DX2                !
 ! D105  D(25,17,26,18)        180.0            estimate D2E/DX2                !
 ! D106  D(25,17,26,21)        -51.1032         estimate D2E/DX2                !
 ! D107  D(44,17,26,18)         51.1032         estimate D2E/DX2                !
 ! D108  D(44,17,26,21)        180.0            estimate D2E/DX2                !
 ! D109  D(25,17,44,13)         51.1032         estimate D2E/DX2                !
 ! D110  D(25,17,44,14)        180.0            estimate D2E/DX2                !
 ! D111  D(26,17,44,13)        180.0            estimate D2E/DX2                !
 ! D112  D(26,17,44,14)        -51.1032         estimate D2E/DX2                !
 ! D113  D(26,18,23,14)         51.1032         estimate D2E/DX2                !
 ! D114  D(26,18,23,15)        180.0            estimate D2E/DX2                !
 ! D115  D(34,18,23,14)        180.0            estimate D2E/DX2                !
 ! D116  D(34,18,23,15)        -51.1032         estimate D2E/DX2                !
 ! D117  D(23,18,26,17)        -51.1032         estimate D2E/DX2                !
 ! D118  D(23,18,26,21)        180.0            estimate D2E/DX2                !
 ! D119  D(34,18,26,17)        180.0            estimate D2E/DX2                !
 ! D120  D(34,18,26,21)         51.1032         estimate D2E/DX2                !
 ! D121  D(27,19,24,4)          51.1032         estimate D2E/DX2                !
 ! D122  D(27,19,24,16)        180.0            estimate D2E/DX2                !
 ! D123  D(28,19,24,4)         180.0            estimate D2E/DX2                !
 ! D124  D(28,19,24,16)        -51.1032         estimate D2E/DX2                !
 ! D125  D(24,19,27,5)         -51.1032         estimate D2E/DX2                !
 ! D126  D(24,19,27,30)        180.0            estimate D2E/DX2                !
 ! D127  D(28,19,27,5)         180.0            estimate D2E/DX2                !
 ! D128  D(28,19,27,30)         51.1032         estimate D2E/DX2                !
 ! D129  D(24,19,28,20)         51.1032         estimate D2E/DX2                !
 ! D130  D(24,19,28,31)        180.0            estimate D2E/DX2                !
 ! D131  D(27,19,28,20)        180.0            estimate D2E/DX2                !
 ! D132  D(27,19,28,31)        -51.1032         estimate D2E/DX2                !
 ! D133  D(28,20,25,16)         51.1032         estimate D2E/DX2                !
 ! D134  D(28,20,25,17)        180.0            estimate D2E/DX2                !
 ! D135  D(29,20,25,16)        180.0            estimate D2E/DX2                !
 ! D136  D(29,20,25,17)        -51.1032         estimate D2E/DX2                !
 ! D137  D(25,20,28,19)        -51.1032         estimate D2E/DX2                !
 ! D138  D(25,20,28,31)        180.0            estimate D2E/DX2                !
 ! D139  D(29,20,28,19)       -180.0            estimate D2E/DX2                !
 ! D140  D(29,20,28,31)         51.1032         estimate D2E/DX2                !
 ! D141  D(25,20,29,21)         51.1032         estimate D2E/DX2                !
 ! D142  D(25,20,29,32)        180.0            estimate D2E/DX2                !
 ! D143  D(28,20,29,21)        180.0            estimate D2E/DX2                !
 ! D144  D(28,20,29,32)        -51.1032         estimate D2E/DX2                !
 ! D145  D(29,21,26,17)         51.1032         estimate D2E/DX2                !
 ! D146  D(29,21,26,18)       -180.0            estimate D2E/DX2                !
 ! D147  D(33,21,26,17)        180.0            estimate D2E/DX2                !
 ! D148  D(33,21,26,18)        -51.1032         estimate D2E/DX2                !
 ! D149  D(26,21,29,20)        -51.1032         estimate D2E/DX2                !
 ! D150  D(26,21,29,32)        180.0            estimate D2E/DX2                !
 ! D151  D(33,21,29,20)        180.0            estimate D2E/DX2                !
 ! D152  D(33,21,29,32)         51.1032         estimate D2E/DX2                !
 --------------------------------------------------------------------------------
 Trust Radius=3.00D-01 FncErr=1.00D-07 GrdErr=1.00D-07
 Number of steps in this run=    264 maximum allowed number of steps=    264.
 GradGradGradGradGradGradGradGradGradGradGradGradGradGradGradGradGradGrad

                          Input orientation:                          
 ---------------------------------------------------------------------
 Center     Atomic      Atomic             Coordinates (Angstroms)
 Number     Number       Type             X           Y           Z
 ---------------------------------------------------------------------
      1          6           0        0.176948    1.023714    2.994967
      2          6           0        1.434948    0.297407    2.577810
      3          6           0        2.692948    1.023714    2.994967
      4          6           0        5.208948    1.023714    2.994967
      5          6           0        7.724948    1.023714    2.994967
      6          6           0        3.950948    0.297407    2.577810
      7          6           0        6.466948    0.297407    2.577810
      8          6           0       -1.081052    3.202634    2.994967
      9          6           0       -2.339052    5.381554    2.994967
     10          6           0        0.176948    2.476327    2.577810
     11          6           0       -1.081052    4.655247    2.577810
     12          6           0       -2.339052    6.834167    2.577810
     13          6           0        1.434948    3.202634    2.994967
     14          6           0        0.176948    5.381554    2.994967
     15          6           0       -1.081052    7.560474    2.994967
     16          6           0        3.950948    3.202634    2.994967
     17          6           0        2.692948    5.381554    2.994967
     18          6           0        1.434948    7.560474    2.994967
     19          6           0        6.466948    3.202634    2.994967
     20          6           0        5.208948    5.381554    2.994967
     21          6           0        3.950948    7.560474    2.994967
     22          6           0        2.692948    2.476327    2.577810
     23          6           0        0.176948    6.834167    2.577810
     24          6           0        5.208948    2.476327    2.577810
     25          6           0        3.950948    4.655247    2.577810
     26          6           0        2.692948    6.834167    2.577810
     27          6           0        7.724948    2.476327    2.577810
     28          6           0        6.466948    4.655247    2.577810
     29          6           0        5.208948    6.834167    2.577810
     30          1           0        8.615597    2.990544    2.873152
     31          1           0        7.357597    5.169464    2.873152
     32          1           0        6.099597    7.348383    2.873152
     33          1           0        3.950948    8.588906    2.699625
     34          1           0        1.434948    8.588906    2.699625
     35          1           0       -1.081052    8.588906    2.699625
     36          1           0       -3.229701    7.348383    2.873152
     37          1           0       -3.229701    4.867338    2.699625
     38          1           0       -1.971701    2.688418    2.699625
     39          1           0       -0.713701    0.509498    2.699625
     40          1           0        1.434948   -0.731025    2.873152
     41          1           0        3.950948   -0.731025    2.873152
     42          1           0        6.495217   -0.604546    3.152772
     43          1           0        8.373408    0.350713    3.515994
     44         21           0        1.434948    4.655247    2.577810
 ---------------------------------------------------------------------
                    Distance matrix (angstroms):
                    1          2          3          4          5
     1  C    0.000000
     2  C    1.511326   0.000000
     3  C    2.516000   1.511326   0.000000
     4  C    5.032000   3.865827   2.516000   0.000000
     5  C    7.548000   6.345521   5.032000   2.516000   0.000000
     6  C    3.865827   2.516000   1.511326   1.511326   3.865827
     7  C    6.345521   5.032000   3.865827   1.511326   1.511326
     8  C    2.516000   3.865827   4.357840   6.656710   9.071567
     9  C    5.032000   6.345521   6.656710   8.715680  10.966990
    10  C    1.511326   2.516000   2.935023   5.254058   7.697818
    11  C    3.865827   5.032000   5.254058   7.275036   9.534552
    12  C    6.345521   7.548000   7.697818   9.534552  11.628391
    13  C    2.516000   2.935023   2.516000   4.357840   6.656710
    14  C    4.357840   5.254058   5.032000   6.656710   8.715680
    15  C    6.656710   7.697818   7.548000   9.071567  10.966990
    16  C    4.357840   3.865827   2.516000   2.516000   4.357840
    17  C    5.032000   5.254058   4.357840   5.032000   6.656710
    18  C    6.656710   7.275036   6.656710   7.548000   9.071567
    19  C    6.656710   5.825409   4.357840   2.516000   2.516000
    20  C    6.656710   6.345521   5.032000   4.357840   5.032000
    21  C    7.548000   7.697818   6.656710   6.656710   7.548000
    22  C    2.935023   2.516000   1.511326   2.935023   5.254058
    23  C    5.825409   6.656710   6.345521   7.697818   9.534552
    24  C    5.254058   4.357840   2.935023   1.511326   2.935023
    25  C    5.254058   5.032000   3.865827   3.865827   5.254058
    26  C    6.345521   6.656710   5.825409   6.345521   7.697818
    27  C    7.697818   6.656710   5.254058   2.935023   1.511326
    28  C    7.275036   6.656710   5.254058   3.865827   3.865827
    29  C    7.697818   7.548000   6.345521   5.825409   6.345521
    30  H    8.665682   7.674759   6.241877   3.935545   2.162524
    31  H    8.292394   7.674759   6.241877   4.671056   4.163775
    32  H    8.665682   8.459458   7.184813   6.388234   6.531313
    33  H    8.459458   8.665682   7.674759   7.674759   8.459458
    34  H    7.674759   8.292394   7.674759   8.459458   9.842940
    35  H    7.674759   8.665682   8.459458   9.842940  11.613139
    36  H    7.184813   8.459458   8.665682  10.546425  12.649925
    37  H    5.144504   6.531313   7.066713   9.277471  11.613139
    38  H    2.734073   4.163775   4.961594   7.377003   9.842940
    39  H    1.070000   2.162524   3.457875   5.952261   8.459458
    40  H    2.162524   1.070000   2.162524   4.163775   6.531313
    41  H    4.163775   2.734073   2.162524   2.162524   4.163775
    42  H    6.526612   5.172082   4.139249   2.081015   2.046551
    43  H    8.240531   7.001804   5.743868   3.276920   1.070000
    44  Sc   3.865827   4.357840   3.865827   5.254058   7.275036
                    6          7          8          9         10
     6  C    0.000000
     7  C    2.516000   0.000000
     8  C    5.825409   8.098559   0.000000
     9  C    8.098559  10.176846   2.516000   0.000000
    10  C    4.357840   6.656710   1.511326   3.865827   0.000000
    11  C    6.656710   8.715680   1.511326   1.511326   2.516000
    12  C    9.071567  10.966990   3.865827   1.511326   5.032000
    13  C    3.865827   5.825409   2.516000   4.357840   1.511326
    14  C    6.345521   8.098559   2.516000   2.516000   2.935023
    15  C    8.845743  10.483246   4.357840   2.516000   5.254058
    16  C    2.935023   3.865827   5.032000   6.656710   3.865827
    17  C    5.254058   6.345521   4.357840   5.032000   3.865827
    18  C    7.697818   8.845743   5.032000   4.357840   5.254058
    19  C    3.865827   2.935023   7.548000   9.071567   6.345521
    20  C    5.254058   5.254058   6.656710   7.548000   5.825409
    21  C    7.275036   7.697818   6.656710   6.656710   6.345521
    22  C    2.516000   4.357840   3.865827   5.825409   2.516000
    23  C    7.548000   9.071567   3.865827   2.935023   4.357840
    24  C    2.516000   2.516000   6.345521   8.098559   5.032000
    25  C    4.357840   5.032000   5.254058   6.345521   4.357840
    26  C    6.656710   7.548000   5.254058   5.254058   5.032000
    27  C    4.357840   2.516000   8.845743  10.483246   7.548000
    28  C    5.032000   4.357840   7.697818   8.845743   6.656710
    29  C    6.656710   6.656710   7.275036   7.697818   6.656710
    30  H    5.394363   3.457875   9.699733  11.213211   8.459458
    31  H    5.952261   4.961594   8.665682   9.699733   7.674759
    32  H    7.377003   7.066713   8.292394   8.665682   7.674759
    33  H    8.292394   8.665682   7.377003   7.066713   7.184813
    34  H    8.665682   9.699733   5.952261   4.961594   6.241877
    35  H    9.699733  11.213211   5.394363   3.457875   6.241877
    36  H   10.068029  11.992851   4.671056   2.162524   5.952261
    37  H    8.512392  10.720266   2.734073   1.070000   4.163775
    38  H    6.388234   8.771691   1.070000   2.734073   2.162524
    39  H    4.671056   7.184813   2.734073   5.144504   2.162524
    40  H    2.734073   5.144504   4.671056   7.184813   3.457875
    41  H    1.070000   2.734073   6.388234   8.771691   4.961594
    42  H    2.759965   1.070000   8.480529  10.672516   7.052864
    43  H    4.521192   2.125469   9.888970  11.846418   8.519412
    44  Sc   5.032000   6.656710   2.935023   3.865827   2.516000
                   11         12         13         14         15
    11  C    0.000000
    12  C    2.516000   0.000000
    13  C    2.935023   5.254058   0.000000
    14  C    1.511326   2.935023   2.516000   0.000000
    15  C    2.935023   1.511326   5.032000   2.516000   0.000000
    16  C    5.254058   7.275036   2.516000   4.357840   6.656710
    17  C    3.865827   5.254058   2.516000   2.516000   4.357840
    18  C    3.865827   3.865827   4.357840   2.516000   2.516000
    19  C    7.697818   9.534552   5.032000   6.656710   8.715680
    20  C    6.345521   7.697818   4.357840   5.032000   6.656710
    21  C    5.825409   6.345521   5.032000   4.357840   5.032000
    22  C    4.357840   6.656710   1.511326   3.865827   6.345521
    23  C    2.516000   2.516000   3.865827   1.511326   1.511326
    24  C    6.656710   8.715680   3.865827   5.825409   8.098559
    25  C    5.032000   6.656710   2.935023   3.865827   5.825409
    26  C    4.357840   5.032000   3.865827   2.935023   3.865827
    27  C    9.071567  10.966990   6.345521   8.098559  10.176846
    28  C    7.548000   9.071567   5.254058   6.345521   8.098559
    29  C    6.656710   7.548000   5.254058   5.254058   6.345521
    30  H    9.842940  11.613139   7.184813   8.771691  10.720266
    31  H    8.459458   9.842940   6.241877   7.184813   8.771691
    32  H    7.674759   8.459458   6.241877   6.241877   7.184813
    33  H    6.388234   6.531313   5.952261   4.961594   5.144504
    34  H    4.671056   4.163775   5.394363   3.457875   2.734073
    35  H    3.935545   2.162524   5.952261   3.457875   1.070000
    36  H    3.457875   1.070000   6.241877   3.935545   2.162524
    37  H    2.162524   2.162524   4.961594   3.457875   3.457875
    38  H    2.162524   4.163775   3.457875   3.457875   4.961594
    39  H    4.163775   6.531313   3.457875   4.961594   7.066713
    40  H    5.952261   8.459458   3.935545   6.241877   8.665682
    41  H    7.377003   9.842940   4.671056   7.184813   9.699733
    42  H    9.240988  11.563276   6.334497   8.705103  11.139673
    43  H   10.430533  12.556757   7.519784   9.631344  11.901215
    44  Sc   2.516000   4.357840   1.511326   1.511326   3.865827
                   16         17         18         19         20
    16  C    0.000000
    17  C    2.516000   0.000000
    18  C    5.032000   2.516000   0.000000
    19  C    2.516000   4.357840   6.656710   0.000000
    20  C    2.516000   2.516000   4.357840   2.516000   0.000000
    21  C    4.357840   2.516000   2.516000   5.032000   2.516000
    22  C    1.511326   2.935023   5.254058   3.865827   3.865827
    23  C    5.254058   2.935023   1.511326   7.275036   5.254058
    24  C    1.511326   3.865827   6.345521   1.511326   2.935023
    25  C    1.511326   1.511326   3.865827   2.935023   1.511326
    26  C    3.865827   1.511326   1.511326   5.254058   2.935023
    27  C    3.865827   5.825409   8.098559   1.511326   3.865827
    28  C    2.935023   3.865827   5.825409   1.511326   1.511326
    29  C    3.865827   2.935023   3.865827   3.865827   1.511326
    30  H    4.671056   6.388234   8.512392   2.162524   4.163775
    31  H    3.935545   4.671056   6.388234   2.162524   2.162524
    32  H    4.671056   3.935545   4.671056   4.163775   2.162524
    33  H    5.394363   3.457875   2.734073   5.952261   3.457875
    34  H    5.952261   3.457875   1.070000   7.377003   4.961594
    35  H    7.377003   4.961594   2.734073   9.277471   7.066713
    36  H    8.292394   6.241877   4.671056  10.546425   8.665682
    37  H    7.377003   5.952261   5.394363   9.842940   8.459458
    38  H    5.952261   5.394363   5.952261   8.459458   7.674759
    39  H    5.394363   5.952261   7.377003   7.674759   7.674759
    40  H    4.671056   6.241877   8.292394   6.388234   7.184813
    41  H    3.935545   6.241877   8.665682   4.671056   6.241877
    42  H    4.581793   7.093345   9.607225   3.810554   6.124768
    43  H    5.288012   7.605817  10.019698   3.469800   5.966124
    44  Sc   2.935023   1.511326   2.935023   5.254058   3.865827
                   21         22         23         24         25
    21  C    0.000000
    22  C    5.254058   0.000000
    23  C    3.865827   5.032000   0.000000
    24  C    5.254058   2.516000   6.656710   0.000000
    25  C    2.935023   2.516000   4.357840   2.516000   0.000000
    26  C    1.511326   4.357840   2.516000   5.032000   2.516000
    27  C    6.345521   5.032000   8.715680   2.516000   4.357840
    28  C    3.865827   4.357840   6.656710   2.516000   2.516000
    29  C    1.511326   5.032000   5.032000   4.357840   2.516000
    30  H    6.531313   5.952261   9.277471   3.457875   4.961594
    31  H    4.163775   5.394363   7.377003   3.457875   3.457875
    32  H    2.162524   5.952261   5.952261   4.961594   3.457875
    33  H    1.070000   6.241877   4.163775   6.241877   3.935545
    34  H    2.734073   6.241877   2.162524   7.184813   4.671056
    35  H    5.144504   7.184813   2.162524   8.771691   6.388234
    36  H    7.184813   7.674759   3.457875   9.748587   7.674759
    37  H    7.674759   6.388234   3.935545   8.771691   7.184813
    38  H    7.674759   4.671056   4.671056   7.184813   6.241877
    39  H    8.459458   3.935545   6.388234   6.241877   6.241877
    40  H    8.665682   3.457875   7.674759   4.961594   5.952261
    41  H    8.292394   3.457875   8.459458   3.457875   5.394363
    42  H    8.553698   4.927435   9.776787   3.387750   5.871057
    43  H    8.474094   6.137267  10.492727   3.925841   6.242384
    44  Sc   3.865827   2.516000   2.516000   4.357840   2.516000
                   26         27         28         29         30
    26  C    0.000000
    27  C    6.656710   0.000000
    28  C    4.357840   2.516000   0.000000
    29  C    2.516000   5.032000   2.516000   0.000000
    30  H    7.066713   1.070000   2.734073   5.144504   0.000000
    31  H    4.961594   2.734073   1.070000   2.734073   2.516000
    32  H    3.457875   5.144504   2.734073   1.070000   5.032000
    33  H    2.162524   7.184813   4.671056   2.162524   7.289082
    34  H    2.162524   8.771691   6.388234   4.163775   9.106783
    35  H    4.163775  10.720266   8.512392   6.531313  11.198070
    36  H    5.952261  11.992851  10.068029   8.459458  12.621483
    37  H    6.241877  11.213211   9.699733   8.665682  11.994313
    38  H    6.241877   9.699733   8.665682   8.292394  10.593029
    39  H    7.184813   8.665682   8.292394   8.665682   9.655127
    40  H    7.674759   7.066713   7.377003   8.459458   8.087755
    41  H    7.674759   4.961594   5.952261   7.674759   5.967329
    42  H    8.373905   3.366689   5.291201   7.570966   4.183164
    43  H    8.670812   2.412245   4.800395   7.275244   2.727747
    44  Sc   2.516000   6.656710   5.032000   4.357840   7.377003
                   31         32         33         34         35
    31  H    0.000000
    32  H    2.516000   0.000000
    33  H    4.829902   2.487107   0.000000
    34  H    6.841087   4.829902   2.516000   0.000000
    35  H    9.106783   7.289082   5.032000   2.516000   0.000000
    36  H   10.809188   9.329297   7.289082   4.829902   2.487107
    37  H   10.593029   9.655127   8.087755   5.967329   4.297297
    38  H    9.655127   9.321547   8.360235   6.813297   5.967329
    39  H    9.321547   9.655127   9.329297   8.360235   8.087755
    40  H    8.360235   9.329297   9.655127   9.321547   9.655127
    41  H    6.813297   8.360235   9.321547   9.655127  10.593029
    42  H    5.844747   7.967671   9.549775  10.503867  11.921609
    43  H    4.966435   7.385855   9.385757  10.801690  12.566666
    44  Sc   5.952261   5.394363   4.671056   3.935545   4.671056
                   36         37         38         39         40
    36  H    0.000000
    37  H    2.487107   0.000000
    38  H    4.829902   2.516000   0.000000
    39  H    7.289082   5.032000   2.516000   0.000000
    40  H    9.329297   7.289082   4.829902   2.487107   0.000000
    41  H   10.809188   9.106783   6.841087   4.829902   2.516000
    42  H   12.565878  11.167850   9.096024   7.308552   5.069567
    43  H   13.565130  12.477920  10.637321   9.125087   7.051640
    44  Sc   5.394363   4.671056   3.935545   4.671056   5.394363
                   41         42         43         44
    41  H    0.000000
    42  H    2.562712   0.000000
    43  H    4.597995   2.138235   0.000000
    44  Sc   5.952261   7.321361   8.218967   0.000000
 Stoichiometry    C29H14Sc(2)
 Framework group  C1[X(C29H14Sc)]
 Deg. of freedom   126
 Full point group                 C1      NOp   1
 Largest Abelian subgroup         C1      NOp   1
 Largest concise Abelian subgroup C1      NOp   1
                         Standard orientation:                         
 ---------------------------------------------------------------------
 Center     Atomic      Atomic             Coordinates (Angstroms)
 Number     Number       Type             X           Y           Z
 ---------------------------------------------------------------------
      1          6           0       -0.617683   -3.774068    0.216055
      2          6           0        0.834348   -3.772470   -0.203123
      3          6           0        1.560149   -2.514187    0.214060
      4          6           0        3.737981   -1.254305    0.212065
      5          6           0        5.915812    0.005576    0.210069
      6          6           0        3.012179   -2.512588   -0.205118
      7          6           0        5.190011   -1.252707   -0.207114
      8          6           0       -2.797685   -2.517952    0.220126
      9          6           0       -4.977687   -1.261835    0.224198
     10          6           0       -1.345655   -2.516353   -0.199052
     11          6           0       -3.525657   -1.260236   -0.194980
     12          6           0       -5.705659   -0.004119   -0.190909
     13          6           0       -0.619853   -1.258070    0.218131
     14          6           0       -2.799856   -0.001953    0.222202
     15          6           0       -4.979858    1.254163    0.226274
     16          6           0        1.557978    0.001811    0.216136
     17          6           0       -0.622024    1.257928    0.220207
     18          6           0       -2.802026    2.514045    0.224278
     19          6           0        3.735810    1.261693    0.214140
     20          6           0        1.555808    2.517810    0.218212
     21          6           0       -0.624195    3.773926    0.222283
     22          6           0        0.832177   -1.256471   -0.201047
     23          6           0       -3.527828    1.255762   -0.192904
     24          6           0        3.010009    0.003410   -0.203042
     25          6           0        0.830006    1.259527   -0.198971
     26          6           0       -1.349996    2.515644   -0.194900
     27          6           0        5.187840    1.263292   -0.205038
     28          6           0        3.007838    2.519408   -0.200966
     29          6           0        0.827836    3.775525   -0.196895
     30          1           0        5.701699    2.154140    0.090323
     31          1           0        3.521696    3.410257    0.094394
     32          1           0        1.341694    4.666374    0.098465
     33          1           0       -1.139590    4.664373   -0.071608
     34          1           0       -3.317422    3.404492   -0.069612
     35          1           0       -5.495253    2.144611   -0.067617
     36          1           0       -6.733679   -0.005251    0.105864
     37          1           0       -5.491546   -2.152684   -0.071163
     38          1           0       -3.311543   -3.408800   -0.075234
     39          1           0       -1.131541   -4.664917   -0.079305
     40          1           0        1.349743   -4.662917    0.090768
     41          1           0        3.527575   -3.403035    0.088772
     42          1           0        5.666932   -2.019749    0.366553
     43          1           0        6.814843   -0.252683    0.729633
     44         21           0       -1.347825   -0.000355   -0.196976
 ---------------------------------------------------------------------
 Rotational constants (GHZ):      0.2990949      0.1313460      0.0918564
 Standard basis: VSTO-6G (5D, 7F)
 There are   140 symmetry adapted cartesian basis functions of A   symmetry.
 There are   139 symmetry adapted basis functions of A   symmetry.
   139 basis functions,   840 primitive gaussians,   140 cartesian basis functions
    67 alpha electrons       66 beta electrons
       nuclear repulsion energy      1212.1336382665 Hartrees.
 Integral buffers will be    262144 words long.
 Regular integral format.
 Two-electron integral symmetry is turned off.
 Do NDO integrals.
 One-electron integrals computed using PRISM.
 NBasis=   139 RedAO= F EigKep=  0.00D+00  NBF=   139
 NBsUse=   139 1.00D-04 EigRej=  0.00D+00 NBFU=   139
 Simple Huckel Guess.
 Initial guess <Sx>= 0.0000 <Sy>= 0.0000 <Sz>= 0.5000 <S**2>= 0.7500 S= 0.5000
 Keep J ints in memory in canonical form, NReq=2111950.
 Gradient too large for Newton-Raphson -- use scaled steepest descent instead.
     Minimum is close to point  5 DX= -1.36D-02 DF= -3.99D-04 DXR=  1.72D-02 DFR=  2.39D-04 which will be used.
 Gradient too large for Newton-Raphson -- use scaled steepest descent instead.
 Gradient too large for Newton-Raphson -- use scaled steepest descent instead.
     Accept linear search using points  2 and  3.
 Gradient too large for Newton-Raphson -- use scaled steepest descent instead.
     Accept linear search using points  2 and  3.
 Gradient too large for Newton-Raphson -- use scaled steepest descent instead.
     Accept linear search using points  1 and  2.
     Minimum is close to point  2 DX= -6.87D-02 DF= -9.17D-05 DXR=  4.80D-02 DFR=  4.05D-03 which will be used.
 Gradient too large for Newton-Raphson -- use scaled steepest descent instead.
     Accept linear search using points  1 and  2.
     Minimum is close to point  2 DX= -6.89D-02 DF= -5.97D-05 DXR=  4.50D-02 DFR=  4.01D-03 which will be used.
 Gradient too large for Newton-Raphson -- use scaled steepest descent instead.
     Accept linear search using points  1 and  2.
     Minimum is close to point  2 DX= -7.11D-02 DF= -4.44D-05 DXR=  4.98D-02 DFR=  4.38D-03 which will be used.
 Gradient too large for Newton-Raphson -- use scaled steepest descent instead.
     Accept linear search using points  1 and  2.
     Minimum is close to point  2 DX= -1.09D-02 DF= -8.31D-07 DXR=  7.29D-03 DFR=  1.05D-04 which will be used.
 Gradient too large for Newton-Raphson -- use scaled steepest descent instead.
 Gradient too large for Newton-Raphson -- use scaled steepest descent instead.
     Accept linear search using points  1 and  2.
     Minimum is close to point  2 DX= -1.22D-02 DF= -8.72D-07 DXR=  7.71D-03 DFR=  1.39D-04 which will be used.
 Gradient too large for Newton-Raphson -- use scaled steepest descent instead.
     Accept linear search using points  1 and  2.
     Minimum is close to point  2 DX= -7.96D-03 DF= -3.51D-07 DXR=  5.00D-03 DFR=  5.73D-05 which will be used.
 Gradient too large for Newton-Raphson -- use scaled steepest descent instead.
     Accept linear search using points  1 and  2.
     Minimum is close to point  2 DX= -1.30D-02 DF= -9.63D-07 DXR=  8.20D-03 DFR=  1.54D-04 which will be used.
 Gradient too large for Newton-Raphson -- use scaled steepest descent instead.
     Accept linear search using points  1 and  2.
     Minimum is close to point  2 DX= -3.90D-02 DF= -7.85D-06 DXR=  2.50D-02 DFR=  1.29D-03 which will be used.
 Gradient too large for Newton-Raphson -- use scaled steepest descent instead.
     Accept linear search using points  1 and  2.
     Minimum is close to point  2 DX= -8.89D-02 DF= -3.85D-05 DXR=  5.88D-02 DFR=  6.63D-03 which will be used.
 Gradient too large for Newton-Raphson -- use scaled steepest descent instead.
     Accept linear search using points  1 and  2.
     Minimum is close to point  2 DX= -1.19D-01 DF= -6.89D-05 DXR=  8.59D-02 DFR=  1.26D-02 which will be used.
 Gradient too large for Newton-Raphson -- use scaled steepest descent instead.
     Accept linear search using points  1 and  2.
     Minimum is close to point  2 DX= -7.13D-02 DF= -2.41D-05 DXR=  5.37D-02 DFR=  4.73D-03 which will be used.
 Gradient too large for Newton-Raphson -- use scaled steepest descent instead.
     Minimum is close to point  2 DX=  9.83D-03 DF= -2.17D-07 DXR=  6.98D-03 DFR=  4.87D-05 which will be used.
 Gradient too large for Newton-Raphson -- use scaled steepest descent instead.
 Gradient too large for Newton-Raphson -- use scaled steepest descent instead.
     Accept linear search using points  1 and  2.
     Minimum is close to point  2 DX= -3.08D-02 DF= -3.09D-06 DXR=  2.10D-02 DFR=  8.28D-04 which will be used.
 Gradient too large for Newton-Raphson -- use scaled steepest descent instead.
     Accept linear search using points  1 and  2.
     Minimum is close to point  2 DX= -3.41D-03 DF= -3.75D-08 DXR=  2.28D-03 DFR=  1.03D-05 which will be used.
 Gradient too large for Newton-Raphson -- use scaled steepest descent instead.
     Minimum is close to point  2 DX=  1.32D-01 DF= -2.45D-05 DXR=  8.07D-02 DFR=  6.56D-03 which will be used.
 Gradient too large for Newton-Raphson -- use scaled steepest descent instead.
 Gradient too large for Newton-Raphson -- use scaled steepest descent instead.
     Accept linear search using points  1 and  2.
     Minimum is close to point  2 DX= -1.42D-01 DF= -6.82D-05 DXR=  8.59D-02 DFR=  1.51D-02 which will be used.
 Gradient too large for Newton-Raphson -- use scaled steepest descent instead.
     Accept linear search using points  1 and  2.
 Gradient too large for Newton-Raphson -- use scaled steepest descent instead.
     Accept linear search using points  1 and  2.
     Minimum is close to point  2 DX= -7.40D-02 DF= -2.80D-05 DXR=  4.85D-02 DFR=  4.57D-03 which will be used.
 Gradient too large for Newton-Raphson -- use scaled steepest descent instead.
     Accept linear search using points  1 and  2.
     Minimum is close to point  2 DX= -4.05D-02 DF= -9.16D-06 DXR=  2.78D-02 DFR=  1.44D-03 which will be used.
 Gradient too large for Newton-Raphson -- use scaled steepest descent instead.
     Accept linear search using points  1 and  2.
     Minimum is close to point  2 DX= -2.12D-03 DF= -2.30D-08 DXR=  1.42D-03 DFR=  4.00D-06 which will be used.
 Gradient too large for Newton-Raphson -- use scaled steepest descent instead.
     Minimum is close to point  2 DX=  5.10D-02 DF= -5.19D-06 DXR=  3.29D-02 DFR=  1.08D-03 which will be used.
 Gradient too large for Newton-Raphson -- use scaled steepest descent instead.
     Minimum is close to point  2 DX=  5.71D-02 DF= -4.91D-06 DXR=  3.67D-02 DFR=  1.35D-03 which will be used.
 Gradient too large for Newton-Raphson -- use scaled steepest descent instead.
     Accept linear search using points  1 and  2.
     Minimum is close to point  2 DX= -1.93D-02 DF= -8.57D-07 DXR=  1.22D-02 DFR=  3.28D-04 which will be used.
 Gradient too large for Newton-Raphson -- use scaled steepest descent instead.
     Accept linear search using points  1 and  2.
     Minimum is close to point  2 DX= -1.22D-01 DF= -2.14D-05 DXR=  8.24D-02 DFR=  1.25D-02 which will be used.
 Gradient too large for Newton-Raphson -- use scaled steepest descent instead.
     Accept linear search using points  1 and  2.
 Gradient too large for Newton-Raphson -- use scaled steepest descent instead.
     Minimum is close to point  2 DX=  8.91D-03 DF= -3.00D-08 DXR=  6.32D-03 DFR=  4.00D-05 which will be used.
 Gradient too large for Newton-Raphson -- use scaled steepest descent instead.
     Minimum is close to point  2 DX=  1.47D-01 DF= -4.37D-06 DXR=  9.50D-02 DFR=  9.10D-03 which will be used.
 LinEq1:  Iter=  0 NonCon=     1 RMS=2.96D-04 Max=1.70D-02 NDo=     1
 AX will form     1 AO Fock derivatives at one time.
 LinEq1:  Iter=  1 NonCon=     1 RMS=1.25D-04 Max=3.20D-03 NDo=     1
 LinEq1:  Iter=  2 NonCon=     1 RMS=2.53D-05 Max=9.47D-04 NDo=     1
 LinEq1:  Iter=  3 NonCon=     1 RMS=6.42D-06 Max=1.37D-04 NDo=     1
 LinEq1:  Iter=  4 NonCon=     1 RMS=2.12D-06 Max=4.68D-05 NDo=     1
 LinEq1:  Iter=  5 NonCon=     1 RMS=6.58D-07 Max=1.02D-05 NDo=     1
 LinEq1:  Iter=  6 NonCon=     1 RMS=1.64D-07 Max=3.79D-06 NDo=     1
 LinEq1:  Iter=  7 NonCon=     1 RMS=4.75D-08 Max=1.10D-06 NDo=     1
 LinEq1:  Iter=  8 NonCon=     1 RMS=1.51D-08 Max=4.21D-07 NDo=     1
 LinEq1:  Iter=  9 NonCon=     0 RMS=4.67D-09 Max=9.65D-08 NDo=     1
 Linear equations converged to 9.819D-09 9.819D-08 after     9 iterations.
     Accept linear search using points  1 and  2.
     Minimum is close to point  2 DX= -6.63D-02 DF= -4.19D-06 DXR=  7.10D-02 DFR=  5.10D-03 which will be used.
 Gradient too large for Newton-Raphson -- use scaled steepest descent instead.
 LinEq1:  Iter=  0 NonCon=     1 RMS=1.70D-04 Max=5.26D-03 NDo=     1
 LinEq1:  Iter=  1 NonCon=     1 RMS=9.18D-05 Max=2.84D-03 NDo=     1
 LinEq1:  Iter=  2 NonCon=     1 RMS=2.23D-05 Max=5.10D-04 NDo=     1
 LinEq1:  Iter=  3 NonCon=     1 RMS=7.67D-06 Max=1.60D-04 NDo=     1
 LinEq1:  Iter=  4 NonCon=     1 RMS=1.43D-06 Max=2.83D-05 NDo=     1
 LinEq1:  Iter=  5 NonCon=     1 RMS=4.99D-07 Max=1.14D-05 NDo=     1
 LinEq1:  Iter=  6 NonCon=     1 RMS=1.63D-07 Max=3.09D-06 NDo=     1
 LinEq1:  Iter=  7 NonCon=     1 RMS=5.68D-08 Max=1.53D-06 NDo=     1
 LinEq1:  Iter=  8 NonCon=     1 RMS=1.33D-08 Max=2.55D-07 NDo=     1
 LinEq1:  Iter=  9 NonCon=     1 RMS=4.20D-09 Max=1.24D-07 NDo=     1
 LinEq1:  Iter= 10 NonCon=     0 RMS=1.26D-09 Max=4.01D-08 NDo=     1
 Linear equations converged to 9.819D-09 9.819D-08 after    10 iterations.
 Incorrect curvature in search direction -- initial direction reversed.
     Minimum is close to point  5 DX=  1.28D-01 DF= -1.22D-05 DXR=  2.27D-02 DFR=  1.74D-03 which will be used.
 Gradient too large for Newton-Raphson -- use scaled steepest descent instead.
     Accept linear search using points  1 and  2.
     Minimum is close to point  2 DX= -6.96D-02 DF= -2.47D-05 DXR=  4.55D-02 DFR=  4.06D-03 which will be used.
 Gradient too large for Newton-Raphson -- use scaled steepest descent instead.
     Accept linear search using points  1 and  2.
 Gradient too large for Newton-Raphson -- use scaled steepest descent instead.
     Accept linear search using points  1 and  2.
     Minimum is close to point  2 DX= -7.56D-02 DF= -4.86D-06 DXR=  5.30D-02 DFR=  5.04D-03 which will be used.
 Gradient too large for Newton-Raphson -- use scaled steepest descent instead.
     Accept linear search using points  1 and  2.
     Minimum is close to point  2 DX= -6.52D-02 DF= -1.80D-06 DXR=  4.88D-02 DFR=  3.93D-03 which will be used.
 LinEq1:  Iter=  0 NonCon=     1 RMS=1.87D-04 Max=3.86D-03 NDo=     1
 LinEq1:  Iter=  1 NonCon=     1 RMS=9.22D-05 Max=1.66D-03 NDo=     1
 LinEq1:  Iter=  2 NonCon=     1 RMS=1.10D-05 Max=1.94D-04 NDo=     1
 LinEq1:  Iter=  3 NonCon=     1 RMS=5.38D-06 Max=9.77D-05 NDo=     1
 LinEq1:  Iter=  4 NonCon=     1 RMS=1.02D-06 Max=1.94D-05 NDo=     1
 LinEq1:  Iter=  5 NonCon=     1 RMS=3.87D-07 Max=7.90D-06 NDo=     1
 LinEq1:  Iter=  6 NonCon=     1 RMS=8.89D-08 Max=2.28D-06 NDo=     1
 LinEq1:  Iter=  7 NonCon=     1 RMS=2.17D-08 Max=7.77D-07 NDo=     1
 LinEq1:  Iter=  8 NonCon=     1 RMS=7.65D-09 Max=1.87D-07 NDo=     1
 LinEq1:  Iter=  9 NonCon=     0 RMS=1.99D-09 Max=4.65D-08 NDo=     1
 Linear equations converged to 9.819D-09 9.819D-08 after     9 iterations.
     Accept linear search using points  1 and  2.
     Minimum is close to point  2 DX= -5.58D-02 DF= -1.56D-06 DXR=  5.91D-02 DFR=  3.64D-03 which will be used.
 LinEq1:  Iter=  0 NonCon=     1 RMS=1.44D-05 Max=2.55D-04 NDo=     1
 LinEq1:  Iter=  1 NonCon=     1 RMS=3.45D-06 Max=4.84D-05 NDo=     1
 LinEq1:  Iter=  2 NonCon=     1 RMS=1.02D-06 Max=1.69D-05 NDo=     1
 LinEq1:  Iter=  3 NonCon=     1 RMS=2.91D-07 Max=4.26D-06 NDo=     1
 LinEq1:  Iter=  4 NonCon=     1 RMS=8.74D-08 Max=1.78D-06 NDo=     1
 LinEq1:  Iter=  5 NonCon=     1 RMS=2.77D-08 Max=1.05D-06 NDo=     1
 LinEq1:  Iter=  6 NonCon=     1 RMS=8.58D-09 Max=3.20D-07 NDo=     1
 LinEq1:  Iter=  7 NonCon=     1 RMS=2.46D-09 Max=6.25D-08 NDo=     1
 LinEq1:  Iter=  8 NonCon=     0 RMS=7.12D-10 Max=1.38D-08 NDo=     1
 Linear equations converged to 5.674D-09 5.674D-08 after     8 iterations.
     Minimum is close to point  2 DX=  6.66D-03 DF= -1.65D-10 DXR=  6.62D-03 DFR=  4.38D-05 which will be used.
 LinEq1:  Iter=  0 NonCon=     1 RMS=1.62D-06 Max=2.78D-05 NDo=     1
 LinEq1:  Iter=  1 NonCon=     1 RMS=6.69D-07 Max=1.52D-05 NDo=     1
 LinEq1:  Iter=  2 NonCon=     1 RMS=1.78D-07 Max=4.47D-06 NDo=     1
 LinEq1:  Iter=  3 NonCon=     1 RMS=4.87D-08 Max=1.72D-06 NDo=     1
 LinEq1:  Iter=  4 NonCon=     1 RMS=1.55D-08 Max=4.40D-07 NDo=     1
 LinEq1:  Iter=  5 NonCon=     1 RMS=4.99D-09 Max=1.04D-07 NDo=     1
 LinEq1:  Iter=  6 NonCon=     1 RMS=1.59D-09 Max=2.56D-08 NDo=     1
 LinEq1:  Iter=  7 NonCon=     0 RMS=4.69D-10 Max=7.92D-09 NDo=     1
 Linear equations converged to 8.887D-10 8.887D-09 after     7 iterations.
 LinEq1:  Iter=  0 NonCon=     1 RMS=1.56D-07 Max=2.63D-06 NDo=     1
 LinEq1:  Iter=  1 NonCon=     1 RMS=6.40D-08 Max=1.48D-06 NDo=     1
 LinEq1:  Iter=  2 NonCon=     1 RMS=1.82D-08 Max=3.46D-07 NDo=     1
 LinEq1:  Iter=  3 NonCon=     1 RMS=5.40D-09 Max=1.43D-07 NDo=     1
 LinEq1:  Iter=  4 NonCon=     1 RMS=1.84D-09 Max=6.15D-08 NDo=     1
 LinEq1:  Iter=  5 NonCon=     1 RMS=5.48D-10 Max=1.46D-08 NDo=     1
 LinEq1:  Iter=  6 NonCon=     1 RMS=1.43D-10 Max=2.80D-09 NDo=     1
 LinEq1:  Iter=  7 NonCon=     1 RMS=5.23D-11 Max=8.55D-10 NDo=     1
 LinEq1:  Iter=  8 NonCon=     0 RMS=9.25D-12 Max=1.72D-10 NDo=     1
 Linear equations converged to 7.971D-11 7.971D-10 after     8 iterations.
 SCF Done:  E(UPM6) =   2.30598148360     a.u. after   46 cycles
            Convg  =    0.5702D-06                   131 Fock formations.
              S**2 =  6.3779                  -V/T =  1.0252
 <Sx>= 0.0000 <Sy>= 0.0000 <Sz>= 0.5000 <S**2>= 6.3779 S= 2.0745
 <L.S>= 0.000000000000E+00
 Annihilation of the first spin contaminant:
 S**2 before annihilation     6.3779,   after    22.4557

 **********************************************************************

            Population analysis using the SCF density.

 **********************************************************************

 Orbital symmetries:
 Alpha Orbitals:
       Occupied  (A) (A) (A) (A) (A) (A) (A) (A) (A) (A) (A) (A)
                 (A) (A) (A) (A) (A) (A) (A) (A) (A) (A) (A) (A)
                 (A) (A) (A) (A) (A) (A) (A) (A) (A) (A) (A) (A)
                 (A) (A) (A) (A) (A) (A) (A) (A) (A) (A) (A) (A)
                 (A) (A) (A) (A) (A) (A) (A) (A) (A) (A) (A) (A)
                 (A) (A) (A) (A) (A) (A) (A)
       Virtual   (A) (A) (A) (A) (A) (A) (A) (A) (A) (A) (A) (A)
                 (A) (A) (A) (A) (A) (A) (A) (A) (A) (A) (A) (A)
                 (A) (A) (A) (A) (A) (A) (A) (A) (A) (A) (A) (A)
                 (A) (A) (A) (A) (A) (A) (A) (A) (A) (A) (A) (A)
                 (A) (A) (A) (A) (A) (A) (A) (A) (A) (A) (A) (A)
                 (A) (A) (A) (A) (A) (A) (A) (A) (A) (A) (A) (A)
 Beta  Orbitals:
       Occupied  (A) (A) (A) (A) (A) (A) (A) (A) (A) (A) (A) (A)
                 (A) (A) (A) (A) (A) (A) (A) (A) (A) (A) (A) (A)
                 (A) (A) (A) (A) (A) (A) (A) (A) (A) (A) (A) (A)
                 (A) (A) (A) (A) (A) (A) (A) (A) (A) (A) (A) (A)
                 (A) (A) (A) (A) (A) (A) (A) (A) (A) (A) (A) (A)
                 (A) (A) (A) (A) (A) (A)
       Virtual   (A) (A) (A) (A) (A) (A) (A) (A) (A) (A) (A) (A)
                 (A) (A) (A) (A) (A) (A) (A) (A) (A) (A) (A) (A)
                 (A) (A) (A) (A) (A) (A) (A) (A) (A) (A) (A) (A)
                 (A) (A) (A) (A) (A) (A) (A) (A) (A) (A) (A) (A)
                 (A) (A) (A) (A) (A) (A) (A) (A) (A) (A) (A) (A)
                 (A) (A) (A) (A) (A) (A) (A) (A) (A) (A) (A) (A)
                 (A)
 The electronic state is 2-A.
 Alpha  occ. eigenvalues --   -1.16365  -1.06242  -1.05307  -1.03733  -1.00441
 Alpha  occ. eigenvalues --   -0.99492  -0.97891  -0.96556  -0.93399  -0.90943
 Alpha  occ. eigenvalues --   -0.90793  -0.90299  -0.87201  -0.85297  -0.83643
 Alpha  occ. eigenvalues --   -0.79426  -0.78069  -0.75753  -0.75678  -0.72510
 Alpha  occ. eigenvalues --   -0.71958  -0.70606  -0.67612  -0.66278  -0.64925
 Alpha  occ. eigenvalues --   -0.60341  -0.59152  -0.58806  -0.57072  -0.55954
 Alpha  occ. eigenvalues --   -0.55740  -0.55413  -0.52556  -0.52424  -0.51957
 Alpha  occ. eigenvalues --   -0.51283  -0.50028  -0.49423  -0.48806  -0.48634
 Alpha  occ. eigenvalues --   -0.47959  -0.47706  -0.47286  -0.46826  -0.46100
 Alpha  occ. eigenvalues --   -0.45449  -0.44977  -0.44679  -0.44135  -0.43266
 Alpha  occ. eigenvalues --   -0.42878  -0.41816  -0.41100  -0.40987  -0.40355
 Alpha  occ. eigenvalues --   -0.40163  -0.39650  -0.39219  -0.38560  -0.37766
 Alpha  occ. eigenvalues --   -0.37087  -0.36438  -0.35640  -0.34961  -0.34146
 Alpha  occ. eigenvalues --   -0.32224  -0.30149
 Alpha virt. eigenvalues --   -0.05418  -0.03899  -0.03087  -0.00851  -0.00673
 Alpha virt. eigenvalues --   -0.00422   0.00384   0.01787   0.02348   0.02924
 Alpha virt. eigenvalues --    0.03794   0.03889   0.05016   0.05527   0.06729
 Alpha virt. eigenvalues --    0.06900   0.08686   0.09380   0.10356   0.11946
 Alpha virt. eigenvalues --    0.12285   0.13194   0.13478   0.13674   0.13835
 Alpha virt. eigenvalues --    0.14057   0.14205   0.14540   0.14627   0.14985
 Alpha virt. eigenvalues --    0.15119   0.15223   0.15229   0.15412   0.15479
 Alpha virt. eigenvalues --    0.15954   0.16152   0.16508   0.16647   0.16698
 Alpha virt. eigenvalues --    0.16805   0.17160   0.17257   0.17333   0.17523
 Alpha virt. eigenvalues --    0.17633   0.17949   0.18135   0.18257   0.18937
 Alpha virt. eigenvalues --    0.19025   0.19337   0.19527   0.20418   0.20478
 Alpha virt. eigenvalues --    0.21237   0.21597   0.21681   0.21717   0.21752
 Alpha virt. eigenvalues --    0.21832   0.21897   0.22210   0.22366   0.22386
 Alpha virt. eigenvalues --    0.22502   0.22542   0.22632   0.22658   0.23479
 Alpha virt. eigenvalues --    0.25730   0.25972
  Beta  occ. eigenvalues --   -1.16233  -1.06154  -1.05306  -1.03661  -1.00461
  Beta  occ. eigenvalues --   -0.99519  -0.97787  -0.96578  -0.93319  -0.90750
  Beta  occ. eigenvalues --   -0.90612  -0.90305  -0.87041  -0.84854  -0.83676
  Beta  occ. eigenvalues --   -0.79250  -0.78061  -0.75717  -0.75510  -0.72436
  Beta  occ. eigenvalues --   -0.72078  -0.70451  -0.67747  -0.66110  -0.64751
  Beta  occ. eigenvalues --   -0.60304  -0.59072  -0.58396  -0.57078  -0.55976
  Beta  occ. eigenvalues --   -0.55284  -0.55267  -0.52846  -0.52316  -0.51892
  Beta  occ. eigenvalues --   -0.50915  -0.49834  -0.49112  -0.48776  -0.48512
  Beta  occ. eigenvalues --   -0.48195  -0.47747  -0.47305  -0.46718  -0.45787
  Beta  occ. eigenvalues --   -0.45309  -0.44898  -0.44459  -0.43891  -0.43329
  Beta  occ. eigenvalues --   -0.42602  -0.41510  -0.41479  -0.41094  -0.40253
  Beta  occ. eigenvalues --   -0.39959  -0.39539  -0.38883  -0.38636  -0.37536
  Beta  occ. eigenvalues --   -0.36947  -0.36083  -0.35290  -0.32877  -0.31550
  Beta  occ. eigenvalues --   -0.31222
  Beta virt. eigenvalues --   -0.05553  -0.03419  -0.01912  -0.01464  -0.00861
  Beta virt. eigenvalues --   -0.00229  -0.00035   0.00313   0.01589   0.02527
  Beta virt. eigenvalues --    0.02793   0.03356   0.04376   0.04865   0.06101
  Beta virt. eigenvalues --    0.06274   0.06821   0.08672   0.09727   0.10867
  Beta virt. eigenvalues --    0.11895   0.12344   0.13101   0.13442   0.13555
  Beta virt. eigenvalues --    0.13868   0.13990   0.14119   0.14662   0.14752
  Beta virt. eigenvalues --    0.14862   0.14939   0.15114   0.15386   0.15498
  Beta virt. eigenvalues --    0.15575   0.15769   0.16159   0.16553   0.16727
  Beta virt. eigenvalues --    0.16883   0.17023   0.17105   0.17280   0.17463
  Beta virt. eigenvalues --    0.17545   0.17709   0.17926   0.18149   0.18326
  Beta virt. eigenvalues --    0.18992   0.19118   0.19470   0.19639   0.20525
  Beta virt. eigenvalues --    0.20576   0.21101   0.21763   0.21949   0.22063
  Beta virt. eigenvalues --    0.22101   0.22134   0.22156   0.22234   0.22279
  Beta virt. eigenvalues --    0.22312   0.22323   0.22707   0.22730   0.22808
  Beta virt. eigenvalues --    0.23542   0.25902   0.26050
          Condensed to atoms (all electrons):
               1          2          3          4          5          6
     1  C    4.114796   0.000000   0.000000   0.000000   0.000000   0.000000
     2  C    0.000000   4.144627   0.000000   0.000000   0.000000   0.000000
     3  C    0.000000   0.000000   4.008189   0.000000   0.000000   0.000000
     4  C    0.000000   0.000000   0.000000   4.001818   0.000000   0.000000
     5  C    0.000000   0.000000   0.000000   0.000000   4.169252   0.000000
     6  C    0.000000   0.000000   0.000000   0.000000   0.000000   4.135540
     7  C    0.000000   0.000000   0.000000   0.000000   0.000000   0.000000
     8  C    0.000000   0.000000   0.000000   0.000000   0.000000   0.000000
     9  C    0.000000   0.000000   0.000000   0.000000   0.000000   0.000000
    10  C    0.000000   0.000000   0.000000   0.000000   0.000000   0.000000
    11  C    0.000000   0.000000   0.000000   0.000000   0.000000   0.000000
    12  C    0.000000   0.000000   0.000000   0.000000   0.000000   0.000000
    13  C    0.000000   0.000000   0.000000   0.000000   0.000000   0.000000
    14  C    0.000000   0.000000   0.000000   0.000000   0.000000   0.000000
    15  C    0.000000   0.000000   0.000000   0.000000   0.000000   0.000000
    16  C    0.000000   0.000000   0.000000   0.000000   0.000000   0.000000
    17  C    0.000000   0.000000   0.000000   0.000000   0.000000   0.000000
    18  C    0.000000   0.000000   0.000000   0.000000   0.000000   0.000000
    19  C    0.000000   0.000000   0.000000   0.000000   0.000000   0.000000
    20  C    0.000000   0.000000   0.000000   0.000000   0.000000   0.000000
    21  C    0.000000   0.000000   0.000000   0.000000   0.000000   0.000000
    22  C    0.000000   0.000000   0.000000   0.000000   0.000000   0.000000
    23  C    0.000000   0.000000   0.000000   0.000000   0.000000   0.000000
    24  C    0.000000   0.000000   0.000000   0.000000   0.000000   0.000000
    25  C    0.000000   0.000000   0.000000   0.000000   0.000000   0.000000
    26  C    0.000000   0.000000   0.000000   0.000000   0.000000   0.000000
    27  C    0.000000   0.000000   0.000000   0.000000   0.000000   0.000000
    28  C    0.000000   0.000000   0.000000   0.000000   0.000000   0.000000
    29  C    0.000000   0.000000   0.000000   0.000000   0.000000   0.000000
    30  H    0.000000   0.000000   0.000000   0.000000   0.000000   0.000000
    31  H    0.000000   0.000000   0.000000   0.000000   0.000000   0.000000
    32  H    0.000000   0.000000   0.000000   0.000000   0.000000   0.000000
    33  H    0.000000   0.000000   0.000000   0.000000   0.000000   0.000000
    34  H    0.000000   0.000000   0.000000   0.000000   0.000000   0.000000
    35  H    0.000000   0.000000   0.000000   0.000000   0.000000   0.000000
    36  H    0.000000   0.000000   0.000000   0.000000   0.000000   0.000000
    37  H    0.000000   0.000000   0.000000   0.000000   0.000000   0.000000
    38  H    0.000000   0.000000   0.000000   0.000000   0.000000   0.000000
    39  H    0.000000   0.000000   0.000000   0.000000   0.000000   0.000000
    40  H    0.000000   0.000000   0.000000   0.000000   0.000000   0.000000
    41  H    0.000000   0.000000   0.000000   0.000000   0.000000   0.000000
    42  H    0.000000   0.000000   0.000000   0.000000   0.000000   0.000000
    43  H    0.000000   0.000000   0.000000   0.000000   0.000000   0.000000
    44  Sc   0.000000   0.000000   0.000000   0.000000   0.000000   0.000000
               7          8          9         10         11         12
     1  C    0.000000   0.000000   0.000000   0.000000   0.000000   0.000000
     2  C    0.000000   0.000000   0.000000   0.000000   0.000000   0.000000
     3  C    0.000000   0.000000   0.000000   0.000000   0.000000   0.000000
     4  C    0.000000   0.000000   0.000000   0.000000   0.000000   0.000000
     5  C    0.000000   0.000000   0.000000   0.000000   0.000000   0.000000
     6  C    0.000000   0.000000   0.000000   0.000000   0.000000   0.000000
     7  C    4.135464   0.000000   0.000000   0.000000   0.000000   0.000000
     8  C    0.000000   4.087344   0.000000   0.000000   0.000000   0.000000
     9  C    0.000000   0.000000   4.114864   0.000000   0.000000   0.000000
    10  C    0.000000   0.000000   0.000000   4.073952   0.000000   0.000000
    11  C    0.000000   0.000000   0.000000   0.000000   4.033451   0.000000
    12  C    0.000000   0.000000   0.000000   0.000000   0.000000   4.157098
    13  C    0.000000   0.000000   0.000000   0.000000   0.000000   0.000000
    14  C    0.000000   0.000000   0.000000   0.000000   0.000000   0.000000
    15  C    0.000000   0.000000   0.000000   0.000000   0.000000   0.000000
    16  C    0.000000   0.000000   0.000000   0.000000   0.000000   0.000000
    17  C    0.000000   0.000000   0.000000   0.000000   0.000000   0.000000
    18  C    0.000000   0.000000   0.000000   0.000000   0.000000   0.000000
    19  C    0.000000   0.000000   0.000000   0.000000   0.000000   0.000000
    20  C    0.000000   0.000000   0.000000   0.000000   0.000000   0.000000
    21  C    0.000000   0.000000   0.000000   0.000000   0.000000   0.000000
    22  C    0.000000   0.000000   0.000000   0.000000   0.000000   0.000000
    23  C    0.000000   0.000000   0.000000   0.000000   0.000000   0.000000
    24  C    0.000000   0.000000   0.000000   0.000000   0.000000   0.000000
    25  C    0.000000   0.000000   0.000000   0.000000   0.000000   0.000000
    26  C    0.000000   0.000000   0.000000   0.000000   0.000000   0.000000
    27  C    0.000000   0.000000   0.000000   0.000000   0.000000   0.000000
    28  C    0.000000   0.000000   0.000000   0.000000   0.000000   0.000000
    29  C    0.000000   0.000000   0.000000   0.000000   0.000000   0.000000
    30  H    0.000000   0.000000   0.000000   0.000000   0.000000   0.000000
    31  H    0.000000   0.000000   0.000000   0.000000   0.000000   0.000000
    32  H    0.000000   0.000000   0.000000   0.000000   0.000000   0.000000
    33  H    0.000000   0.000000   0.000000   0.000000   0.000000   0.000000
    34  H    0.000000   0.000000   0.000000   0.000000   0.000000   0.000000
    35  H    0.000000   0.000000   0.000000   0.000000   0.000000   0.000000
    36  H    0.000000   0.000000   0.000000   0.000000   0.000000   0.000000
    37  H    0.000000   0.000000   0.000000   0.000000   0.000000   0.000000
    38  H    0.000000   0.000000   0.000000   0.000000   0.000000   0.000000
    39  H    0.000000   0.000000   0.000000   0.000000   0.000000   0.000000
    40  H    0.000000   0.000000   0.000000   0.000000   0.000000   0.000000
    41  H    0.000000   0.000000   0.000000   0.000000   0.000000   0.000000
    42  H    0.000000   0.000000   0.000000   0.000000   0.000000   0.000000
    43  H    0.000000   0.000000   0.000000   0.000000   0.000000   0.000000
    44  Sc   0.000000   0.000000   0.000000   0.000000   0.000000   0.000000
[...]
 96,-0.00134917,-0.00153259,-0.07896312,0.04955941,0.00011529,-0.000018
 10,0.00000581,-0.00129663,0.00096195,-0.00021520,-0.00595793,0.0271485
 0,-0.00754813,-0.00747229,-0.02835741,0.00588989,0.00003339,0.00000155
 ,-0.00000700,-0.03351381,-0.00265395,0.00147968,-0.00147597,-0.0010641
 1,0.00019682,0.00005240,-0.00007883,0.00000731,0.00000660,-0.00001325,
 -0.00000372,-0.00003990,-0.00000917,0.00003050,0.00000142,0.00003497,-
 0.00000718,0.00000614,0.00000521,0.00000008,-0.00009606,0.00039909,-0.
 00024264,-0.00000839,-0.00000423,0.00000979,-0.00000875,-0.00000351,0.
 00000245,-0.00005750,-0.00000961,0.00000993,-0.00001080,-0.00000185,0.
 00001820,-0.00000426,0.00000267,-0.00000019,0.00007383,-0.00043463,0.0
 0001379,-0.00002808,0.00001762,-0.00000621,-0.00000261,-0.00000405,-0.
 00000077,-0.00220509,0.00073089,-0.00047884,0.00000499,-0.00000632,-0.
 00000578,-0.00232288,-0.00096553,-0.00028190,0.00002201,0.00003363,0.0
 0001768,0.00000345,-0.00000923,-0.00000839,0.00004929,0.00001078,0.000
 00383,-0.00010763,-0.00009102,-0.00002844,-0.00000215,-0.00000848,-0.0
 0000127,-0.00001187,0.00000126,0.00000127,0.00000775,-0.00002522,0.000
 00068,0.00000237,0.00000061,0.00000064,0.00000008,0.00000101,0.0000001
 1,0.00000026,0.00000027,-0.00000067,0.00000041,0.00000152,0.00000014,-
 0.00000078,0.00000087,-0.00000015,0.00000090,0.00000293,-0.00000099,0.
 00000133,0.00000810,0.00000593,-0.00000472,-0.00000840,-0.00000816,-0.
 00087792,-0.00007563,0.00007572,0.05606148,-0.00040381,0.00009019,-0.0
 0003813,0.00093634,-0.00024898,-0.00029051,0.01320176,-0.02321723,0.00
 824568,-0.01577469,-0.02478064,0.00611857,0.00022838,-0.00013674,0.000
 02586,-0.00183620,-0.21065056,0.04242000,-0.00066037,-0.00021767,-0.00
 021905,-0.00001542,-0.00003220,0.00001612,-0.00001730,-0.00000140,0.00
 000351,-0.00014741,-0.00021914,0.00003018,-0.00001571,-0.00000442,0.00
 001270,-0.00001316,0.00001147,0.00000888,0.00014585,-0.00015885,0.0000
 6124,-0.00002339,-0.00001314,-0.00002925,-0.00001628,0.00000972,0.0000
 0625,0.00027475,0.00034313,-0.00005697,-0.00012612,0.00009449,-0.00008
 118,-0.00001484,0.00004708,0.00000490,-0.00007003,-0.00012390,-0.00005
 082,-0.00006630,-0.00001117,-0.00002898,0.00001670,0.00004703,0.000009
 80,0.00090820,-0.00038913,0.00095476,0.00003662,0.00003669,0.00001597,
 -0.00117207,0.00010066,0.00084598,0.00008416,-0.00021637,-0.00008218,-
 0.00002899,-0.00006858,-0.00002535,0.00017672,-0.00003795,0.00001893,0
 .00002907,-0.00002144,-0.00001427,0.00000554,0.00002727,0.00000830,-0.
 00006461,-0.00003477,0.00000147,-0.00003331,-0.00002625,-0.00000471,-0
 .00001960,-0.00001205,-0.00000477,-0.00000331,-0.00003015,-0.00000216,
 -0.00000056,-0.00002572,-0.00000152,0.00000312,-0.00001980,-0.00000917
 ,0.00001753,-0.00000864,-0.00001116,0.00002403,0.00001204,-0.00000652,
 0.00002407,0.00001932,0.00000538,0.00002907,0.00008796,0.00000571,0.00
 016363,0.00037004,-0.00002774,0.00423663,0.25888406,-0.00019162,0.0003
 9830,-0.00030568,0.00061067,-0.00019444,-0.00101348,-0.00706867,0.0108
 4369,0.00359615,0.00046338,0.00431991,0.00506949,-0.00013840,-0.000171
 56,0.00000098,0.00480342,0.04223507,-0.04679547,0.00060504,-0.00049251
 ,-0.00107846,0.00002373,0.00004526,0.00001835,-0.00000042,0.00000828,-
 0.00000455,-0.00014941,-0.00040811,0.00011389,0.00000976,-0.00001203,-
 0.00001259,-0.00000192,-0.00001140,-0.00000728,0.00049643,-0.00009518,
 -0.00018932,0.00001738,-0.00002114,-0.00002403,0.00000952,-0.00000789,
 -0.00001364,0.00105292,0.00030760,0.00013060,-0.00003495,0.00001996,-0
 .00001334,0.00000459,-0.00001404,-0.00001274,-0.00005490,0.00027294,-0
 .00014812,0.00002954,-0.00000483,0.00001479,0.00000883,-0.00000986,-0.
 00000502,-0.00140952,-0.00037748,0.00313767,0.00000860,0.00001762,0.00
 000552,-0.00039439,0.00145505,0.00363992,0.00012584,-0.00020128,-0.000
 43714,-0.00003159,-0.00000027,0.00002966,0.00005647,0.00008623,-0.0000
 3809,0.00002019,-0.00007039,-0.00006214,-0.00001705,-0.00000571,0.0000
 1070,0.00001026,0.00000797,0.00003120,0.00000345,0.00000526,0.00000810
 ,0.00000420,0.00000109,0.00000669,-0.00000033,0.00000577,0.00000071,0.
 00000017,0.00000545,0.00000332,0.00000165,0.00000618,0.00000581,-0.000
 00455,0.00000151,0.00000690,-0.00000507,-0.00000532,0.00000706,-0.0000
 0481,-0.00000500,0.00001226,0.00000411,0.00001456,0.00011813,0.0000138
 5,-0.00000599,0.00034212,0.00117956,-0.05801510,0.03340729,0.00003208,
 -0.00001631,0.00000903,-0.00001107,-0.00004684,0.00000975,0.00008714,-
 0.00004020,-0.00000170,-0.00641834,0.02782161,-0.00459627,-0.00731689,
 -0.02896934,0.00178692,-0.00160061,0.00110189,-0.00018436,-0.03376293,
 -0.00127473,0.00089769,0.00000755,-0.00000726,-0.00000007,-0.00000147,
 -0.00000324,0.00000184,0.00000016,0.00001326,0.00000203,0.00000451,0.0
 0000614,-0.00000277,0.00000031,-0.00000183,-0.00000033,-0.00003593,-0.
 00004486,0.00001342,-0.00000416,-0.00000330,0.00000207,0.00000022,-0.0
 0000337,-0.00000116,0.00008271,0.00046642,-0.00005297,0.00000268,0.000
 01838,0.00000464,0.00000521,-0.00000064,-0.00000019,-0.00007319,-0.000
 01319,-0.00000710,0.00000678,-0.00001282,-0.00000252,0.00000584,0.0000
 0170,0.00000074,0.00006900,0.00002146,0.00001143,-0.00000015,-0.000001
 05,-0.00000042,-0.00229079,0.00083326,-0.00072953,-0.00010601,0.000033
 29,-0.00004395,-0.00001458,0.00000443,-0.00000073,-0.00240648,-0.00125
 268,-0.00069421,-0.00000297,0.00003377,0.00004422,-0.00000311,0.000006
 99,-0.00000240,0.00005673,-0.00043398,0.00003847,-0.00000138,0.0000076
 5,-0.00000132,0.00000125,0.00000192,0.00000017,0.00000006,0.00000040,0
 .00000016,-0.00000019,0.00000127,-0.00000025,0.00000011,0.00000262,0.0
 0000051,-0.00000161,0.00000095,0.00000055,-0.00000100,0.00000047,-0.00
 000023,-0.00000090,0.00000069,0.00000017,-0.00000317,-0.00000262,-0.00
 000059,-0.00002643,0.00002163,-0.00000638,-0.00090839,-0.00011478,0.00
 001558,0.05496940,-0.00004080,0.00001392,-0.00001649,0.00000914,-0.000
 03077,-0.00001481,-0.00023997,-0.00000571,0.00001459,0.01402967,-0.024
 47129,0.00511789,-0.01529138,-0.02699431,0.00199708,0.00090984,-0.0002
 0911,-0.00009377,-0.00141373,-0.21818783,0.02058297,0.00004882,-0.0000
 7994,-0.00000329,-0.00001445,-0.00000800,0.00000225,-0.00010645,-0.000
 02273,-0.00000544,-0.00000297,0.00002808,0.00000223,-0.00000925,0.0000
 1003,0.00000660,-0.00004790,0.00002128,0.00002465,-0.00003043,-0.00001
 531,-0.00001722,-0.00001975,0.00000595,0.00000561,-0.00002865,-0.00020
 395,0.00001040,-0.00009817,0.00000576,-0.00004144,-0.00000293,0.000035
 56,-0.00000653,0.00014338,0.00040425,-0.00000940,-0.00008921,0.0001119
 0,-0.00002430,-0.00003914,0.00005786,-0.00000653,0.00004872,-0.0000993
 5,0.00003545,0.00003485,0.00002448,0.00000828,0.00100178,-0.00034471,0
 .00055938,0.00008399,-0.00002941,0.00001708,-0.00001816,0.00000830,-0.
 00001066,-0.00123750,-0.00006968,0.00041310,0.00009661,-0.00014129,-0.
 00003904,0.00001348,-0.00007407,-0.00000418,-0.00010341,-0.00024953,-0
 .00005534,-0.00005388,-0.00004101,-0.00000786,-0.00001932,-0.00001908,
 -0.00000393,-0.00000652,-0.00003411,-0.00000441,0.00000235,-0.00002844
 ,0.00000011,0.00000411,-0.00001702,-0.00000774,0.00001418,-0.00000746,
 -0.00000902,0.00002032,0.00000983,-0.00000527,0.00001846,0.00001216,0.
 00001063,0.00002497,0.00002792,-0.00000836,-0.00001401,0.00009578,-0.0
 0001687,0.00014562,0.00042284,-0.00003545,0.00264312,0.26960773,0.0000
 5332,-0.00004043,0.00000139,-0.00002867,0.00003981,-0.00002275,-0.0000
 6770,0.00011914,-0.00002446,-0.00477688,0.00694469,0.00487304,-0.00079
 675,-0.00052407,0.00618329,0.00040249,0.00019413,-0.00089743,0.0028311
 6,0.02059114,-0.03999500,0.00003241,-0.00002200,-0.00000734,0.00000393
 ,0.00000111,-0.00000522,0.00000602,0.00006196,-0.00001659,0.00000116,0
 .00000023,-0.00000810,0.00000149,-0.00000146,-0.00000345,-0.00004841,0
 .00000060,0.00000825,0.00001213,-0.00000852,-0.00000617,0.00000144,-0.
 00000298,-0.00000577,0.00002473,-0.00008245,-0.00015709,0.00000827,-0.
 00002045,-0.00000421,-0.00000407,-0.00000494,-0.00000346,0.00030819,0.
 00002385,0.00011374,-0.00003657,0.00005024,0.00001868,-0.00001602,-0.0
 0000318,-0.00000870,0.00006726,-0.00006159,0.00004080,0.00000387,0.000
 00284,-0.00000263,-0.00091989,0.00026231,0.00309794,-0.00000009,0.0000
 4038,-0.00006787,0.00001155,0.00001305,-0.00000249,-0.00063354,0.00097
 750,0.00455772,0.00011790,-0.00005606,-0.00047461,0.00000142,-0.000028
 97,0.00002886,0.00006276,0.00000314,-0.00034679,0.00000204,0.00000143,
 0.00003147,0.00000269,0.00000194,0.00000659,0.00000080,0.00000403,0.00
 000042,0.00000050,0.00000322,0.00000480,0.00000086,0.00000284,0.000003
 51,-0.00000216,0.00000089,0.00000369,-0.00000231,-0.00000256,0.0000032
 0,-0.00000305,-0.00000137,0.00000880,-0.00000407,-0.00000279,0.0000078
 7,0.00000549,-0.00000927,0.00003227,-0.00002807,-0.00000666,0.00029973
 ,0.00332410,-0.02825808,0.02378189,0.00001482,0.00000239,0.00000577,0.
 00000313,0.00001858,0.00000239,-0.00002841,-0.00008317,0.00006731,-0.0
 0166164,-0.00158906,-0.00051501,-0.17032041,0.07901349,-0.02139805,-0.
 00043352,0.00020735,-0.00005384,-0.04078862,0.00440666,-0.00543411,-0.
 00002875,0.00005594,0.00000592,0.00000821,0.00000811,0.00000096,0.0000
 6531,0.00000080,0.00000846,0.00001050,-0.00002168,-0.00000838,0.000006
 07,-0.00001397,-0.00000614,0.00004494,-0.00003281,-0.00001103,0.000025
 48,0.00000124,0.00001261,0.00001972,-0.00000890,-0.00000841,-0.0000162
 6,0.00002788,0.00003638,0.00007854,-0.00002942,0.00003524,0.00000743,-
 0.00003633,0.00000175,0.00016742,-0.00028538,-0.00048857,0.00004888,-0
 .00006115,0.00003601,0.00001931,-0.00005000,-0.00000076,-0.00005355,0.
 00000595,-0.00001051,-0.00002986,-0.00001924,-0.00000550,0.00017482,-0
 .00014108,0.00003354,-0.00002699,0.00003386,-0.00000193,0.00001322,0.0
 0000898,0.00001463,-0.00241826,0.01184408,-0.00181435,0.00001917,0.000
 00113,0.00003494,-0.00000989,0.00001971,0.00000487,0.00079757,-0.00019
 743,0.00021055,0.00007785,0.00004899,0.00000195,0.00002668,0.00001915,
 0.00000507,0.00000672,0.00002989,0.00000299,-0.00000031,0.00002554,0.0
 0000005,-0.00000266,0.00001767,0.00000749,-0.00001313,0.00000753,0.000
 00836,-0.00001648,-0.00000685,0.00000402,-0.00001361,-0.00000756,-0.00
 000690,-0.00002334,-0.00001683,0.00000651,-0.00000489,-0.00002953,0.00
 000508,0.00000018,-0.00004364,-0.00000864,-0.00034811,-0.00045898,0.00
 011894,0.21467513,-0.00003094,0.00000570,-0.00000623,-0.00001930,0.000
 00034,-0.00000857,-0.00006255,-0.00002919,-0.00001529,-0.00129783,-0.0
 0087955,0.00043872,0.07901365,-0.07940797,0.01223054,-0.00028414,0.000
 13908,-0.00007726,-0.00974505,0.00687765,-0.00127051,0.00001910,-0.000
 03539,-0.00000424,-0.00000238,-0.00000500,-0.00000221,-0.00005084,-0.0
 0001301,-0.00000412,-0.00001034,0.00001300,0.00000705,-0.00000178,0.00
 001159,0.00000373,-0.00001371,0.00003482,0.00000696,-0.00001214,0.0000
 0431,-0.00000599,-0.00001247,0.00000621,0.00000655,0.00000872,-0.00000
 505,-0.00003265,-0.00004020,0.00003267,-0.00001631,-0.00000974,0.00002
 173,0.00000056,-0.00063170,-0.00267787,0.00046070,-0.00007125,-0.00007
 566,-0.00004969,-0.00001005,0.00001228,0.00000082,0.00002854,-0.000003
 64,0.00000510,0.00001373,0.00000748,0.00000289,-0.00011657,0.00003271,
 -0.00001548,0.00002098,-0.00003064,0.00000247,-0.00000134,-0.00001507,
 -0.00000864,0.02598664,-0.03106827,0.00604747,0.00049060,-0.00034446,0
 .00007961,0.00003098,-0.00001740,0.00000333,0.00021134,-0.00070995,0.0
 0000192,0.00000886,0.00001179,0.00001296,-0.00000721,-0.00000480,-0.00
 000115,-0.00000065,-0.00001325,-0.00000076,0.00000021,-0.00001197,-0.0
 0000049,0.00000130,-0.00001010,-0.00000412,0.00000787,-0.00000422,-0.0
 0000484,0.00000993,0.00000386,-0.00000248,0.00000908,0.00000535,0.0000
 0425,0.00001500,0.00001411,-0.00000447,0.00000451,0.00002822,-0.000005
 29,0.00000896,0.00009369,-0.00000876,-0.00083434,0.00043546,-0.0002253
 0,-0.09269145,0.10757864,0.00000297,0.00000673,0.00001310,0.00000705,0
 .00000026,-0.00001197,0.00000905,-0.00009350,-0.00023554,-0.00063554,0
 .00059173,0.00490141,-0.02122591,0.01211179,-0.04331500,-0.00006651,0.
 00001087,-0.00019307,-0.00412543,0.00033114,0.00510360,-0.00000771,0.0
 0001185,-0.00000523,-0.00000017,0.00000430,-0.00000163,0.00000757,0.00
 000257,0.00000074,0.00000356,-0.00001390,-0.00000399,-0.00000044,-0.00
 000452,-0.00000301,0.00000676,0.00000915,0.00002053,0.00001286,-0.0000
 0621,-0.00000384,0.00000417,-0.00000224,-0.00000573,0.00004729,-0.0000
 2587,-0.00043749,-0.00000429,-0.00001058,0.00001868,0.00000710,-0.0000
 0841,-0.00000556,-0.00065511,0.00047762,0.00455325,0.00007001,0.000019
 36,-0.00019015,0.00000277,-0.00000707,0.00000496,0.00001097,0.00001724
 ,-0.00000283,-0.00000060,0.00000077,-0.00000160,0.00009544,-0.00004959
 ,0.00005694,-0.00000521,-0.00003036,0.00000790,-0.00000831,0.00001309,
 0.00000461,-0.00305311,0.00441927,0.00491972,-0.00005266,0.00006608,-0
 .00022606,-0.00000525,0.00000214,-0.00000498,0.00021190,-0.00006032,-0
 .00096686,-0.00000157,-0.00000281,0.00008443,0.00000460,0.00000249,0.0
 0000850,0.00000020,0.00000469,0.00000331,0.00000030,0.00000429,0.00000
 314,0.00000063,0.00000368,0.00000336,-0.00000257,0.00000133,0.00000340
 ,-0.00000281,-0.00000216,0.00000241,-0.00000303,-0.00000141,0.00000138
 ,-0.00000495,-0.00000240,0.00000522,-0.00000006,-0.00000764,0.00000805
 ,0.00000269,0.00000462,0.00009689,0.00018363,-0.00020749,-0.00108214,0
 .02920428,-0.01759647,0.02685926,0.00003155,-0.00267471,0.00083681,-0.
 00216420,0.00027118,-0.00006765,0.00021973,0.00167785,-0.00074350,-0.0
 0039421,0.00022452,-0.00005702,-0.00002766,-0.00021381,0.00003402,0.00
 011620,0.00003929,0.00003918,0.00024667,-0.00020086,0.00009114,-0.0008
 1424,-0.00253786,-0.00055441,-0.00231962,0.00040183,0.00109348,-0.0023
 2630,-0.00670179,0.00336723,-0.01567231,-0.00366354,0.00961008,-0.0001
 1167,-0.00185047,-0.00051367,-0.00198090,0.00406525,-0.00211119,-0.089
 77431,0.04943364,0.08535721,0.00139002,0.00048440,-0.00015833,-0.00181
 120,0.00134806,-0.00064667,-0.09653378,-0.04874886,-0.09003499,0.00183
 328,0.00152153,-0.00019685,0.00015753,0.00001686,-0.00002320,-0.001900
 98,0.00035652,-0.00054752,0.00040388,0.00019066,0.00031752,-0.00047241
 ,0.00633275,-0.00350375,0.00032467,0.01105793,0.00709547,-0.00069803,-
 0.00007318,-0.00009666,-0.01925116,0.00525261,-0.00906182,-0.00116760,
 -0.01345239,-0.00532718,-0.00007072,0.00015537,0.00001941,0.00020074,-
 0.00011014,0.00018594,0.00005890,0.00025898,0.00012501,-0.00006864,-0.
 00002435,-0.00004144,-0.00006820,-0.00003822,-0.00010436,-0.00016277,-
 0.00006404,-0.00012335,0.00007910,-0.00016973,-0.00012014,0.00002626,-
 0.00034568,-0.00010965,0.00009311,0.00016860,0.00012469,-0.00038679,0.
 00021075,0.00026730,-0.00007778,-0.00000805,0.00021109,-0.00091231,-0.
 00064259,0.00053079,0.00015136,-0.00009022,0.00002102,0.00000902,0.000
 08803,0.00004645,-0.00001662,0.00014518,-0.00006374,0.00001365,0.00009
 401,-0.00003559,-0.00008496,0.00004107,-0.00003201,0.23386951,-0.00065
 885,-0.00218862,0.00104612,-0.00089513,0.00126135,-0.00035058,0.002224
 33,-0.00020001,-0.00001210,0.00002990,0.00016138,0.00000857,-0.0001908
 6,-0.00023038,-0.00001223,-0.00041781,-0.00022429,0.00001689,0.0001668
 9,-0.00018961,0.00001705,-0.00339438,0.00084996,-0.00009379,-0.0010159
 9,0.00123366,0.00083816,-0.01339946,-0.01099858,0.00758156,0.00161525,
 0.00443672,-0.00038810,-0.00140329,-0.00156545,0.00000815,0.00894837,-
 0.13159682,0.09691895,0.04914310,-0.02924058,-0.04692753,0.00181205,-0
 .00182852,-0.00198282,0.00187819,0.00017202,0.00038532,-0.04904131,-0.
 02563509,-0.04622907,-0.00003023,-0.00291942,0.00007683,0.00057828,-0.
 00017522,0.00007392,0.00125896,0.00062295,0.00039970,-0.00172365,-0.00
 143429,-0.00017141,0.01130265,-0.01127406,0.00815537,0.00493660,-0.010
 29341,-0.00860918,-0.00024871,-0.00068234,0.00002879,-0.00336350,0.005
 09161,-0.00125601,-0.00552607,-0.01269020,-0.00708851,-0.00042830,0.00
 012277,-0.00009659,-0.00035025,0.00043255,-0.00005514,0.00103441,-0.00
 077349,0.00012069,0.00001434,0.00005578,0.00001219,0.00000003,-0.00000
 340,-0.00000560,-0.00015342,-0.00009559,-0.00010654,-0.00011014,-0.000
 09620,-0.00017369,-0.00003917,-0.00085937,-0.00041549,0.00013873,-0.00
 000738,-0.00010929,0.00018893,-0.00013558,-0.00014031,-0.00002557,0.00
 015186,0.00001598,-0.00053094,-0.00020858,0.00017842,-0.00023004,-0.00
 011222,0.00024610,-0.00004404,-0.00064266,0.00027389,0.00007805,0.0000
 1104,0.00010650,0.00003886,0.00004637,0.00002166,0.00000932,-0.0000210
 3,0.00001402,-0.00219493,0.23166523,0.00077499,0.00318458,0.00161123,0
 .00080470,-0.00141647,0.00021915,-0.00126827,0.00033280,0.00158188,0.0
 0019332,0.00022934,0.00002877,0.00012948,-0.00001542,-0.00000791,-0.00
 028229,0.00007474,-0.00036542,-0.00007318,-0.00006557,-0.00006036,0.00
 230762,0.00198874,-0.00222598,0.00202038,0.00021348,0.00105226,0.00608
 584,0.00942521,-0.00411983,0.01220151,-0.00023807,-0.00577778,-0.00092
 564,0.00073475,0.00044370,-0.00519157,0.08926469,-0.08347157,0.0807625
 5,-0.04332135,-0.09669060,0.00080548,-0.00227529,0.00105477,-0.0019902
 7,0.00133417,-0.00113704,-0.08232893,-0.04094176,-0.09517321,0.0004172
 4,-0.00288939,-0.00169652,-0.00009774,-0.00024556,0.00006315,-0.001638
 53,0.00003257,0.00139154,-0.00077854,-0.00122885,0.00075030,-0.0045519
 1,0.01046944,-0.00392679,0.00608800,-0.01164635,-0.00734182,0.00018842
 ,-0.00000470,-0.00008966,-0.01229430,-0.00053780,-0.00375303,-0.007882
 42,-0.01024411,-0.00351119,0.00004473,0.00008449,-0.00005986,-0.000089
 71,0.00010804,-0.00022109,0.00091464,0.00014242,0.00005287,-0.00011612
 ,-0.00005565,0.00003416,-0.00014823,-0.00004579,-0.00003300,-0.0001648
 6,-0.00010685,-0.00013687,-0.00020627,-0.00022656,-0.00011269,-0.00002
 595,-0.00082239,0.00008049,0.00014876,-0.00020468,-0.00033315,0.000226
 98,-0.00010772,-0.00042947,0.00026338,-0.00003915,-0.00022604,0.000821
 32,0.00042535,0.00044803,0.00009396,0.00023781,-0.00030944,0.00003764,
 0.00032917,-0.00041100,-0.00007865,0.00018294,0.00004869,-0.00001548,0
 .00010667,0.00003261,-0.00010352,0.00005761,0.00001325,0.00485862,-0.0
 0229771,0.30274448||-0.00005035,0.00003123,0.00004983,0.00002141,-0.00
 003148,0.00003963,-0.00004863,0.00004616,-0.00007830,0.00004438,-0.000
 02189,-0.00002924,0.00003403,-0.00001957,0.00003533,0.00000786,-0.0000
 1788,0.00004243,-0.00002205,0.00003960,0.00001181,-0.00006935,0.000097
 29,0.00001635,0.00003628,-0.00004986,0.00001261,0.00011427,-0.00012295
 ,-0.00003334,-0.00010704,-0.00001342,0.00002764,-0.00001976,0.00004520
 ,0.00002236,-0.00002671,0.00005687,0.00001968,0.00006242,-0.00001202,-
 0.00008974,-0.00002237,-0.00001197,-0.00003745,-0.00002644,0.00003845,
 -0.00006584,0.00001698,-0.00000602,0.00001016,-0.00001810,-0.00003095,
 -0.00001353,0.00002835,-0.00001320,-0.00000305,-0.00005671,-0.00002612
 ,-0.00010265,-0.00003158,-0.00000128,-0.00003419,0.00001757,-0.0001265
 0,0.00004363,-0.00006531,0.00006943,0.00007342,-0.00001376,0.00001323,
 0.00004749,0.00002915,0.00007684,0.00006483,0.00008419,-0.00003121,0.0
 0002266,-0.00002753,0.00000705,-0.00007538,0.00002459,-0.00001910,0.00
 006617,0.00005548,0.00001633,0.00006583,0.00000530,-0.00000293,0.00002
 544,0.00000779,0.00000963,-0.00001393,-0.00000764,-0.00000561,-0.00001
 287,-0.00000150,0.00000712,0.00000003,-0.00000503,0.00001480,-0.000009
 59,0.00000648,0.00001235,0.00001586,0.00001334,-0.00000751,-0.00000865
 ,-0.00000980,0.00001100,-0.00000845,0.00005465,-0.00001526,-0.00001029
 ,0.00001693,-0.00001811,-0.00001744,-0.00001208,0.00002186,-0.00002067
 ,-0.00000606,-0.00001795,-0.00000357,0.00001296,-0.00001456,-0.0000055
 9,-0.00001468,0.00000626,-0.00000605,-0.00003197,0.00001667,-0.0000334
 2|||@


 WHEN YOU REACH FOR THE STARS, YOU MAY NOT QUITE GET ONE,
 BUT YOU WON'T COME UP WITH A HANDFUL OF MUD, EITHER.

                                         -- LEO BURNETT (AD AGENCY HEAD)
 Job cpu time:       0 days  0 hours  0 minutes 26.0 seconds.
 File lengths (MBytes):  RWF=    733 Int=      0 D2E=      0 Chk=      5 Scr=      1
 Normal termination of Gaussian 09 at Sun Mar 15 20:38:59 2026.
