 Entering Link 1 = C:\Gaussian\G09W\l1.exe PID=     24676.
  
 Copyright (c) 1988,1990,1992,1993,1995,1998,2003,2009,2013,
            Gaussian, Inc.  All Rights Reserved.
  
 This is part of the Gaussian(R) 09 program.  It is based on
 the Gaussian(R) 03 system (copyright 2003, Gaussian, Inc.),
 the Gaussian(R) 98 system (copyright 1998, Gaussian, Inc.),
 the Gaussian(R) 94 system (copyright 1995, Gaussian, Inc.),
 the Gaussian 92(TM) system (copyright 1992, Gaussian, Inc.),
 the Gaussian 90(TM) system (copyright 1990, Gaussian, Inc.),
 the Gaussian 88(TM) system (copyright 1988, Gaussian, Inc.),
 the Gaussian 86(TM) system (copyright 1986, Carnegie Mellon
 University), and the Gaussian 82(TM) system (copyright 1983,
 Carnegie Mellon University). Gaussian is a federally registered
 trademark of Gaussian, Inc.
  
 This software contains proprietary and confidential information,
 including trade secrets, belonging to Gaussian, Inc.
  
 This software is provided under written license and may be
 used, copied, transmitted, or stored only in accord with that
 written license.
  
 The following legend is applicable only to US Government
 contracts under FAR:
  
                    RESTRICTED RIGHTS LEGEND
  
 Use, reproduction and disclosure by the US Government is
 subject to restrictions as set forth in subparagraphs (a)
 and (c) of the Commercial Computer Software - Restricted
 Rights clause in FAR 52.227-19.
  
 Gaussian, Inc.
 340 Quinnipiac St., Bldg. 40, Wallingford CT 06492
  
  
 ---------------------------------------------------------------
 Warning -- This program may not be used in any manner that
 competes with the business of Gaussian, Inc. or will provide
 assistance to any competitor of Gaussian, Inc.  The licensee
 of this program is prohibited from giving any competitor of
 Gaussian, Inc. access to this program.  By using this program,
 the user acknowledges that Gaussian, Inc. is engaged in the
 business of creating and licensing software in the field of
 computational chemistry and represents and warrants to the
 licensee that it is not a competitor of Gaussian, Inc. and that
 it will not use this program in any manner prohibited above.
 ---------------------------------------------------------------
  

 Cite this work as:
 Gaussian 09, Revision D.01,
 M. J. Frisch, G. W. Trucks, H. B. Schlegel, G. E. Scuseria, 
 M. A. Robb, J. R. Cheeseman, G. Scalmani, V. Barone, B. Mennucci, 
 G. A. Petersson, H. Nakatsuji, M. Caricato, X. Li, H. P. Hratchian, 
 A. F. Izmaylov, J. Bloino, G. Zheng, J. L. Sonnenberg, M. Hada, 
 M. Ehara, K. Toyota, R. Fukuda, J. Hasegawa, M. Ishida, T. Nakajima, 
 Y. Honda, O. Kitao, H. Nakai, T. Vreven, J. A. Montgomery, Jr., 
 J. E. Peralta, F. Ogliaro, M. Bearpark, J. J. Heyd, E. Brothers, 
 K. N. Kudin, V. N. Staroverov, T. Keith, R. Kobayashi, J. Normand, 
 K. Raghavachari, A. Rendell, J. C. Burant, S. S. Iyengar, J. Tomasi, 
 M. Cossi, N. Rega, J. M. Millam, M. Klene, J. E. Knox, J. B. Cross, 
 V. Bakken, C. Adamo, J. Jaramillo, R. Gomperts, R. E. Stratmann, 
 O. Yazyev, A. J. Austin, R. Cammi, C. Pomelli, J. W. Ochterski, 
 R. L. Martin, K. Morokuma, V. G. Zakrzewski, G. A. Voth, 
 P. Salvador, J. J. Dannenberg, S. Dapprich, A. D. Daniels, 
 O. Farkas, J. B. Foresman, J. V. Ortiz, J. Cioslowski, 
 and D. J. Fox, Gaussian, Inc., Wallingford CT, 2013.
 
 ******************************************
 Gaussian 09:  IA32W-G09RevD.01 24-Apr-2013
                10-Mar-2026 
 ******************************************
 %chk=C:\Users\User\Desktop\IMRG\Thesis\Pending Journal Work\Individual Gas\SO2\S
 O2_freq.chk
 ---------------------------------------
 # opt freq pm6 scf=qc geom=connectivity
 ---------------------------------------
 1/14=-1,18=20,19=15,26=1,38=1,57=2/1,3;
 2/9=110,12=2,17=6,18=5,40=1/2;
 3/5=2,16=1,25=1,41=3900000,71=1/1,2,3;
 4/35=1/1;
 5/5=2,8=3,35=1,38=5/8;
 6/7=2,8=2,9=2,10=2,28=1/1;
 7//1,2,3,16;
 1/14=-1,18=20,19=15,26=1/3(2);
 2/9=110/2;
 99//99;
 2/9=110/2;
 3/5=2,16=1,25=1,41=3900000,71=1,135=20/1,2,3;
 4/5=5,16=3,35=1/1;
 5/5=2,8=3,35=1,38=5/8;
 7//1,2,3,16;
 1/14=-1,18=20,19=15,26=1/3(-5);
 2/9=110/2;
 6/7=2,8=2,9=2,10=2,19=2,28=1/1;
 99/9=1/99;
 --------
 SO2_freq
 --------
 Symbolic Z-matrix:
 Charge =  0 Multiplicity = 1
 S                     2.39771   5.82866   1.7008 
 O                     3.16945   4.62921   1.81699 
 O                     1.12307   5.89887   2.34742 
 

 GradGradGradGradGradGradGradGradGradGradGradGradGradGradGradGradGradGrad
 Berny optimization.
 Initialization pass.
                           ----------------------------
                           !    Initial Parameters    !
                           ! (Angstroms and Degrees)  !
 --------------------------                            --------------------------
 ! Name  Definition              Value          Derivative Info.                !
 --------------------------------------------------------------------------------
 ! R1    R(1,2)                  1.431          estimate D2E/DX2                !
 ! R2    R(1,3)                  1.431          estimate D2E/DX2                !
 ! A1    A(2,1,3)              119.0            estimate D2E/DX2                !
 --------------------------------------------------------------------------------
 Trust Radius=3.00D-01 FncErr=1.00D-07 GrdErr=1.00D-07
 Number of steps in this run=     20 maximum allowed number of steps=    100.
 GradGradGradGradGradGradGradGradGradGradGradGradGradGradGradGradGradGrad

                          Input orientation:                          
 ---------------------------------------------------------------------
 Center     Atomic      Atomic             Coordinates (Angstroms)
 Number     Number       Type             X           Y           Z
 ---------------------------------------------------------------------
      1         16           0        2.397708    5.828657    1.700802
      2          8           0        3.169447    4.629208    1.816994
      3          8           0        1.123067    5.898870    2.347424
 ---------------------------------------------------------------------
                    Distance matrix (angstroms):
                    1          2          3
     1  S    0.000000
     2  O    1.431000   0.000000
     3  O    1.431000   2.465983   0.000000
 Stoichiometry    O2S
 Framework group  C2V[C2(S),SGV(O2)]
 Deg. of freedom     2
 Full point group                 C2V     NOp   4
 Largest Abelian subgroup         C2V     NOp   4
 Largest concise Abelian subgroup C2      NOp   2
                         Standard orientation:                         
 ---------------------------------------------------------------------
 Center     Atomic      Atomic             Coordinates (Angstroms)
 Number     Number       Type             X           Y           Z
 ---------------------------------------------------------------------
      1         16           0        0.000000    0.000000    0.363144
      2          8           0        0.000000   -1.232991   -0.363144
      3          8           0        0.000000    1.232991   -0.363144
 ---------------------------------------------------------------------
 Rotational constants (GHZ):     59.9154515     10.3916671      8.8557381
 Standard basis: VSTO-6G (5D, 7F)
 There are     8 symmetry adapted cartesian basis functions of A1  symmetry.
 There are     2 symmetry adapted cartesian basis functions of A2  symmetry.
 There are     3 symmetry adapted cartesian basis functions of B1  symmetry.
 There are     5 symmetry adapted cartesian basis functions of B2  symmetry.
 There are     7 symmetry adapted basis functions of A1  symmetry.
 There are     2 symmetry adapted basis functions of A2  symmetry.
 There are     3 symmetry adapted basis functions of B1  symmetry.
 There are     5 symmetry adapted basis functions of B2  symmetry.
    17 basis functions,   108 primitive gaussians,    18 cartesian basis functions
     9 alpha electrons        9 beta electrons
       nuclear repulsion energy        54.3408247816 Hartrees.
 Integral buffers will be    262144 words long.
 Regular integral format.
 Two-electron integral symmetry is turned off.
 Do NDO integrals.
 One-electron integrals computed using PRISM.
 NBasis=    17 RedAO= T EigKep=  1.00D+00  NBF=     7     2     3     5
 NBsUse=    17 1.00D-06 EigRej= -1.00D+00 NBFU=     7     2     3     5
 Nonelectrostatic core Hamiltonian diagonalized for initial guess.
 Initial guess orbital symmetries:
       Occupied  (A1) (B2) (A1) (B1) (A1) (B2) (A2) (B2) (A1)
       Virtual   (B1) (A1) (B2) (B1) (A2) (A1) (A1) (B2)
 The electronic state of the initial guess is 1-A1.
 Keep J ints in memory in canonical form, NReq=1850816.
 Gradient too large for Newton-Raphson -- use scaled steepest descent instead.
     Accept linear search using points  3 and  4.
 Gradient too large for Newton-Raphson -- use scaled steepest descent instead.
 Gradient too large for Newton-Raphson -- use scaled steepest descent instead.
     Minimum is close to point  2 DX= -3.66D-04 DF= -5.60D-10 DXR=  4.57D-04 DFR=  2.09D-07 which will be used.
 Gradient too large for Newton-Raphson -- use scaled steepest descent instead.
 Gradient too large for Newton-Raphson -- use scaled steepest descent instead.
     Accept linear search using points  1 and  2.
 LinEq1:  Iter=  0 NonCon=     1 RMS=5.90D-04 Max=2.72D-03 NDo=     1
 AX will form     1 AO Fock derivatives at one time.
 LinEq1:  Iter=  1 NonCon=     1 RMS=2.17D-04 Max=1.41D-03 NDo=     1
 LinEq1:  Iter=  2 NonCon=     1 RMS=3.26D-05 Max=1.17D-04 NDo=     1
 LinEq1:  Iter=  3 NonCon=     1 RMS=9.17D-06 Max=3.80D-05 NDo=     1
 LinEq1:  Iter=  4 NonCon=     1 RMS=1.13D-06 Max=4.76D-06 NDo=     1
 LinEq1:  Iter=  5 NonCon=     1 RMS=1.10D-07 Max=5.54D-07 NDo=     1
 LinEq1:  Iter=  6 NonCon=     1 RMS=1.66D-08 Max=6.32D-08 NDo=     1
 LinEq1:  Iter=  7 NonCon=     1 RMS=2.13D-09 Max=9.11D-09 NDo=     1
 LinEq1:  Iter=  8 NonCon=     0 RMS=2.16D-10 Max=1.08D-09 NDo=     1
 Linear equations converged to 1.200D-09 1.200D-08 after     8 iterations.
     Minimum is close to point  2 DX=  4.19D-03 DF= -8.24D-10 DXR=  4.17D-03 DFR=  1.74D-05 which will be used.
 LinEq1:  Iter=  0 NonCon=     1 RMS=3.12D-06 Max=1.40D-05 NDo=     1
 LinEq1:  Iter=  1 NonCon=     1 RMS=1.30D-06 Max=9.57D-06 NDo=     1
 LinEq1:  Iter=  2 NonCon=     1 RMS=2.72D-07 Max=1.08D-06 NDo=     1
 LinEq1:  Iter=  3 NonCon=     1 RMS=6.09D-08 Max=2.66D-07 NDo=     1
 LinEq1:  Iter=  4 NonCon=     1 RMS=9.57D-09 Max=3.81D-08 NDo=     1
 LinEq1:  Iter=  5 NonCon=     1 RMS=9.98D-10 Max=4.06D-09 NDo=     1
 LinEq1:  Iter=  6 NonCon=     0 RMS=1.35D-10 Max=5.79D-10 NDo=     1
 Linear equations converged to 2.707D-10 2.707D-09 after     6 iterations.
 SCF Done:  E(RPM6) = -0.945868194804E-01 a.u. after    8 cycles
            Convg  =    0.9928D-08                    34 Fock formations.
              S**2 =  0.0000                  -V/T =  0.9875

 **********************************************************************

            Population analysis using the SCF density.

 **********************************************************************

 Orbital symmetries:
       Occupied  (A1) (B2) (A1) (B1) (B2) (A1) (A2) (B2) (A1)
       Virtual   (B1) (A1) (B2) (A1) (B1) (A2) (A1) (B2)
 The electronic state is 1-A1.
 Alpha  occ. eigenvalues --   -1.20767  -1.09794  -0.75212  -0.56484  -0.55712
 Alpha  occ. eigenvalues --   -0.54090  -0.44723  -0.44234  -0.37397
 Alpha virt. eigenvalues --   -0.03501   0.02344   0.06160   0.24712   0.26108
 Alpha virt. eigenvalues --    0.26393   0.26782   0.30792
          Condensed to atoms (all electrons):
               1          2          3
     1  S    4.801235   0.000000   0.000000
     2  O    0.000000   6.599383   0.000000
     3  O    0.000000   0.000000   6.599383
 Mulliken charges:
               1
     1  S    1.198765
     2  O   -0.599383
     3  O   -0.599383
 Sum of Mulliken charges =   0.00000
 Mulliken charges with hydrogens summed into heavy atoms:
               1
     1  S    1.198765
     2  O   -0.599383
     3  O   -0.599383
 Charge=              0.0000 electrons
 Dipole moment (field-independent basis, Debye):
    X=              0.0000    Y=              0.0000    Z=              3.4719  Tot=              3.4719
 N-N= 5.434082478157D+01 E-N=-8.933053374752D+01  KE=-7.572015660032D+00
 Symmetry A1   KE=-3.827597539685D+00
 Symmetry A2   KE=-4.308490945671D-01
 Symmetry B1   KE=-6.539876032304D-01
 Symmetry B2   KE=-2.659581422549D+00
 Calling FoFJK, ICntrl=      2127 FMM=F ISym2X=1 I1Cent= 0 IOpClX= 0 NMat=1 NMatS=1 NMatT=0.
 ***** Axes restored to original set *****
 -------------------------------------------------------------------
 Center     Atomic                   Forces (Hartrees/Bohr)
 Number     Number              X              Y              Z
 -------------------------------------------------------------------
      1       16          -0.009594343   -0.021543515    0.014552931
      2        8           0.007177626    0.009294822   -0.007893488
      3        8           0.002416717    0.012248693   -0.006659443
 -------------------------------------------------------------------
 Cartesian Forces:  Max     0.021543515 RMS     0.011393958

 GradGradGradGradGradGradGradGradGradGradGradGradGradGradGradGradGradGrad
 Berny optimization.
 FormGI is forming the generalized inverse of G from B-inverse, IUseBI=4.
 Internal  Forces:  Max     0.036221904 RMS     0.021241697
 Search for a local minimum.
 Step number   1 out of a maximum of   20
 All quantities printed in internal units (Hartrees-Bohrs-Radians)
 Mixed Optimization -- RFO/linear search
 Second derivative matrix not updated -- first step.
 The second derivative matrix:
                          R1        R2        A1
           R1           1.04949
           R2           0.00000   1.04949
           A1           0.00000   0.00000   0.25000
 ITU=  0
     Eigenvalues ---    0.25000   1.04949   1.04949
 RFO step:  Lambda=-5.18099702D-03 EMin= 2.50000000D-01
 Linear search not attempted -- first point.
 Iteration  1 RMS(Cart)=  0.10978039 RMS(Int)=  0.00555240
 Iteration  2 RMS(Cart)=  0.00509833 RMS(Int)=  0.00000035
 Iteration  3 RMS(Cart)=  0.00000046 RMS(Int)=  0.00000000
 ClnCor:  largest displacement from symmetrization is 8.88D-16 for atom     1.
 Variable       Old X    -DE/DX   Delta X   Delta X   Delta X     New X
                                 (Linear)    (Quad)   (Total)
    R1        2.70420  -0.00456   0.00000  -0.00432  -0.00432   2.69987
    R2        2.70420  -0.00456   0.00000  -0.00432  -0.00432   2.69987
    A1        2.07694   0.03622   0.00000   0.14195   0.14195   2.21889
         Item               Value     Threshold  Converged?
 Maximum Force            0.036222     0.000450     NO 
 RMS     Force            0.021242     0.000300     NO 
 Maximum Displacement     0.092375     0.001800     NO 
 RMS     Displacement     0.107624     0.001200     NO 
 Predicted change in Energy=-2.642791D-03
 GradGradGradGradGradGradGradGradGradGradGradGradGradGradGradGradGradGrad

                          Input orientation:                          
 ---------------------------------------------------------------------
 Center     Atomic      Atomic             Coordinates (Angstroms)
 Number     Number       Type             X           Y           Z
 ---------------------------------------------------------------------
      1         16           0        2.376870    5.781867    1.732409
      2          8           0        3.218330    4.628739    1.791221
      3          8           0        1.095022    5.946130    2.341590
 ---------------------------------------------------------------------
                    Distance matrix (angstroms):
                    1          2          3
     1  S    0.000000
     2  O    1.428712   0.000000
     3  O    1.428712   2.558683   0.000000
 Stoichiometry    O2S
 Framework group  C2V[C2(S),SGV(O2)]
 Deg. of freedom     2
 Full point group                 C2V     NOp   4
 Largest Abelian subgroup         C2V     NOp   4
 Largest concise Abelian subgroup C2      NOp   2
                         Standard orientation:                         
 ---------------------------------------------------------------------
 Center     Atomic      Atomic             Coordinates (Angstroms)
 Number     Number       Type             X           Y           Z
 ---------------------------------------------------------------------
      1         16           0        0.000000    0.000000    0.318002
      2          8           0        0.000000   -1.279342   -0.318002
      3          8           0        0.000000    1.279342   -0.318002
 ---------------------------------------------------------------------
 Rotational constants (GHZ):     78.1331386      9.6523314      8.5910225
 Standard basis: VSTO-6G (5D, 7F)
 There are     8 symmetry adapted cartesian basis functions of A1  symmetry.
 There are     2 symmetry adapted cartesian basis functions of A2  symmetry.
 There are     3 symmetry adapted cartesian basis functions of B1  symmetry.
 There are     5 symmetry adapted cartesian basis functions of B2  symmetry.
 There are     7 symmetry adapted basis functions of A1  symmetry.
 There are     2 symmetry adapted basis functions of A2  symmetry.
 There are     3 symmetry adapted basis functions of B1  symmetry.
 There are     5 symmetry adapted basis functions of B2  symmetry.
    17 basis functions,   108 primitive gaussians,    18 cartesian basis functions
     9 alpha electrons        9 beta electrons
       nuclear repulsion energy        54.1632579011 Hartrees.
 Integral buffers will be    262144 words long.
 Regular integral format.
 Two-electron integral symmetry is turned off.
 Do NDO integrals.
 One-electron integrals computed using PRISM.
 NBasis=    17 RedAO= T EigKep=  1.00D+00  NBF=     7     2     3     5
 NBsUse=    17 1.00D-06 EigRej= -1.00D+00 NBFU=     7     2     3     5
 Initial guess from the checkpoint file:  "C:\Users\User\Desktop\IMRG\Thesis\Pending Journal Work\Individual Gas\SO2\SO2_freq.chk"
 B after Tr=     0.000000    0.000000    0.000000
         Rot=    1.000000    0.000000    0.000000    0.000000 Ang=   0.00 deg.
 Initial guess orbital symmetries:
       Occupied  (A1) (B2) (A1) (B1) (B2) (A1) (A2) (B2) (A1)
       Virtual   (B1) (A1) (B2) (A1) (B1) (A2) (A1) (B2)
 Keep J ints in memory in canonical form, NReq=1850816.
 Gradient too large for Newton-Raphson -- use scaled steepest descent instead.
     Accept linear search using points  4 and  5.
 Gradient too large for Newton-Raphson -- use scaled steepest descent instead.
 LinEq1:  Iter=  0 NonCon=     1 RMS=8.93D-04 Max=4.10D-03 NDo=     1
 AX will form     1 AO Fock derivatives at one time.
 LinEq1:  Iter=  1 NonCon=     1 RMS=4.41D-04 Max=2.32D-03 NDo=     1
 LinEq1:  Iter=  2 NonCon=     1 RMS=4.02D-05 Max=1.84D-04 NDo=     1
 LinEq1:  Iter=  3 NonCon=     1 RMS=7.55D-06 Max=3.02D-05 NDo=     1
 LinEq1:  Iter=  4 NonCon=     1 RMS=1.33D-06 Max=6.40D-06 NDo=     1
 LinEq1:  Iter=  5 NonCon=     1 RMS=1.32D-07 Max=5.10D-07 NDo=     1
 LinEq1:  Iter=  6 NonCon=     1 RMS=1.34D-08 Max=6.02D-08 NDo=     1
 LinEq1:  Iter=  7 NonCon=     1 RMS=1.40D-09 Max=5.72D-09 NDo=     1
 LinEq1:  Iter=  8 NonCon=     0 RMS=1.93D-10 Max=6.23D-10 NDo=     1
 Linear equations converged to 1.200D-09 1.200D-08 after     8 iterations.
     Accept linear search using points  1 and  2.
     Minimum is close to point  2 DX= -5.96D-03 DF= -3.87D-09 DXR=  6.00D-03 DFR=  3.61D-05 which will be used.
 LinEq1:  Iter=  0 NonCon=     1 RMS=7.23D-06 Max=4.98D-05 NDo=     1
 LinEq1:  Iter=  1 NonCon=     1 RMS=3.21D-06 Max=1.71D-05 NDo=     1
 LinEq1:  Iter=  2 NonCon=     1 RMS=3.91D-07 Max=2.16D-06 NDo=     1
 LinEq1:  Iter=  3 NonCon=     1 RMS=1.04D-07 Max=6.47D-07 NDo=     1
 LinEq1:  Iter=  4 NonCon=     1 RMS=1.60D-08 Max=6.87D-08 NDo=     1
 LinEq1:  Iter=  5 NonCon=     1 RMS=2.10D-09 Max=7.06D-09 NDo=     1
 LinEq1:  Iter=  6 NonCon=     0 RMS=2.47D-10 Max=9.55D-10 NDo=     1
 Linear equations converged to 5.679D-10 5.679D-09 after     6 iterations.
 SCF Done:  E(RPM6) = -0.982031223294E-01 a.u. after    5 cycles
            Convg  =    0.1899D-07                    25 Fock formations.
              S**2 =  0.0000                  -V/T =  0.9870
 Calling FoFJK, ICntrl=      2127 FMM=F ISym2X=1 I1Cent= 0 IOpClX= 0 NMat=1 NMatS=1 NMatT=0.
 ***** Axes restored to original set *****
 -------------------------------------------------------------------
 Center     Atomic                   Forces (Hartrees/Bohr)
 Number     Number              X              Y              Z
 -------------------------------------------------------------------
      1       16          -0.007143354   -0.016039968    0.010835212
      2        8          -0.003308828    0.012288943   -0.003634154
      3        8           0.010452182    0.003751025   -0.007201058
 -------------------------------------------------------------------
 Cartesian Forces:  Max     0.016039968 RMS     0.009285933

 GradGradGradGradGradGradGradGradGradGradGradGradGradGradGradGradGradGrad
 Berny optimization.
 Using GEDIIS/GDIIS optimizer.
 FormGI is forming the generalized inverse of G from B-inverse, IUseBI=4.
 Internal  Forces:  Max     0.014975777 RMS     0.013077793
 Search for a local minimum.
 Step number   2 out of a maximum of   20
 All quantities printed in internal units (Hartrees-Bohrs-Radians)
 Mixed Optimization -- RFO/linear search
 Update second derivatives using D2CorX and points    1    2
 DE= -3.62D-03 DEPred=-2.64D-03 R= 1.37D+00
 TightC=F SS=  1.41D+00  RLast= 1.42D-01 DXNew= 5.0454D-01 4.2623D-01
 Trust test= 1.37D+00 RLast= 1.42D-01 DXMaxT set to 4.26D-01
 The second derivative matrix:
                          R1        R2        A1
           R1           1.06427
           R2           0.01478   1.06427
           A1           0.08540   0.08540   0.15488
 ITU=  1  0
 Use linear search instead of GDIIS.
     Eigenvalues ---    0.13936   1.04949   1.09457
 RFO step:  Lambda=-8.44425137D-04 EMin= 1.39358299D-01
 Quartic linear search produced a step of  1.16717.
 Iteration  1 RMS(Cart)=  0.12844860 RMS(Int)=  0.00902457
 Iteration  2 RMS(Cart)=  0.00894784 RMS(Int)=  0.00000295
 Iteration  3 RMS(Cart)=  0.00000346 RMS(Int)=  0.00000000
 Iteration  4 RMS(Cart)=  0.00000000 RMS(Int)=  0.00000000
 ClnCor:  largest displacement from symmetrization is 2.66D-15 for atom     2.
 Variable       Old X    -DE/DX   Delta X   Delta X   Delta X     New X
                                 (Linear)    (Quad)   (Total)
    R1        2.69987  -0.01202  -0.00505  -0.02056  -0.02561   2.67426
    R2        2.69987  -0.01202  -0.00505  -0.02056  -0.02561   2.67426
    A1        2.21889   0.01498   0.16567   0.01434   0.18002   2.39891
         Item               Value     Threshold  Converged?
 Maximum Force            0.014976     0.000450     NO 
 RMS     Force            0.013078     0.000300     NO 
 Maximum Displacement     0.119964     0.001800     NO 
 RMS     Displacement     0.124880     0.001200     NO 
 Predicted change in Energy=-8.815613D-04
 GradGradGradGradGradGradGradGradGradGradGradGradGradGradGradGradGradGrad

                          Input orientation:                          
 ---------------------------------------------------------------------
 Center     Atomic      Atomic             Coordinates (Angstroms)
 Number     Number       Type             X           Y           Z
 ---------------------------------------------------------------------
      1         16           0        2.348598    5.718384    1.775293
      2          8           0        3.265130    4.640214    1.761312
      3          8           0        1.076494    5.998137    2.328615
 ---------------------------------------------------------------------
                    Distance matrix (angstroms):
                    1          2          3
     1  S    0.000000
     2  O    1.415160   0.000000
     3  O    1.415160   2.637407   0.000000
 Stoichiometry    O2S
 Framework group  C2V[C2(S),SGV(O2)]
 Deg. of freedom     2
 Full point group                 C2V     NOp   4
 Largest Abelian subgroup         C2V     NOp   4
 Largest concise Abelian subgroup C2      NOp   2
                         Standard orientation:                         
 ---------------------------------------------------------------------
 Center     Atomic      Atomic             Coordinates (Angstroms)
 Number     Number       Type             X           Y           Z
 ---------------------------------------------------------------------
      1         16           0        0.000000    0.000000    0.256758
      2          8           0        0.000000   -1.318704   -0.256758
      3          8           0        0.000000    1.318704   -0.256758
 ---------------------------------------------------------------------
 Rotational constants (GHZ):    119.8529382      9.0847069      8.4446153
 Standard basis: VSTO-6G (5D, 7F)
 There are     8 symmetry adapted cartesian basis functions of A1  symmetry.
 There are     2 symmetry adapted cartesian basis functions of A2  symmetry.
 There are     3 symmetry adapted cartesian basis functions of B1  symmetry.
 There are     5 symmetry adapted cartesian basis functions of B2  symmetry.
 There are     7 symmetry adapted basis functions of A1  symmetry.
 There are     2 symmetry adapted basis functions of A2  symmetry.
 There are     3 symmetry adapted basis functions of B1  symmetry.
 There are     5 symmetry adapted basis functions of B2  symmetry.
    17 basis functions,   108 primitive gaussians,    18 cartesian basis functions
     9 alpha electrons        9 beta electrons
       nuclear repulsion energy        54.1293195895 Hartrees.
 Integral buffers will be    262144 words long.
 Regular integral format.
 Two-electron integral symmetry is turned off.
 Do NDO integrals.
 One-electron integrals computed using PRISM.
 NBasis=    17 RedAO= T EigKep=  1.00D+00  NBF=     7     2     3     5
 NBsUse=    17 1.00D-06 EigRej= -1.00D+00 NBFU=     7     2     3     5
 Initial guess from the checkpoint file:  "C:\Users\User\Desktop\IMRG\Thesis\Pending Journal Work\Individual Gas\SO2\SO2_freq.chk"
 B after Tr=     0.000000    0.000000    0.000000
         Rot=    1.000000    0.000000    0.000000    0.000000 Ang=   0.00 deg.
 Initial guess orbital symmetries:
       Occupied  (A1) (B2) (A1) (B1) (B2) (A1) (A2) (B2) (A1)
       Virtual   (B1) (A1) (B2) (A1) (B1) (A1) (A2) (B2)
 Keep J ints in memory in canonical form, NReq=1850816.
 Gradient too large for Newton-Raphson -- use scaled steepest descent instead.
     Accept linear search using points  4 and  5.
     Minimum is close to point  5 DX= -1.03D-01 DF= -4.57D-05 DXR=  6.48D-02 DFR=  2.35D-03 which will be used.
 Gradient too large for Newton-Raphson -- use scaled steepest descent instead.
 LinEq1:  Iter=  0 NonCon=     1 RMS=1.26D-03 Max=6.95D-03 NDo=     1
 AX will form     1 AO Fock derivatives at one time.
 LinEq1:  Iter=  1 NonCon=     1 RMS=5.35D-04 Max=2.47D-03 NDo=     1
 LinEq1:  Iter=  2 NonCon=     1 RMS=6.50D-05 Max=2.83D-04 NDo=     1
 LinEq1:  Iter=  3 NonCon=     1 RMS=8.89D-06 Max=4.02D-05 NDo=     1
 LinEq1:  Iter=  4 NonCon=     1 RMS=9.01D-07 Max=2.89D-06 NDo=     1
 LinEq1:  Iter=  5 NonCon=     1 RMS=1.59D-07 Max=6.90D-07 NDo=     1
 LinEq1:  Iter=  6 NonCon=     1 RMS=2.66D-08 Max=1.01D-07 NDo=     1
 LinEq1:  Iter=  7 NonCon=     1 RMS=4.58D-09 Max=2.05D-08 NDo=     1
 LinEq1:  Iter=  8 NonCon=     0 RMS=5.23D-10 Max=1.81D-09 NDo=     1
 Linear equations converged to 1.200D-09 1.200D-08 after     8 iterations.
     Accept linear search using points  1 and  2.
     Minimum is close to point  2 DX= -5.72D-03 DF= -7.08D-09 DXR=  5.75D-03 DFR=  3.32D-05 which will be used.
 LinEq1:  Iter=  0 NonCon=     1 RMS=1.04D-05 Max=7.06D-05 NDo=     1
 LinEq1:  Iter=  1 NonCon=     1 RMS=4.30D-06 Max=2.32D-05 NDo=     1
 LinEq1:  Iter=  2 NonCon=     1 RMS=6.90D-07 Max=3.96D-06 NDo=     1
 LinEq1:  Iter=  3 NonCon=     1 RMS=1.59D-07 Max=1.03D-06 NDo=     1
 LinEq1:  Iter=  4 NonCon=     1 RMS=2.62D-08 Max=1.14D-07 NDo=     1
 LinEq1:  Iter=  5 NonCon=     1 RMS=4.25D-09 Max=1.64D-08 NDo=     1
 LinEq1:  Iter=  6 NonCon=     0 RMS=4.66D-10 Max=1.66D-09 NDo=     1
 Linear equations converged to 8.363D-10 8.363D-09 after     6 iterations.
 SCF Done:  E(RPM6) = -0.999490430749E-01 a.u. after    5 cycles
            Convg  =    0.3547D-07                    24 Fock formations.
              S**2 =  0.0000                  -V/T =  0.9869
 Calling FoFJK, ICntrl=      2127 FMM=F ISym2X=1 I1Cent= 0 IOpClX= 0 NMat=1 NMatS=1 NMatT=0.
 ***** Axes restored to original set *****
 -------------------------------------------------------------------
 Center     Atomic                   Forces (Hartrees/Bohr)
 Number     Number              X              Y              Z
 -------------------------------------------------------------------
      1       16          -0.002294480   -0.005152116    0.003480323
      2        8          -0.006104741    0.007075496    0.000139578
      3        8           0.008399221   -0.001923380   -0.003619901
 -------------------------------------------------------------------
 Cartesian Forces:  Max     0.008399221 RMS     0.004928619

 GradGradGradGradGradGradGradGradGradGradGradGradGradGradGradGradGradGrad
 Berny optimization.
 Using GEDIIS/GDIIS optimizer.
 FormGI is forming the generalized inverse of G from B-inverse, IUseBI=4.
 Internal  Forces:  Max     0.009345750 RMS     0.007631857
 Search for a local minimum.
 Step number   3 out of a maximum of   20
 All quantities printed in internal units (Hartrees-Bohrs-Radians)
 Mixed Optimization -- RFO/linear search
 Update second derivatives using D2CorX and points    1    2    3
 DE= -1.75D-03 DEPred=-8.82D-04 R= 1.98D+00
 TightC=F SS=  1.41D+00  RLast= 1.84D-01 DXNew= 7.1684D-01 5.5088D-01
 Trust test= 1.98D+00 RLast= 1.84D-01 DXMaxT set to 5.51D-01
 The second derivative matrix:
                          R1        R2        A1
           R1           1.05413
           R2           0.00464   1.05413
           A1           0.13578   0.13578   0.12306
 ITU=  1  1  0
 Use linear search instead of GDIIS.
     Eigenvalues ---    0.08519   1.04949   1.09664
 RFO step:  Lambda=-1.50472771D-04 EMin= 8.51860754D-02
 Quartic linear search produced a step of  0.22048.
 Iteration  1 RMS(Cart)=  0.02435686 RMS(Int)=  0.00038785
 Iteration  2 RMS(Cart)=  0.00042088 RMS(Int)=  0.00000002
 Iteration  3 RMS(Cart)=  0.00000002 RMS(Int)=  0.00000000
 ClnCor:  largest displacement from symmetrization is 2.04D-15 for atom     3.
 Variable       Old X    -DE/DX   Delta X   Delta X   Delta X     New X
                                 (Linear)    (Quad)   (Total)
    R1        2.67426  -0.00935  -0.00565  -0.00805  -0.01369   2.66057
    R2        2.67426  -0.00935  -0.00565  -0.00805  -0.01369   2.66057
    A1        2.39891  -0.00022   0.03969  -0.00283   0.03686   2.43577
         Item               Value     Threshold  Converged?
 Maximum Force            0.009346     0.000450     NO 
 RMS     Force            0.007632     0.000300     NO 
 Maximum Displacement     0.026342     0.001800     NO 
 RMS     Displacement     0.024254     0.001200     NO 
 Predicted change in Energy=-1.026791D-04
 GradGradGradGradGradGradGradGradGradGradGradGradGradGradGradGradGradGrad

                          Input orientation:                          
 ---------------------------------------------------------------------
 Center     Atomic      Atomic             Coordinates (Angstroms)
 Number     Number       Type             X           Y           Z
 ---------------------------------------------------------------------
      1         16           0        2.342390    5.704445    1.784709
      2          8           0        3.270259    4.645927    1.756079
      3          8           0        1.077572    6.006364    2.324432
 ---------------------------------------------------------------------
                    Distance matrix (angstroms):
                    1          2          3
     1  S    0.000000
     2  O    1.407914   0.000000
     3  O    1.407914   2.642289   0.000000
 Stoichiometry    O2S
 Framework group  C2V[C2(S),SGV(O2)]
 Deg. of freedom     2
 Full point group                 C2V     NOp   4
 Largest Abelian subgroup         C2V     NOp   4
 Largest concise Abelian subgroup C2      NOp   2
                         Standard orientation:                         
 ---------------------------------------------------------------------
 Center     Atomic      Atomic             Coordinates (Angstroms)
 Number     Number       Type             X           Y           Z
 ---------------------------------------------------------------------
      1         16           0        0.000000    0.000000    0.243310
      2          8           0        0.000000   -1.321144   -0.243310
      3          8           0        0.000000    1.321144   -0.243310
 ---------------------------------------------------------------------
 Rotational constants (GHZ):    133.4679503      9.0511691      8.4763434
 Standard basis: VSTO-6G (5D, 7F)
 There are     8 symmetry adapted cartesian basis functions of A1  symmetry.
 There are     2 symmetry adapted cartesian basis functions of A2  symmetry.
 There are     3 symmetry adapted cartesian basis functions of B1  symmetry.
 There are     5 symmetry adapted cartesian basis functions of B2  symmetry.
 There are     7 symmetry adapted basis functions of A1  symmetry.
 There are     2 symmetry adapted basis functions of A2  symmetry.
 There are     3 symmetry adapted basis functions of B1  symmetry.
 There are     5 symmetry adapted basis functions of B2  symmetry.
    17 basis functions,   108 primitive gaussians,    18 cartesian basis functions
     9 alpha electrons        9 beta electrons
       nuclear repulsion energy        54.1882456699 Hartrees.
 Integral buffers will be    262144 words long.
 Regular integral format.
 Two-electron integral symmetry is turned off.
 Do NDO integrals.
 One-electron integrals computed using PRISM.
 NBasis=    17 RedAO= T EigKep=  1.00D+00  NBF=     7     2     3     5
 NBsUse=    17 1.00D-06 EigRej= -1.00D+00 NBFU=     7     2     3     5
 Initial guess from the checkpoint file:  "C:\Users\User\Desktop\IMRG\Thesis\Pending Journal Work\Individual Gas\SO2\SO2_freq.chk"
 B after Tr=     0.000000    0.000000    0.000000
         Rot=    1.000000    0.000000    0.000000    0.000000 Ang=   0.00 deg.
 Initial guess orbital symmetries:
       Occupied  (A1) (B2) (A1) (B1) (B2) (A1) (A2) (B2) (A1)
       Virtual   (B1) (A1) (B2) (A1) (B1) (A1) (A2) (B2)
 Keep J ints in memory in canonical form, NReq=1850816.
 Gradient too large for Newton-Raphson -- use scaled steepest descent instead.
 LinEq1:  Iter=  0 NonCon=     1 RMS=9.97D-04 Max=5.07D-03 NDo=     1
 AX will form     1 AO Fock derivatives at one time.
 LinEq1:  Iter=  1 NonCon=     1 RMS=4.02D-04 Max=2.19D-03 NDo=     1
 LinEq1:  Iter=  2 NonCon=     1 RMS=3.07D-05 Max=1.26D-04 NDo=     1
 LinEq1:  Iter=  3 NonCon=     1 RMS=6.20D-06 Max=2.23D-05 NDo=     1
 LinEq1:  Iter=  4 NonCon=     1 RMS=1.57D-06 Max=7.43D-06 NDo=     1
 LinEq1:  Iter=  5 NonCon=     1 RMS=1.92D-07 Max=9.01D-07 NDo=     1
 LinEq1:  Iter=  6 NonCon=     1 RMS=1.86D-08 Max=9.07D-08 NDo=     1
 LinEq1:  Iter=  7 NonCon=     1 RMS=1.92D-09 Max=8.46D-09 NDo=     1
 LinEq1:  Iter=  8 NonCon=     0 RMS=2.42D-10 Max=8.78D-10 NDo=     1
 Linear equations converged to 1.200D-09 1.200D-08 after     8 iterations.
     Minimum is close to point  2 DX=  9.60D-04 DF= -8.15D-11 DXR=  9.59D-04 DFR=  9.20D-07 which will be used.
 LinEq1:  Iter=  0 NonCon=     1 RMS=5.33D-06 Max=2.95D-05 NDo=     1
 LinEq1:  Iter=  1 NonCon=     1 RMS=2.08D-06 Max=1.17D-05 NDo=     1
 LinEq1:  Iter=  2 NonCon=     1 RMS=3.90D-07 Max=2.17D-06 NDo=     1
 LinEq1:  Iter=  3 NonCon=     1 RMS=5.98D-08 Max=2.63D-07 NDo=     1
 LinEq1:  Iter=  4 NonCon=     1 RMS=8.95D-09 Max=4.16D-08 NDo=     1
 LinEq1:  Iter=  5 NonCon=     1 RMS=8.41D-10 Max=3.99D-09 NDo=     1
 LinEq1:  Iter=  6 NonCon=     0 RMS=7.19D-11 Max=3.47D-10 NDo=     1
 Linear equations converged to 4.016D-10 4.016D-09 after     6 iterations.
 SCF Done:  E(RPM6) = -0.100104822860     a.u. after    4 cycles
            Convg  =    0.5617D-08                    23 Fock formations.
              S**2 =  0.0000                  -V/T =  0.9869
 Calling FoFJK, ICntrl=      2127 FMM=F ISym2X=1 I1Cent= 0 IOpClX= 0 NMat=1 NMatS=1 NMatT=0.
 ***** Axes restored to original set *****
 -------------------------------------------------------------------
 Center     Atomic                   Forces (Hartrees/Bohr)
 Number     Number              X              Y              Z
 -------------------------------------------------------------------
      1       16          -0.000671209   -0.001507159    0.001018106
      2        8          -0.003028114    0.002840574    0.000362835
      3        8           0.003699322   -0.001333415   -0.001380941
 -------------------------------------------------------------------
 Cartesian Forces:  Max     0.003699322 RMS     0.002068240

 GradGradGradGradGradGradGradGradGradGradGradGradGradGradGradGradGradGrad
 Berny optimization.
 Using GEDIIS/GDIIS optimizer.
 FormGI is forming the generalized inverse of G from B-inverse, IUseBI=4.
 Internal  Forces:  Max     0.004138662 RMS     0.003462476
 Search for a local minimum.
 Step number   4 out of a maximum of   20
 All quantities printed in internal units (Hartrees-Bohrs-Radians)
 Mixed Optimization -- RFO/linear search
 Update second derivatives using D2CorX and points    1    2    3    4
 DE= -1.56D-04 DEPred=-1.03D-04 R= 1.52D+00
 TightC=F SS=  1.41D+00  RLast= 4.16D-02 DXNew= 9.2646D-01 1.2492D-01
 Trust test= 1.52D+00 RLast= 4.16D-02 DXMaxT set to 5.51D-01
 The second derivative matrix:
                          R1        R2        A1
           R1           0.90268
           R2          -0.14681   0.90268
           A1           0.13952   0.13952   0.13307
 ITU=  1  1  1  0
 Use linear search instead of GDIIS.
     Eigenvalues ---    0.07583   0.81312   1.04949
 RFO step:  Lambda=-2.18646641D-05 EMin= 7.58264830D-02
 Quartic linear search produced a step of  0.36769.
 Iteration  1 RMS(Cart)=  0.00452074 RMS(Int)=  0.00000528
 Iteration  2 RMS(Cart)=  0.00000680 RMS(Int)=  0.00000000
 Iteration  3 RMS(Cart)=  0.00000000 RMS(Int)=  0.00000000
 ClnCor:  largest displacement from symmetrization is 1.99D-15 for atom     2.
 Variable       Old X    -DE/DX   Delta X   Delta X   Delta X     New X
                                 (Linear)    (Quad)   (Total)
    R1        2.66057  -0.00414  -0.00503  -0.00107  -0.00610   2.65447
    R2        2.66057  -0.00414  -0.00503  -0.00107  -0.00610   2.65447
    A1        2.43577  -0.00131   0.01355  -0.01026   0.00329   2.43906
         Item               Value     Threshold  Converged?
 Maximum Force            0.004139     0.000450     NO 
 RMS     Force            0.003462     0.000300     NO 
 Maximum Displacement     0.004219     0.001800     NO 
 RMS     Displacement     0.004523     0.001200     NO 
 Predicted change in Energy=-2.294410D-05
 GradGradGradGradGradGradGradGradGradGradGradGradGradGradGradGradGradGrad

                          Input orientation:                          
 ---------------------------------------------------------------------
 Center     Atomic      Atomic             Coordinates (Angstroms)
 Number     Number       Type             X           Y           Z
 ---------------------------------------------------------------------
      1         16           0        2.341631    5.702741    1.785860
      2          8           0        3.268786    4.647929    1.755984
      3          8           0        1.079805    6.006066    2.323376
 ---------------------------------------------------------------------
                    Distance matrix (angstroms):
                    1          2          3
     1  S    0.000000
     2  O    1.404684   0.000000
     3  O    1.404684   2.637822   0.000000
 Stoichiometry    O2S
 Framework group  C2V[C2(S),SGV(O2)]
 Deg. of freedom     2
 Full point group                 C2V     NOp   4
 Largest Abelian subgroup         C2V     NOp   4
 Largest concise Abelian subgroup C2      NOp   2
                         Standard orientation:                         
 ---------------------------------------------------------------------
 Center     Atomic      Atomic             Coordinates (Angstroms)
 Number     Number       Type             X           Y           Z
 ---------------------------------------------------------------------
      1         16           0        0.000000    0.000000    0.241666
      2          8           0        0.000000   -1.318911   -0.241666
      3          8           0        0.000000    1.318911   -0.241666
 ---------------------------------------------------------------------
 Rotational constants (GHZ):    135.2900860      9.0818466      8.5105448
 Standard basis: VSTO-6G (5D, 7F)
 There are     8 symmetry adapted cartesian basis functions of A1  symmetry.
 There are     2 symmetry adapted cartesian basis functions of A2  symmetry.
 There are     3 symmetry adapted cartesian basis functions of B1  symmetry.
 There are     5 symmetry adapted cartesian basis functions of B2  symmetry.
 There are     7 symmetry adapted basis functions of A1  symmetry.
 There are     2 symmetry adapted basis functions of A2  symmetry.
 There are     3 symmetry adapted basis functions of B1  symmetry.
 There are     5 symmetry adapted basis functions of B2  symmetry.
    17 basis functions,   108 primitive gaussians,    18 cartesian basis functions
     9 alpha electrons        9 beta electrons
       nuclear repulsion energy        54.2279590929 Hartrees.
 Integral buffers will be    262144 words long.
 Regular integral format.
 Two-electron integral symmetry is turned off.
 Do NDO integrals.
 One-electron integrals computed using PRISM.
 NBasis=    17 RedAO= T EigKep=  1.00D+00  NBF=     7     2     3     5
 NBsUse=    17 1.00D-06 EigRej= -1.00D+00 NBFU=     7     2     3     5
 Initial guess from the checkpoint file:  "C:\Users\User\Desktop\IMRG\Thesis\Pending Journal Work\Individual Gas\SO2\SO2_freq.chk"
 B after Tr=     0.000000    0.000000    0.000000
         Rot=    1.000000    0.000000    0.000000    0.000000 Ang=   0.00 deg.
 Initial guess orbital symmetries:
       Occupied  (A1) (B2) (A1) (B1) (A1) (B2) (A2) (B2) (A1)
       Virtual   (B1) (A1) (B2) (A1) (B1) (A1) (A2) (B2)
 Keep J ints in memory in canonical form, NReq=1850816.
 LinEq1:  Iter=  0 NonCon=     1 RMS=3.76D-04 Max=1.45D-03 NDo=     1
 AX will form     1 AO Fock derivatives at one time.
 LinEq1:  Iter=  1 NonCon=     1 RMS=1.66D-04 Max=7.87D-04 NDo=     1
 LinEq1:  Iter=  2 NonCon=     1 RMS=2.38D-05 Max=9.48D-05 NDo=     1
 LinEq1:  Iter=  3 NonCon=     1 RMS=2.95D-06 Max=8.88D-06 NDo=     1
 LinEq1:  Iter=  4 NonCon=     1 RMS=3.11D-07 Max=1.45D-06 NDo=     1
 LinEq1:  Iter=  5 NonCon=     1 RMS=7.29D-08 Max=3.26D-07 NDo=     1
 LinEq1:  Iter=  6 NonCon=     1 RMS=1.49D-08 Max=7.25D-08 NDo=     1
 LinEq1:  Iter=  7 NonCon=     1 RMS=1.50D-09 Max=6.39D-09 NDo=     1
 LinEq1:  Iter=  8 NonCon=     0 RMS=1.31D-10 Max=4.87D-10 NDo=     1
 Linear equations converged to 1.200D-09 1.200D-08 after     8 iterations.
     Accept linear search using points  1 and  2.
     Minimum is close to point  2 DX= -5.85D-04 DF= -7.34D-12 DXR=  5.86D-04 DFR=  3.43D-07 which will be used.
 LinEq1:  Iter=  0 NonCon=     1 RMS=7.22D-07 Max=3.35D-06 NDo=     1
 LinEq1:  Iter=  1 NonCon=     1 RMS=2.28D-07 Max=9.37D-07 NDo=     1
 LinEq1:  Iter=  2 NonCon=     1 RMS=3.44D-08 Max=1.81D-07 NDo=     1
 LinEq1:  Iter=  3 NonCon=     1 RMS=7.60D-09 Max=3.06D-08 NDo=     1
 LinEq1:  Iter=  4 NonCon=     1 RMS=1.42D-09 Max=5.06D-09 NDo=     1
 LinEq1:  Iter=  5 NonCon=     1 RMS=1.79D-10 Max=7.97D-10 NDo=     1
 LinEq1:  Iter=  6 NonCon=     0 RMS=1.58D-11 Max=5.20D-11 NDo=     1
 Linear equations converged to 6.425D-11 6.425D-10 after     6 iterations.
 SCF Done:  E(RPM6) = -0.100132730282     a.u. after    3 cycles
            Convg  =    0.1040D-08                    17 Fock formations.
              S**2 =  0.0000                  -V/T =  0.9869
 Calling FoFJK, ICntrl=      2127 FMM=F ISym2X=1 I1Cent= 0 IOpClX= 0 NMat=1 NMatS=1 NMatT=0.
 ***** Axes restored to original set *****
 -------------------------------------------------------------------
 Center     Atomic                   Forces (Hartrees/Bohr)
 Number     Number              X              Y              Z
 -------------------------------------------------------------------
      1       16          -0.000038233   -0.000085850    0.000057993
      2        8          -0.000848223    0.000581060    0.000195821
      3        8           0.000886456   -0.000495209   -0.000253814
 -------------------------------------------------------------------
 Cartesian Forces:  Max     0.000886456 RMS     0.000494763

 GradGradGradGradGradGradGradGradGradGradGradGradGradGradGradGradGradGrad
 Berny optimization.
 Using GEDIIS/GDIIS optimizer.
 FormGI is forming the generalized inverse of G from B-inverse, IUseBI=4.
 Internal  Forces:  Max     0.001000362 RMS     0.000943215
 Search for a local minimum.
 Step number   5 out of a maximum of   20
 All quantities printed in internal units (Hartrees-Bohrs-Radians)
 Mixed Optimization -- En-DIIS/RFO-DIIS
 Update second derivatives using D2CorX and points    2    3    4    5
 DE= -2.79D-05 DEPred=-2.29D-05 R= 1.22D+00
 TightC=F SS=  1.41D+00  RLast= 9.24D-03 DXNew= 9.2646D-01 2.7719D-02
 Trust test= 1.22D+00 RLast= 9.24D-03 DXMaxT set to 5.51D-01
 The second derivative matrix:
                          R1        R2        A1
           R1           0.80039
           R2          -0.24910   0.80039
           A1           0.06885   0.06885   0.10632
 ITU=  1  1  1  1
 Use linear search instead of GDIIS.
     Eigenvalues ---    0.08594   0.57166   1.04949
 RFO step:  Lambda=-4.82130616D-06 EMin= 8.59447011D-02
 Quartic linear search produced a step of  0.25748.
 Iteration  1 RMS(Cart)=  0.00479177 RMS(Int)=  0.00001122
 Iteration  2 RMS(Cart)=  0.00001021 RMS(Int)=  0.00000000
 Iteration  3 RMS(Cart)=  0.00000000 RMS(Int)=  0.00000000
 ClnCor:  largest displacement from symmetrization is 2.51D-15 for atom     1.
 Variable       Old X    -DE/DX   Delta X   Delta X   Delta X     New X
                                 (Linear)    (Quad)   (Total)
    R1        2.65447  -0.00100  -0.00157   0.00057  -0.00100   2.65346
    R2        2.65447  -0.00100  -0.00157   0.00057  -0.00100   2.65346
    A1        2.43906  -0.00082   0.00085  -0.00726  -0.00641   2.43265
         Item               Value     Threshold  Converged?
 Maximum Force            0.001000     0.000450     NO 
 RMS     Force            0.000943     0.000300     NO 
 Maximum Displacement     0.004102     0.001800     NO 
 RMS     Displacement     0.004795     0.001200     NO 
 Predicted change in Energy=-3.619626D-06
 GradGradGradGradGradGradGradGradGradGradGradGradGradGradGradGradGradGrad

                          Input orientation:                          
 ---------------------------------------------------------------------
 Center     Atomic      Atomic             Coordinates (Angstroms)
 Number     Number       Type             X           Y           Z
 ---------------------------------------------------------------------
      1         16           0        2.342564    5.704834    1.784446
      2          8           0        3.266615    4.647940    1.757133
      3          8           0        1.081043    6.003961    2.323641
 ---------------------------------------------------------------------
                    Distance matrix (angstroms):
                    1          2          3
     1  S    0.000000
     2  O    1.404152   0.000000
     3  O    1.404152   2.633714   0.000000
 Stoichiometry    O2S
 Framework group  C2V[C2(S),SGV(O2)]
 Deg. of freedom     2
 Full point group                 C2V     NOp   4
 Largest Abelian subgroup         C2V     NOp   4
 Largest concise Abelian subgroup C2      NOp   2
                         Standard orientation:                         
 ---------------------------------------------------------------------
 Center     Atomic      Atomic             Coordinates (Angstroms)
 Number     Number       Type             X           Y           Z
 ---------------------------------------------------------------------
      1         16           0        0.000000    0.000000    0.243685
      2          8           0        0.000000   -1.316857   -0.243685
      3          8           0        0.000000    1.316857   -0.243685
 ---------------------------------------------------------------------
 Rotational constants (GHZ):    133.0567522      9.1102035      8.5264124
 Standard basis: VSTO-6G (5D, 7F)
 There are     8 symmetry adapted cartesian basis functions of A1  symmetry.
 There are     2 symmetry adapted cartesian basis functions of A2  symmetry.
 There are     3 symmetry adapted cartesian basis functions of B1  symmetry.
 There are     5 symmetry adapted cartesian basis functions of B2  symmetry.
 There are     7 symmetry adapted basis functions of A1  symmetry.
 There are     2 symmetry adapted basis functions of A2  symmetry.
 There are     3 symmetry adapted basis functions of B1  symmetry.
 There are     5 symmetry adapted basis functions of B2  symmetry.
    17 basis functions,   108 primitive gaussians,    18 cartesian basis functions
     9 alpha electrons        9 beta electrons
       nuclear repulsion energy        54.2412686375 Hartrees.
 Integral buffers will be    262144 words long.
 Regular integral format.
 Two-electron integral symmetry is turned off.
 Do NDO integrals.
 One-electron integrals computed using PRISM.
 NBasis=    17 RedAO= T EigKep=  1.00D+00  NBF=     7     2     3     5
 NBsUse=    17 1.00D-06 EigRej= -1.00D+00 NBFU=     7     2     3     5
 Initial guess from the checkpoint file:  "C:\Users\User\Desktop\IMRG\Thesis\Pending Journal Work\Individual Gas\SO2\SO2_freq.chk"
 B after Tr=     0.000000    0.000000    0.000000
         Rot=    1.000000    0.000000    0.000000    0.000000 Ang=   0.00 deg.
 Initial guess orbital symmetries:
       Occupied  (A1) (B2) (A1) (B1) (A1) (B2) (A2) (B2) (A1)
       Virtual   (B1) (A1) (B2) (A1) (B1) (A1) (A2) (B2)
 Keep J ints in memory in canonical form, NReq=1850816.
 LinEq1:  Iter=  0 NonCon=     1 RMS=3.99D-04 Max=1.79D-03 NDo=     1
 AX will form     1 AO Fock derivatives at one time.
 LinEq1:  Iter=  1 NonCon=     1 RMS=4.19D-05 Max=2.25D-04 NDo=     1
 LinEq1:  Iter=  2 NonCon=     1 RMS=7.11D-06 Max=3.42D-05 NDo=     1
 LinEq1:  Iter=  3 NonCon=     1 RMS=2.47D-06 Max=8.68D-06 NDo=     1
 LinEq1:  Iter=  4 NonCon=     1 RMS=5.89D-07 Max=2.91D-06 NDo=     1
 LinEq1:  Iter=  5 NonCon=     1 RMS=1.59D-07 Max=7.64D-07 NDo=     1
 LinEq1:  Iter=  6 NonCon=     1 RMS=1.95D-08 Max=7.60D-08 NDo=     1
 LinEq1:  Iter=  7 NonCon=     1 RMS=2.42D-09 Max=7.97D-09 NDo=     1
 LinEq1:  Iter=  8 NonCon=     0 RMS=2.33D-10 Max=1.03D-09 NDo=     1
 Linear equations converged to 1.200D-09 1.200D-08 after     8 iterations.
     Minimum is close to point  2 DX=  8.85D-05 DF= -2.13D-13 DXR=  8.85D-05 DFR=  7.83D-09 which will be used.
 LinEq1:  Iter=  0 NonCon=     1 RMS=4.32D-07 Max=2.13D-06 NDo=     1
 LinEq1:  Iter=  1 NonCon=     1 RMS=1.31D-07 Max=6.05D-07 NDo=     1
 LinEq1:  Iter=  2 NonCon=     1 RMS=2.74D-08 Max=1.18D-07 NDo=     1
 LinEq1:  Iter=  3 NonCon=     1 RMS=6.66D-09 Max=3.97D-08 NDo=     1
 LinEq1:  Iter=  4 NonCon=     1 RMS=1.20D-09 Max=6.25D-09 NDo=     1
 LinEq1:  Iter=  5 NonCon=     1 RMS=1.47D-10 Max=5.41D-10 NDo=     1
 LinEq1:  Iter=  6 NonCon=     0 RMS=1.56D-11 Max=6.61D-11 NDo=     1
 Linear equations converged to 3.682D-11 3.682D-10 after     6 iterations.
 SCF Done:  E(RPM6) = -0.100137251742     a.u. after    3 cycles
            Convg  =    0.9244D-09                    18 Fock formations.
              S**2 =  0.0000                  -V/T =  0.9869
 Calling FoFJK, ICntrl=      2127 FMM=F ISym2X=1 I1Cent= 0 IOpClX= 0 NMat=1 NMatS=1 NMatT=0.
 ***** Axes restored to original set *****
 -------------------------------------------------------------------
 Center     Atomic                   Forces (Hartrees/Bohr)
 Number     Number              X              Y              Z
 -------------------------------------------------------------------
      1       16           0.000046224    0.000103792   -0.000070113
      2        8          -0.000104484   -0.000001410    0.000056148
      3        8           0.000058260   -0.000102383    0.000013965
 -------------------------------------------------------------------
 Cartesian Forces:  Max     0.000104484 RMS     0.000071467

 GradGradGradGradGradGradGradGradGradGradGradGradGradGradGradGradGradGrad
 Berny optimization.
 Using GEDIIS/GDIIS optimizer.
 FormGI is forming the generalized inverse of G from B-inverse, IUseBI=4.
 Internal  Forces:  Max     0.000256431 RMS     0.000158347
 Search for a local minimum.
 Step number   6 out of a maximum of   20
 All quantities printed in internal units (Hartrees-Bohrs-Radians)
 Mixed Optimization -- En-DIIS/RFO-DIIS
 Swapping is turned off.
 Update second derivatives using D2CorX and points    3    4    5    6
 DE= -4.52D-06 DEPred=-3.62D-06 R= 1.25D+00
 TightC=F SS=  1.41D+00  RLast= 6.56D-03 DXNew= 9.2646D-01 1.9694D-02
 Trust test= 1.25D+00 RLast= 6.56D-03 DXMaxT set to 5.51D-01
 The second derivative matrix:
                          R1        R2        A1
           R1           0.82589
           R2          -0.22360   0.82589
           A1           0.05093   0.05093   0.07150
 ITU=  1  1  1  1
     Eigenvalues ---    0.06190   0.61190   1.04949
 En-DIIS/RFO-DIIS IScMMF=        0 using points:     6    5
 RFO step:  Lambda=-2.55797949D-07.
 DidBck=F Rises=F RFO-DIIS coefs:    1.32603   -0.32603
 Iteration  1 RMS(Cart)=  0.00265739 RMS(Int)=  0.00000410
 Iteration  2 RMS(Cart)=  0.00000408 RMS(Int)=  0.00000000
 Iteration  3 RMS(Cart)=  0.00000000 RMS(Int)=  0.00000000
 ClnCor:  largest displacement from symmetrization is 4.07D-15 for atom     3.
 Variable       Old X    -DE/DX   Delta X   Delta X   Delta X     New X
                                 (Linear)    (Quad)   (Total)
    R1        2.65346  -0.00007  -0.00033   0.00054   0.00021   2.65368
    R2        2.65346  -0.00007  -0.00033   0.00054   0.00021   2.65368
    A1        2.43265  -0.00026  -0.00209  -0.00180  -0.00389   2.42876
         Item               Value     Threshold  Converged?
 Maximum Force            0.000256     0.000450     YES
 RMS     Force            0.000158     0.000300     YES
 Maximum Displacement     0.002548     0.001800     NO 
 RMS     Displacement     0.002659     0.001200     NO 
 Predicted change in Energy=-4.843215D-07
 GradGradGradGradGradGradGradGradGradGradGradGradGradGradGradGradGradGrad

                          Input orientation:                          
 ---------------------------------------------------------------------
 Center     Atomic      Atomic             Coordinates (Angstroms)
 Number     Number       Type             X           Y           Z
 ---------------------------------------------------------------------
      1         16           0        2.343164    5.706183    1.783535
      2          8           0        3.265614    4.647700    1.757770
      3          8           0        1.081444    6.002852    2.323915
 ---------------------------------------------------------------------
                    Distance matrix (angstroms):
                    1          2          3
     1  S    0.000000
     2  O    1.404266   0.000000
     3  O    1.404266   2.632025   0.000000
 Stoichiometry    O2S
 Framework group  C2V[C2(S),SGV(O2)]
 Deg. of freedom     2
 Full point group                 C2V     NOp   4
 Largest Abelian subgroup         C2V     NOp   4
 Largest concise Abelian subgroup C2      NOp   2
                         Standard orientation:                         
 ---------------------------------------------------------------------
 Center     Atomic      Atomic             Coordinates (Angstroms)
 Number     Number       Type             X           Y           Z
 ---------------------------------------------------------------------
      1         16           0        0.000000    0.000000    0.244986
      2          8           0        0.000000   -1.316012   -0.244986
      3          8           0        0.000000    1.316012   -0.244986
 ---------------------------------------------------------------------
 Rotational constants (GHZ):    131.6473958      9.1218994      8.5307972
 Standard basis: VSTO-6G (5D, 7F)
 There are     8 symmetry adapted cartesian basis functions of A1  symmetry.
 There are     2 symmetry adapted cartesian basis functions of A2  symmetry.
 There are     3 symmetry adapted cartesian basis functions of B1  symmetry.
 There are     5 symmetry adapted cartesian basis functions of B2  symmetry.
 There are     7 symmetry adapted basis functions of A1  symmetry.
 There are     2 symmetry adapted basis functions of A2  symmetry.
 There are     3 symmetry adapted basis functions of B1  symmetry.
 There are     5 symmetry adapted basis functions of B2  symmetry.
    17 basis functions,   108 primitive gaussians,    18 cartesian basis functions
     9 alpha electrons        9 beta electrons
       nuclear repulsion energy        54.2435718975 Hartrees.
 Integral buffers will be    262144 words long.
 Regular integral format.
 Two-electron integral symmetry is turned off.
 Do NDO integrals.
 One-electron integrals computed using PRISM.
 NBasis=    17 RedAO= T EigKep=  1.00D+00  NBF=     7     2     3     5
 NBsUse=    17 1.00D-06 EigRej= -1.00D+00 NBFU=     7     2     3     5
 Initial guess from the checkpoint file:  "C:\Users\User\Desktop\IMRG\Thesis\Pending Journal Work\Individual Gas\SO2\SO2_freq.chk"
 B after Tr=     0.000000    0.000000    0.000000
         Rot=    1.000000    0.000000    0.000000    0.000000 Ang=   0.00 deg.
 Initial guess orbital symmetries:
       Occupied  (A1) (B2) (A1) (B1) (A1) (B2) (A2) (B2) (A1)
       Virtual   (B1) (A1) (B2) (A1) (B1) (A1) (A2) (B2)
 Keep J ints in memory in canonical form, NReq=1850816.
 LinEq1:  Iter=  0 NonCon=     1 RMS=2.44D-04 Max=1.15D-03 NDo=     1
 AX will form     1 AO Fock derivatives at one time.
 LinEq1:  Iter=  1 NonCon=     1 RMS=3.75D-05 Max=1.72D-04 NDo=     1
 LinEq1:  Iter=  2 NonCon=     1 RMS=1.42D-05 Max=5.24D-05 NDo=     1
 LinEq1:  Iter=  3 NonCon=     1 RMS=1.99D-06 Max=7.52D-06 NDo=     1
 LinEq1:  Iter=  4 NonCon=     1 RMS=3.50D-07 Max=1.31D-06 NDo=     1
 LinEq1:  Iter=  5 NonCon=     1 RMS=9.37D-08 Max=3.85D-07 NDo=     1
 LinEq1:  Iter=  6 NonCon=     1 RMS=1.13D-08 Max=4.33D-08 NDo=     1
 LinEq1:  Iter=  7 NonCon=     1 RMS=1.35D-09 Max=4.46D-09 NDo=     1
 LinEq1:  Iter=  8 NonCon=     0 RMS=1.31D-10 Max=5.89D-10 NDo=     1
 Linear equations converged to 1.200D-09 1.200D-08 after     8 iterations.
     Minimum is close to point  2 DX=  2.23D-04 DF= -5.01D-13 DXR=  2.23D-04 DFR=  4.98D-08 which will be used.
 LinEq1:  Iter=  0 NonCon=     1 RMS=1.68D-07 Max=8.40D-07 NDo=     1
 LinEq1:  Iter=  1 NonCon=     1 RMS=5.22D-08 Max=2.14D-07 NDo=     1
 LinEq1:  Iter=  2 NonCon=     1 RMS=1.21D-08 Max=5.58D-08 NDo=     1
 LinEq1:  Iter=  3 NonCon=     1 RMS=2.86D-09 Max=1.69D-08 NDo=     1
 LinEq1:  Iter=  4 NonCon=     1 RMS=5.52D-10 Max=2.86D-09 NDo=     1
 LinEq1:  Iter=  5 NonCon=     1 RMS=6.75D-11 Max=2.24D-10 NDo=     1
 LinEq1:  Iter=  6 NonCon=     0 RMS=7.82D-12 Max=3.42D-11 NDo=     1
 Linear equations converged to 1.512D-11 1.512D-10 after     6 iterations.
 SCF Done:  E(RPM6) = -0.100137762727     a.u. after    3 cycles
            Convg  =    0.5002D-09                    18 Fock formations.
              S**2 =  0.0000                  -V/T =  0.9869
 Calling FoFJK, ICntrl=      2127 FMM=F ISym2X=1 I1Cent= 0 IOpClX= 0 NMat=1 NMatS=1 NMatT=0.
 ***** Axes restored to original set *****
 -------------------------------------------------------------------
 Center     Atomic                   Forces (Hartrees/Bohr)
 Number     Number              X              Y              Z
 -------------------------------------------------------------------
      1       16           0.000012626    0.000028350   -0.000019151
      2        8           0.000026966   -0.000034823    0.000000949
      3        8          -0.000039592    0.000006473    0.000018201
 -------------------------------------------------------------------
 Cartesian Forces:  Max     0.000039592 RMS     0.000024063

 GradGradGradGradGradGradGradGradGradGradGradGradGradGradGradGradGradGrad
 Berny optimization.
 Using GEDIIS/GDIIS optimizer.
 FormGI is forming the generalized inverse of G from B-inverse, IUseBI=4.
 Internal  Forces:  Max     0.000043944 RMS     0.000036192
 Search for a local minimum.
 Step number   7 out of a maximum of   20
 All quantities printed in internal units (Hartrees-Bohrs-Radians)
 Mixed Optimization -- En-DIIS/RFO-DIIS
 Swapping is turned off.
 Update second derivatives using D2CorX and points    4    5    6    7
 DE= -5.11D-07 DEPred=-4.84D-07 R= 1.06D+00
 Trust test= 1.06D+00 RLast= 3.90D-03 DXMaxT set to 5.51D-01
 The second derivative matrix:
                          R1        R2        A1
           R1           0.81696
           R2          -0.23253   0.81696
           A1           0.06123   0.06123   0.07053
 ITU=  0  1  1  1
     Eigenvalues ---    0.05633   0.59862   1.04949
 En-DIIS/RFO-DIIS IScMMF=        0 using points:     7    6    5
 RFO step:  Lambda= 0.00000000D+00.
 DidBck=F Rises=F RFO-DIIS coefs:    1.19214   -0.26256    0.07042
 Iteration  1 RMS(Cart)=  0.00019408 RMS(Int)=  0.00000002
 Iteration  2 RMS(Cart)=  0.00000003 RMS(Int)=  0.00000000
 ClnCor:  largest displacement from symmetrization is 2.22D-15 for atom     2.
 Variable       Old X    -DE/DX   Delta X   Delta X   Delta X     New X
                                 (Linear)    (Quad)   (Total)
    R1        2.65368   0.00004   0.00011   0.00000   0.00011   2.65379
    R2        2.65368   0.00004   0.00011   0.00000   0.00011   2.65379
    A1        2.42876  -0.00001  -0.00030   0.00000  -0.00030   2.42846
         Item               Value     Threshold  Converged?
 Maximum Force            0.000044     0.000450     YES
 RMS     Force            0.000036     0.000300     YES
 Maximum Displacement     0.000211     0.001800     YES
 RMS     Displacement     0.000194     0.001200     YES
 Predicted change in Energy=-5.914331D-09
 Optimization completed.
    -- Stationary point found.
                           ----------------------------
                           !   Optimized Parameters   !
                           ! (Angstroms and Degrees)  !
 --------------------------                            --------------------------
 ! Name  Definition              Value          Derivative Info.                !
 --------------------------------------------------------------------------------
 ! R1    R(1,2)                  1.4043         -DE/DX =    0.0                 !
 ! R2    R(1,3)                  1.4043         -DE/DX =    0.0                 !
 ! A1    A(2,1,3)              139.1578         -DE/DX =    0.0                 !
 --------------------------------------------------------------------------------
 GradGradGradGradGradGradGradGradGradGradGradGradGradGradGradGradGradGrad

                          Input orientation:                          
 ---------------------------------------------------------------------
 Center     Atomic      Atomic             Coordinates (Angstroms)
 Number     Number       Type             X           Y           Z
 ---------------------------------------------------------------------
      1         16           0        2.343164    5.706183    1.783535
      2          8           0        3.265614    4.647700    1.757770
      3          8           0        1.081444    6.002852    2.323915
 ---------------------------------------------------------------------
                    Distance matrix (angstroms):
                    1          2          3
     1  S    0.000000
     2  O    1.404266   0.000000
     3  O    1.404266   2.632025   0.000000
 Stoichiometry    O2S
 Framework group  C2V[C2(S),SGV(O2)]
 Deg. of freedom     2
 Full point group                 C2V     NOp   4
 Largest Abelian subgroup         C2V     NOp   4
 Largest concise Abelian subgroup C2      NOp   2
                         Standard orientation:                         
 ---------------------------------------------------------------------
 Center     Atomic      Atomic             Coordinates (Angstroms)
 Number     Number       Type             X           Y           Z
 ---------------------------------------------------------------------
      1         16           0        0.000000    0.000000    0.244986
      2          8           0        0.000000   -1.316012   -0.244986
      3          8           0        0.000000    1.316012   -0.244986
 ---------------------------------------------------------------------
 Rotational constants (GHZ):    131.6473958      9.1218994      8.5307972

 **********************************************************************

            Population analysis using the SCF density.

 **********************************************************************

 Orbital symmetries:
       Occupied  (A1) (B2) (A1) (B1) (A1) (B2) (A2) (B2) (A1)
       Virtual   (B1) (A1) (B2) (A1) (B1) (A1) (A2) (B2)
 The electronic state is 1-A1.
 Alpha  occ. eigenvalues --   -1.19679  -1.12969  -0.74429  -0.56856  -0.55396
 Alpha  occ. eigenvalues --   -0.54776  -0.44872  -0.44786  -0.36033
 Alpha virt. eigenvalues --   -0.02176   0.00739   0.10702   0.30016   0.30770
 Alpha virt. eigenvalues --    0.31074   0.32320   0.34860
          Condensed to atoms (all electrons):
               1          2          3
     1  S    4.870545   0.000000   0.000000
     2  O    0.000000   6.564728   0.000000
     3  O    0.000000   0.000000   6.564728
 Mulliken charges:
               1
     1  S    1.129455
     2  O   -0.564728
     3  O   -0.564728
 Sum of Mulliken charges =   0.00000
 Mulliken charges with hydrogens summed into heavy atoms:
               1
     1  S    1.129455
     2  O   -0.564728
     3  O   -0.564728
 Charge=              0.0000 electrons
 Dipole moment (field-independent basis, Debye):
    X=              0.0000    Y=              0.0000    Z=              1.9398  Tot=              1.9398
 N-N= 5.424357189746D+01 E-N=-8.904599177811D+01  KE=-7.645500700338D+00
 Symmetry A1   KE=-3.813737025580D+00
 Symmetry A2   KE=-4.432126067749D-01
 Symmetry B1   KE=-6.627486172043D-01
 Symmetry B2   KE=-2.725802450779D+00
 1|1|UNPC-AHELI-09|FOpt|RPM6|ZDO|O2S1|USER|10-Mar-2026|0||# opt freq pm
 6 scf=qc geom=connectivity||SO2_freq||0,1|S,2.3431643609,5.7061827673,
 1.7835349129|O,3.2656136216,4.6477001565,1.7577699503|O,1.081443818,6.
 0028523247,2.3239147373||Version=IA32W-G09RevD.01|State=1-A1|HF=-0.100
 1378|RMSD=0.000e+000|RMSF=2.406e-005|Dipole=0.2642175,0.5932844,-0.400
 7715|PG=C02V [C2(S1),SGV(O2)]||@


 HIGGLEDY-PIGGLEDY
 NIC'LAUS COPERNICUS
 LOOKED AT THE UNIVERSE,
 SPOKE TO THE THRONG;
 GIVE UP YOUR PTOLOMY,
 RISE UP AND FOLLOW ME,
 HELIOCENTRICALLY
 PTOLEMY'S WRONG.
   -- NANCY L. STARK
 Job cpu time:       0 days  0 hours  0 minutes  5.0 seconds.
 File lengths (MBytes):  RWF=      5 Int=      0 D2E=      0 Chk=      1 Scr=      1
 Normal termination of Gaussian 09 at Tue Mar 10 12:07:24 2026.
 Link1:  Proceeding to internal job step number  2.
 -------------------------------------------------------------
 #N Geom=AllCheck Guess=TCheck SCRF=Check GenChk RPM6/ZDO Freq
 -------------------------------------------------------------
 1/10=4,29=7,30=1,38=1,40=1/1,3;
 2/12=2,40=1/2;
 3/5=2,14=-4,16=1,25=1,41=3900000,70=2,71=2,116=1,135=40,140=1/1,2,3;
 4/5=101,35=1/1;
 5/5=2,8=3,35=1,98=1/8;
 8/6=4,10=90,11=11/1;
 11/6=1,8=1,9=11,15=111,16=1/1,2,10;
 10/6=1/2;
 6/7=2,8=2,9=2,10=2,18=1,28=1/1;
 7/8=1,10=1,25=1/1,2,3,16;
 1/10=4,30=1/3;
 99//99;
 Structure from the checkpoint file:  "C:\Users\User\Desktop\IMRG\Thesis\Pending Journal Work\Individual Gas\SO2\SO2_freq.chk"
 --------
 SO2_freq
 --------
 Charge =  0 Multiplicity = 1
 Redundant internal coordinates found in file.
 S,0,2.3431643609,5.7061827673,1.7835349129
 O,0,3.2656136216,4.6477001565,1.7577699503
 O,0,1.081443818,6.0028523247,2.3239147373
 Recover connectivity data from disk.

 GradGradGradGradGradGradGradGradGradGradGradGradGradGradGradGradGradGrad
 Berny optimization.
 Initialization pass.
                           ----------------------------
                           !    Initial Parameters    !
                           ! (Angstroms and Degrees)  !
 --------------------------                            --------------------------
 ! Name  Definition              Value          Derivative Info.                !
 --------------------------------------------------------------------------------
 ! R1    R(1,2)                  1.4043         calculate D2E/DX2 analytically  !
 ! R2    R(1,3)                  1.4043         calculate D2E/DX2 analytically  !
 ! A1    A(2,1,3)              139.1578         calculate D2E/DX2 analytically  !
 --------------------------------------------------------------------------------
 Trust Radius=3.00D-01 FncErr=1.00D-07 GrdErr=1.00D-07
 Number of steps in this run=      2 maximum allowed number of steps=      2.
 GradGradGradGradGradGradGradGradGradGradGradGradGradGradGradGradGradGrad

                          Input orientation:                          
 ---------------------------------------------------------------------
 Center     Atomic      Atomic             Coordinates (Angstroms)
 Number     Number       Type             X           Y           Z
 ---------------------------------------------------------------------
      1         16           0        2.343164    5.706183    1.783535
      2          8           0        3.265614    4.647700    1.757770
      3          8           0        1.081444    6.002852    2.323915
 ---------------------------------------------------------------------
                    Distance matrix (angstroms):
                    1          2          3
     1  S    0.000000
     2  O    1.404266   0.000000
     3  O    1.404266   2.632025   0.000000
 Stoichiometry    O2S
 Framework group  C2V[C2(S),SGV(O2)]
 Deg. of freedom     2
 Full point group                 C2V     NOp   4
 Largest Abelian subgroup         C2V     NOp   4
 Largest concise Abelian subgroup C2      NOp   2
                         Standard orientation:                         
 ---------------------------------------------------------------------
 Center     Atomic      Atomic             Coordinates (Angstroms)
 Number     Number       Type             X           Y           Z
 ---------------------------------------------------------------------
      1         16           0        0.000000    0.000000    0.244986
      2          8           0        0.000000   -1.316012   -0.244986
      3          8           0        0.000000    1.316012   -0.244986
 ---------------------------------------------------------------------
 Rotational constants (GHZ):    131.6473958      9.1218994      8.5307972
 Standard basis: VSTO-6G (5D, 7F)
 There are     8 symmetry adapted cartesian basis functions of A1  symmetry.
 There are     2 symmetry adapted cartesian basis functions of A2  symmetry.
 There are     3 symmetry adapted cartesian basis functions of B1  symmetry.
 There are     5 symmetry adapted cartesian basis functions of B2  symmetry.
 There are     7 symmetry adapted basis functions of A1  symmetry.
 There are     2 symmetry adapted basis functions of A2  symmetry.
 There are     3 symmetry adapted basis functions of B1  symmetry.
 There are     5 symmetry adapted basis functions of B2  symmetry.
    17 basis functions,   108 primitive gaussians,    18 cartesian basis functions
     9 alpha electrons        9 beta electrons
       nuclear repulsion energy        54.2435718975 Hartrees.
 Integral buffers will be    262144 words long.
 Regular integral format.
 Two-electron integral symmetry is turned off.
 Do NDO integrals.
 One-electron integrals computed using PRISM.
 NBasis=    17 RedAO= T EigKep=  1.00D+00  NBF=     7     2     3     5
 NBsUse=    17 1.00D-06 EigRej= -1.00D+00 NBFU=     7     2     3     5
 Initial guess from the checkpoint file:  "C:\Users\User\Desktop\IMRG\Thesis\Pending Journal Work\Individual Gas\SO2\SO2_freq.chk"
 B after Tr=     0.000000    0.000000    0.000000
         Rot=    1.000000    0.000000    0.000000    0.000000 Ang=   0.00 deg.
 Initial guess orbital symmetries:
       Occupied  (A1) (B2) (A1) (B1) (A1) (B2) (A2) (B2) (A1)
       Virtual   (B1) (A1) (B2) (A1) (B1) (A1) (A2) (B2)
 Keep J ints in memory in canonical form, NReq=1850816.
 SCF Done:  E(RPM6) = -0.100137762727     a.u. after    1 cycles
            Convg  =    0.5002D-09                     1 Fock formations.
              S**2 =  0.0000                  -V/T =  0.9869
 Range of M.O.s used for correlation:     1    17
 NBasis=    17 NAE=     9 NBE=     9 NFC=     0 NFV=     0
 NROrb=     17 NOA=     9 NOB=     9 NVA=     8 NVB=     8
 Symmetrizing basis deriv contribution to polar:
 IMax=3 JMax=2 DiffMx= 0.00D+00
 G2DrvN: will do     4 centers at a time, making    1 passes.
 Calling FoFCou, ICntrl=  3107 FMM=F I1Cent=   0 AccDes= 0.00D+00.
 End of G2Drv F.D. properties file   721 does not exist.
 End of G2Drv F.D. properties file   722 does not exist.
 End of G2Drv F.D. properties file   788 does not exist.
          IDoAtm=111
          Differentiating once with respect to electric field.
                with respect to dipole field.
          Differentiating once with respect to nuclear coordinates.
          Electric field/nuclear overlap derivatives assumed to be zero.
 Keep J ints in memory in canonical form, NReq=1849732.
          There are     9 degrees of freedom in the 1st order CPHF.  IDoFFX=4 NUNeed=     9.
 LinEq1:  Iter=  0 NonCon=     9 RMS=6.61D-01 Max=3.27D+00 NDo=     9
 AX will form     9 AO Fock derivatives at one time.
 LinEq1:  Iter=  1 NonCon=     9 RMS=1.54D-01 Max=1.05D+00 NDo=     9
 LinEq1:  Iter=  2 NonCon=     9 RMS=2.34D-02 Max=1.18D-01 NDo=     9
 LinEq1:  Iter=  3 NonCon=     9 RMS=4.32D-03 Max=1.82D-02 NDo=     9
 LinEq1:  Iter=  4 NonCon=     9 RMS=6.11D-04 Max=3.11D-03 NDo=     9
 LinEq1:  Iter=  5 NonCon=     9 RMS=6.48D-05 Max=2.94D-04 NDo=     9
 LinEq1:  Iter=  6 NonCon=     9 RMS=6.25D-06 Max=2.28D-05 NDo=     9
 LinEq1:  Iter=  7 NonCon=     9 RMS=1.40D-06 Max=4.89D-06 NDo=     9
 LinEq1:  Iter=  8 NonCon=     5 RMS=2.73D-07 Max=1.10D-06 NDo=     9
 LinEq1:  Iter=  9 NonCon=     2 RMS=4.03D-08 Max=1.53D-07 NDo=     9
 LinEq1:  Iter= 10 NonCon=     0 RMS=5.13D-09 Max=1.42D-08 NDo=     9
 Linear equations converged to 1.000D-08 1.000D-07 after    10 iterations.
 Isotropic polarizability for W=    0.000000       24.44 Bohr**3.
 End of Minotr F.D. properties file   721 does not exist.
 End of Minotr F.D. properties file   722 does not exist.
 End of Minotr F.D. properties file   788 does not exist.

 **********************************************************************

            Population analysis using the SCF density.

 **********************************************************************

 Orbital symmetries:
       Occupied  (A1) (B2) (A1) (B1) (A1) (B2) (A2) (B2) (A1)
       Virtual   (B1) (A1) (B2) (A1) (B1) (A1) (A2) (B2)
 The electronic state is 1-A1.
 Alpha  occ. eigenvalues --   -1.19679  -1.12969  -0.74429  -0.56856  -0.55396
 Alpha  occ. eigenvalues --   -0.54776  -0.44872  -0.44786  -0.36033
 Alpha virt. eigenvalues --   -0.02176   0.00739   0.10702   0.30016   0.30770
 Alpha virt. eigenvalues --    0.31074   0.32320   0.34860
          Condensed to atoms (all electrons):
               1          2          3
     1  S    4.870545   0.000000   0.000000
     2  O    0.000000   6.564728   0.000000
     3  O    0.000000   0.000000   6.564728
 Mulliken charges:
               1
     1  S    1.129455
     2  O   -0.564728
     3  O   -0.564728
 Sum of Mulliken charges =   0.00000
 Mulliken charges with hydrogens summed into heavy atoms:
               1
     1  S    1.129455
     2  O   -0.564728
     3  O   -0.564728
 APT charges:
               1
     1  S    1.168066
     2  O   -0.584032
     3  O   -0.584032
 Sum of APT charges =   0.00000
 APT charges with hydrogens summed into heavy atoms:
               1
     1  S    1.168066
     2  O   -0.584032
     3  O   -0.584032
 Charge=              0.0000 electrons
 Dipole moment (field-independent basis, Debye):
    X=              0.0000    Y=              0.0000    Z=              1.9398  Tot=              1.9398
 N-N= 5.424357189746D+01 E-N=-8.904599177811D+01  KE=-7.645500700338D+00
 Symmetry A1   KE=-3.813737025580D+00
 Symmetry A2   KE=-4.432126067749D-01
 Symmetry B1   KE=-6.627486172043D-01
 Symmetry B2   KE=-2.725802450779D+00
  Exact polarizability:  11.288   0.000  52.569   0.000   0.000   9.460
 Approx polarizability:   8.350   0.000  60.490   0.000   0.000   8.521
 Calling FoFJK, ICntrl=    100127 FMM=F ISym2X=1 I1Cent= 0 IOpClX= 0 NMat=1 NMatS=1 NMatT=0.
 Full mass-weighted force constant matrix:
 Low frequencies ---   -8.0675   -5.4081   -5.1614   -0.0013    0.0040    0.0055
 Low frequencies ---  224.2050  992.7749 1284.4507
 Diagonal vibrational polarizability:
        0.0000000       3.3439923      39.3019195
 Harmonic frequencies (cm**-1), IR intensities (KM/Mole), Raman scattering
 activities (A**4/AMU), depolarization ratios for plane and unpolarized
 incident light, reduced masses (AMU), force constants (mDyne/A),
 and normal coordinates:
                      1                      2                      3
                     A1                     A1                     B2
 Frequencies --    224.2050               992.7749              1284.4507
 Red. masses --     20.3595                16.5846                20.8739
 Frc consts  --      0.6030                 9.6307                20.2903
 IR Inten    --     72.9817                 8.4517               205.0062
  Atom  AN      X      Y      Z        X      Y      Z        X      Y      Z
     1  16     0.00   0.00   0.52     0.00   0.00  -0.19     0.00   0.55   0.00
     2   8     0.00   0.30  -0.52     0.00   0.67   0.19     0.00  -0.55  -0.21
     3   8     0.00  -0.30  -0.52     0.00  -0.67   0.19     0.00  -0.55   0.21

 -------------------
 - Thermochemistry -
 -------------------
 Temperature   298.150 Kelvin.  Pressure   1.00000 Atm.
 Atom     1 has atomic number 16 and mass  31.97207
 Atom     2 has atomic number  8 and mass  15.99491
 Atom     3 has atomic number  8 and mass  15.99491
 Molecular mass:    63.96190 amu.
 Principal axes and moments of inertia in atomic units:
                           1         2         3
     Eigenvalues --    13.70890 197.84708 211.55599
           X            0.00000   0.00000   1.00000
           Y            1.00000   0.00000   0.00000
           Z            0.00000   1.00000   0.00000
 This molecule is an asymmetric top.
 Rotational symmetry number  2.
 Rotational temperatures (Kelvin)      6.31807     0.43778     0.40941
 Rotational constants (GHZ):         131.64740     9.12190     8.53080
 Zero-point vibrational energy      14961.9 (Joules/Mol)
                                    3.57597 (Kcal/Mol)
 Warning -- explicit consideration of   1 degrees of freedom as
           vibrations may cause significant error
 Vibrational temperatures:    322.58  1428.38  1848.04
          (Kelvin)
 
 Zero-point correction=                           0.005699 (Hartree/Particle)
 Thermal correction to Energy=                    0.009105
 Thermal correction to Enthalpy=                  0.010049
 Thermal correction to Gibbs Free Energy=        -0.018477
 Sum of electronic and zero-point Energies=             -0.094439
 Sum of electronic and thermal Energies=                -0.091033
 Sum of electronic and thermal Enthalpies=              -0.090089
 Sum of electronic and thermal Free Energies=           -0.118614
 
                     E (Thermal)             CV                S
                      KCal/Mol        Cal/Mol-Kelvin    Cal/Mol-Kelvin
 Total                    5.713              8.307             60.037
 Electronic               0.000              0.000              0.000
 Translational            0.889              2.981             38.386
 Rotational               0.889              2.981             19.601
 Vibrational              3.936              2.345              2.050
 Vibration     1          0.649              1.804              1.925
                       Q            Log10(Q)             Ln(Q)
 Total Bot       0.315204D+09          8.498591         19.568730
 Total V=0       0.131764D+12         11.119796         25.604276
 Vib (Bot)       0.365644D-02         -2.436941         -5.611264
 Vib (Bot)    1  0.880677D+00         -0.055183         -0.127064
 Vib (V=0)       0.152849D+01          0.184263          0.424282
 Vib (V=0)    1  0.151272D+01          0.179757          0.413906
 Electronic      0.100000D+01          0.000000          0.000000
 Translational   0.201065D+08          7.303337         16.816555
 Rotational      0.428741D+04          3.632195          8.363439
 ***** Axes restored to original set *****
 -------------------------------------------------------------------
 Center     Atomic                   Forces (Hartrees/Bohr)
 Number     Number              X              Y              Z
 -------------------------------------------------------------------
      1       16           0.000012626    0.000028350   -0.000019151
      2        8           0.000026966   -0.000034823    0.000000949
      3        8          -0.000039592    0.000006473    0.000018201
 -------------------------------------------------------------------
 Cartesian Forces:  Max     0.000039592 RMS     0.000024063
 FormGI is forming the generalized inverse of G from B-inverse, IUseBI=4.

 GradGradGradGradGradGradGradGradGradGradGradGradGradGradGradGradGradGrad
 Berny optimization.
 Internal  Forces:  Max     0.000043944 RMS     0.000036192
 Search for a local minimum.
 Step number   1 out of a maximum of    2
 All quantities printed in internal units (Hartrees-Bohrs-Radians)
 Second derivative matrix not updated -- analytic derivatives used.
 The second derivative matrix:
                          R1        R2        A1
           R1           0.54148
           R2           0.00994   0.54148
           A1           0.05948   0.05948   0.07083
 ITU=  0
     Eigenvalues ---    0.05653   0.53155   0.56571
 Angle between quadratic step and forces=  54.91 degrees.
 Linear search not attempted -- first point.
 Iteration  1 RMS(Cart)=  0.00019949 RMS(Int)=  0.00000003
 Iteration  2 RMS(Cart)=  0.00000003 RMS(Int)=  0.00000000
 ClnCor:  largest displacement from symmetrization is 5.33D-15 for atom     1.
 Variable       Old X    -DE/DX   Delta X   Delta X   Delta X     New X
                                 (Linear)    (Quad)   (Total)
    R1        2.65368   0.00004   0.00000   0.00011   0.00011   2.65379
    R2        2.65368   0.00004   0.00000   0.00011   0.00011   2.65379
    A1        2.42876  -0.00001   0.00000  -0.00031  -0.00031   2.42846
         Item               Value     Threshold  Converged?
 Maximum Force            0.000044     0.000450     YES
 RMS     Force            0.000036     0.000300     YES
 Maximum Displacement     0.000217     0.001800     YES
 RMS     Displacement     0.000200     0.001200     YES
 Predicted change in Energy=-6.201148D-09
 Optimization completed.
    -- Stationary point found.
                           ----------------------------
                           !   Optimized Parameters   !
                           ! (Angstroms and Degrees)  !
 --------------------------                            --------------------------
 ! Name  Definition              Value          Derivative Info.                !
 --------------------------------------------------------------------------------
 ! R1    R(1,2)                  1.4043         -DE/DX =    0.0                 !
 ! R2    R(1,3)                  1.4043         -DE/DX =    0.0                 !
 ! A1    A(2,1,3)              139.1578         -DE/DX =    0.0                 !
 --------------------------------------------------------------------------------
 GradGradGradGradGradGradGradGradGradGradGradGradGradGradGradGradGradGrad

 1|1|UNPC-AHELI-09|Freq|RPM6|ZDO|O2S1|USER|10-Mar-2026|0||#N Geom=AllCh
 eck Guess=TCheck SCRF=Check GenChk RPM6/ZDO Freq||SO2_freq||0,1|S,2.34
 31643609,5.7061827673,1.7835349129|O,3.2656136216,4.6477001565,1.75776
 99503|O,1.081443818,6.0028523247,2.3239147373||Version=IA32W-G09RevD.0
 1|State=1-A1|HF=-0.1001378|RMSD=0.000e+000|RMSF=2.406e-005|ZeroPoint=0
 .0056987|Thermal=0.0091048|Dipole=0.2642175,0.5932844,-0.4007715|Dipol
 eDeriv=1.4666764,-0.3519876,-0.314755,-0.3519876,1.2418107,-0.101676,-
 0.314755,-0.101676,0.7957116,-0.6471168,0.0829969,0.1523637,0.4091004,
 -0.741025,-0.0203388,0.0092613,0.1529752,-0.3639554,-0.8195588,0.26899
 15,0.1623922,-0.057112,-0.5007846,0.1220153,0.3054946,-0.0512987,-0.43
 17538|Polar=39.4964097,-18.1295533,21.1265351,-7.0361921,5.3179189,12.
 6939106|HyperPolar=60.5216685,18.782123,-52.3191628,48.6592527,-42.199
 7877,10.2246284,3.1301598,17.6141984,-9.4715349,-0.0897715|PG=C02V [C2
 (S1),SGV(O2)]|NImag=0||0.65624859,-0.36906650,0.31454715,-0.18684139,0
 .05809911,0.07376572,-0.23801409,0.24375348,0.01954256,0.25551352,0.27
 174161,-0.28281212,-0.02030869,-0.26701913,0.29212453,0.00726067,-0.00
 543386,-0.00145462,-0.01863247,0.01371311,0.00386703,-0.41823445,0.125
 31287,0.16729885,-0.01749941,-0.00472239,0.01137176,0.43573378,0.09732
 475,-0.03173518,-0.03779029,0.02326580,-0.00931240,-0.00827932,-0.1205
 9048,0.04104773,0.17958074,-0.05266512,-0.07231120,-0.00091015,0.00659
 554,-0.00241234,-0.17867056,0.04606953,0.07472357||-0.00001263,-0.0000
 2835,0.00001915,-0.00002697,0.00003482,-0.00000095,0.00003959,-0.00000
 647,-0.00001820|||@


 HIGGLEDY-PIGGLEDY
 NIC'LAUS COPERNICUS
 LOOKED AT THE UNIVERSE,
 SPOKE TO THE THRONG;
 GIVE UP YOUR PTOLOMY,
 RISE UP AND FOLLOW ME,
 HELIOCENTRICALLY
 PTOLEMY'S WRONG.
   -- NANCY L. STARK
 Job cpu time:       0 days  0 hours  0 minutes  1.0 seconds.
 File lengths (MBytes):  RWF=      5 Int=      0 D2E=      0 Chk=      1 Scr=      1
 Normal termination of Gaussian 09 at Tue Mar 10 12:07:25 2026.
