 Entering Link 1 = C:\Gaussian\G09W\l1.exe PID=     24248.
  
 Copyright (c) 1988,1990,1992,1993,1995,1998,2003,2009,2013,
            Gaussian, Inc.  All Rights Reserved.
  
 This is part of the Gaussian(R) 09 program.  It is based on
 the Gaussian(R) 03 system (copyright 2003, Gaussian, Inc.),
 the Gaussian(R) 98 system (copyright 1998, Gaussian, Inc.),
 the Gaussian(R) 94 system (copyright 1995, Gaussian, Inc.),
 the Gaussian 92(TM) system (copyright 1992, Gaussian, Inc.),
 the Gaussian 90(TM) system (copyright 1990, Gaussian, Inc.),
 the Gaussian 88(TM) system (copyright 1988, Gaussian, Inc.),
 the Gaussian 86(TM) system (copyright 1986, Carnegie Mellon
 University), and the Gaussian 82(TM) system (copyright 1983,
 Carnegie Mellon University). Gaussian is a federally registered
 trademark of Gaussian, Inc.
  
 This software contains proprietary and confidential information,
 including trade secrets, belonging to Gaussian, Inc.
  
 This software is provided under written license and may be
 used, copied, transmitted, or stored only in accord with that
 written license.
  
 The following legend is applicable only to US Government
 contracts under FAR:
  
                    RESTRICTED RIGHTS LEGEND
  
 Use, reproduction and disclosure by the US Government is
 subject to restrictions as set forth in subparagraphs (a)
 and (c) of the Commercial Computer Software - Restricted
 Rights clause in FAR 52.227-19.
  
 Gaussian, Inc.
 340 Quinnipiac St., Bldg. 40, Wallingford CT 06492
  
  
 ---------------------------------------------------------------
 Warning -- This program may not be used in any manner that
 competes with the business of Gaussian, Inc. or will provide
 assistance to any competitor of Gaussian, Inc.  The licensee
 of this program is prohibited from giving any competitor of
 Gaussian, Inc. access to this program.  By using this program,
 the user acknowledges that Gaussian, Inc. is engaged in the
 business of creating and licensing software in the field of
 computational chemistry and represents and warrants to the
 licensee that it is not a competitor of Gaussian, Inc. and that
 it will not use this program in any manner prohibited above.
 ---------------------------------------------------------------
  

 Cite this work as:
 Gaussian 09, Revision D.01,
 M. J. Frisch, G. W. Trucks, H. B. Schlegel, G. E. Scuseria, 
 M. A. Robb, J. R. Cheeseman, G. Scalmani, V. Barone, B. Mennucci, 
 G. A. Petersson, H. Nakatsuji, M. Caricato, X. Li, H. P. Hratchian, 
 A. F. Izmaylov, J. Bloino, G. Zheng, J. L. Sonnenberg, M. Hada, 
 M. Ehara, K. Toyota, R. Fukuda, J. Hasegawa, M. Ishida, T. Nakajima, 
 Y. Honda, O. Kitao, H. Nakai, T. Vreven, J. A. Montgomery, Jr., 
 J. E. Peralta, F. Ogliaro, M. Bearpark, J. J. Heyd, E. Brothers, 
 K. N. Kudin, V. N. Staroverov, T. Keith, R. Kobayashi, J. Normand, 
 K. Raghavachari, A. Rendell, J. C. Burant, S. S. Iyengar, J. Tomasi, 
 M. Cossi, N. Rega, J. M. Millam, M. Klene, J. E. Knox, J. B. Cross, 
 V. Bakken, C. Adamo, J. Jaramillo, R. Gomperts, R. E. Stratmann, 
 O. Yazyev, A. J. Austin, R. Cammi, C. Pomelli, J. W. Ochterski, 
 R. L. Martin, K. Morokuma, V. G. Zakrzewski, G. A. Voth, 
 P. Salvador, J. J. Dannenberg, S. Dapprich, A. D. Daniels, 
 O. Farkas, J. B. Foresman, J. V. Ortiz, J. Cioslowski, 
 and D. J. Fox, Gaussian, Inc., Wallingford CT, 2013.
 
 ******************************************
 Gaussian 09:  IA32W-G09RevD.01 24-Apr-2013
                15-Mar-2026 
 ******************************************
 %chk=C:\Users\User\Desktop\IMRG\ECE+ML\Ta_Gr_NS.chk
 ---------------------------------------
 # opt freq pm6 scf=qc geom=connectivity
 ---------------------------------------
 1/14=-1,18=20,19=15,26=1,38=1,57=2/1,3;
 2/9=110,12=2,17=6,18=5,40=1/2;
 3/5=2,16=1,25=1,41=3900000,71=1/1,2,3;
 4/35=1/1;
 5/5=2,8=3,35=1,38=5/8;
 6/7=2,8=2,9=2,10=2,28=1/1;
 7//1,2,3,16;
 1/14=-1,18=20,19=15,26=1/3(2);
 2/9=110/2;
 99//99;
 2/9=110/2;
 3/5=2,16=1,25=1,41=3900000,71=1,135=20/1,2,3;
 4/5=5,16=3,35=1/1;
 5/5=2,8=3,35=1,38=5/8;
 7//1,2,3,16;
 1/14=-1,18=20,19=15,26=1/3(-5);
 2/9=110/2;
 6/7=2,8=2,9=2,10=2,19=2,28=1/1;
 99/9=1/99;
 --------
 Ta_Gr_NS
 --------
 Symbolic Z-matrix:
 Charge =  0 Multiplicity = 2
 C                     0.17695   1.02371   2.99497 
 C                     1.43495   0.29741   2.57781 
 C                     2.69295   1.02371   2.99497 
 C                     5.20895   1.02371   2.99497 
 C                     7.72495   1.02371   2.99497 
 C                     3.95095   0.29741   2.57781 
 C                     6.46695   0.29741   2.57781 
 C                    -1.08105   3.20263   2.99497 
 C                    -2.33905   5.38155   2.99497 
 C                     0.17695   2.47633   2.57781 
 C                    -1.08105   4.65525   2.57781 
 C                    -2.33905   6.83417   2.57781 
 C                     1.43495   3.20263   2.99497 
 C                     0.17695   5.38155   2.99497 
 C                    -1.08105   7.56047   2.99497 
 C                     3.95095   3.20263   2.99497 
 C                     2.69295   5.38155   2.99497 
 C                     1.43495   7.56047   2.99497 
 C                     6.46695   3.20263   2.99497 
 C                     5.20895   5.38155   2.99497 
 C                     3.95095   7.56047   2.99497 
 C                     2.69295   2.47633   2.57781 
 C                     0.17695   6.83417   2.57781 
 C                     5.20895   2.47633   2.57781 
 C                     3.95095   4.65525   2.57781 
 C                     2.69295   6.83417   2.57781 
 C                     7.72495   2.47633   2.57781 
 C                     6.46695   4.65525   2.57781 
 C                     5.20895   6.83417   2.57781 
 H                     8.6156    2.99054   2.87315 
 H                     7.3576    5.16946   2.87315 
 H                     6.0996    7.34838   2.87315 
 H                     3.95095   8.58891   2.69962 
 H                     1.43495   8.58891   2.69962 
 H                    -1.08105   8.58891   2.69962 
 H                    -3.2297    7.34838   2.87315 
 H                    -3.2297    4.86734   2.69962 
 H                    -1.9717    2.68842   2.69962 
 H                    -0.7137    0.5095    2.69962 
 H                     1.43495  -0.73103   2.87315 
 H                     3.95095  -0.73103   2.87315 
 H                     6.49522  -0.60455   3.15277 
 H                     8.37341   0.35071   3.51599 
 Ta                    1.43495   4.65525   2.57781 
 

 GradGradGradGradGradGradGradGradGradGradGradGradGradGradGradGradGradGrad
 Berny optimization.
 Initialization pass.
                           ----------------------------
                           !    Initial Parameters    !
                           ! (Angstroms and Degrees)  !
 --------------------------                            --------------------------
 ! Name  Definition              Value          Derivative Info.                !
 --------------------------------------------------------------------------------
 ! R1    R(1,2)                  1.5113         estimate D2E/DX2                !
 ! R2    R(1,10)                 1.5113         estimate D2E/DX2                !
 ! R3    R(1,39)                 1.07           estimate D2E/DX2                !
 ! R4    R(2,3)                  1.5113         estimate D2E/DX2                !
 ! R5    R(2,40)                 1.07           estimate D2E/DX2                !
 ! R6    R(3,6)                  1.5113         estimate D2E/DX2                !
 ! R7    R(3,22)                 1.5113         estimate D2E/DX2                !
 ! R8    R(4,6)                  1.5113         estimate D2E/DX2                !
 ! R9    R(4,7)                  1.5113         estimate D2E/DX2                !
 ! R10   R(4,24)                 1.5113         estimate D2E/DX2                !
 ! R11   R(5,7)                  1.5113         estimate D2E/DX2                !
 ! R12   R(5,27)                 1.5113         estimate D2E/DX2                !
 ! R13   R(5,43)                 1.07           estimate D2E/DX2                !
 ! R14   R(6,41)                 1.07           estimate D2E/DX2                !
 ! R15   R(7,42)                 1.07           estimate D2E/DX2                !
 ! R16   R(8,10)                 1.5113         estimate D2E/DX2                !
 ! R17   R(8,11)                 1.5113         estimate D2E/DX2                !
 ! R18   R(8,38)                 1.07           estimate D2E/DX2                !
 ! R19   R(9,11)                 1.5113         estimate D2E/DX2                !
 ! R20   R(9,12)                 1.5113         estimate D2E/DX2                !
 ! R21   R(9,37)                 1.07           estimate D2E/DX2                !
 ! R22   R(10,13)                1.5113         estimate D2E/DX2                !
 ! R23   R(11,14)                1.5113         estimate D2E/DX2                !
 ! R24   R(12,15)                1.5113         estimate D2E/DX2                !
 ! R25   R(12,36)                1.07           estimate D2E/DX2                !
 ! R26   R(13,22)                1.5113         estimate D2E/DX2                !
 ! R27   R(13,44)                1.5113         estimate D2E/DX2                !
 ! R28   R(14,23)                1.5113         estimate D2E/DX2                !
 ! R29   R(14,44)                1.5113         estimate D2E/DX2                !
 ! R30   R(15,23)                1.5113         estimate D2E/DX2                !
 ! R31   R(15,35)                1.07           estimate D2E/DX2                !
 ! R32   R(16,22)                1.5113         estimate D2E/DX2                !
 ! R33   R(16,24)                1.5113         estimate D2E/DX2                !
 ! R34   R(16,25)                1.5113         estimate D2E/DX2                !
 ! R35   R(17,25)                1.5113         estimate D2E/DX2                !
 ! R36   R(17,26)                1.5113         estimate D2E/DX2                !
 ! R37   R(17,44)                1.5113         estimate D2E/DX2                !
 ! R38   R(18,23)                1.5113         estimate D2E/DX2                !
 ! R39   R(18,26)                1.5113         estimate D2E/DX2                !
 ! R40   R(18,34)                1.07           estimate D2E/DX2                !
 ! R41   R(19,24)                1.5113         estimate D2E/DX2                !
 ! R42   R(19,27)                1.5113         estimate D2E/DX2                !
 ! R43   R(19,28)                1.5113         estimate D2E/DX2                !
 ! R44   R(20,25)                1.5113         estimate D2E/DX2                !
 ! R45   R(20,28)                1.5113         estimate D2E/DX2                !
 ! R46   R(20,29)                1.5113         estimate D2E/DX2                !
 ! R47   R(21,26)                1.5113         estimate D2E/DX2                !
 ! R48   R(21,29)                1.5113         estimate D2E/DX2                !
 ! R49   R(21,33)                1.07           estimate D2E/DX2                !
 ! R50   R(27,30)                1.07           estimate D2E/DX2                !
 ! R51   R(28,31)                1.07           estimate D2E/DX2                !
 ! R52   R(29,32)                1.07           estimate D2E/DX2                !
 ! A1    A(2,1,10)             112.6884         estimate D2E/DX2                !
 ! A2    A(2,1,39)             112.6884         estimate D2E/DX2                !
 ! A3    A(10,1,39)            112.6884         estimate D2E/DX2                !
 ! A4    A(1,2,3)              112.6884         estimate D2E/DX2                !
 ! A5    A(1,2,40)             112.6884         estimate D2E/DX2                !
 ! A6    A(3,2,40)             112.6884         estimate D2E/DX2                !
 ! A7    A(2,3,6)              112.6884         estimate D2E/DX2                !
 ! A8    A(2,3,22)             112.6884         estimate D2E/DX2                !
 ! A9    A(6,3,22)             112.6884         estimate D2E/DX2                !
 ! A10   A(6,4,7)              112.6884         estimate D2E/DX2                !
 ! A11   A(6,4,24)             112.6884         estimate D2E/DX2                !
 ! A12   A(7,4,24)             112.6884         estimate D2E/DX2                !
 ! A13   A(7,5,27)             112.6884         estimate D2E/DX2                !
 ! A14   A(7,5,43)             109.6693         estimate D2E/DX2                !
 ! A15   A(27,5,43)            137.6415         estimate D2E/DX2                !
 ! A16   A(3,6,4)              112.6884         estimate D2E/DX2                !
 ! A17   A(3,6,41)             112.6884         estimate D2E/DX2                !
 ! A18   A(4,6,41)             112.6884         estimate D2E/DX2                !
 ! A19   A(4,7,5)              112.6884         estimate D2E/DX2                !
 ! A20   A(4,7,42)             106.187          estimate D2E/DX2                !
 ! A21   A(5,7,42)             103.5792         estimate D2E/DX2                !
 ! A22   A(10,8,11)            112.6884         estimate D2E/DX2                !
 ! A23   A(10,8,38)            112.6884         estimate D2E/DX2                !
 ! A24   A(11,8,38)            112.6884         estimate D2E/DX2                !
 ! A25   A(11,9,12)            112.6884         estimate D2E/DX2                !
 ! A26   A(11,9,37)            112.6884         estimate D2E/DX2                !
 ! A27   A(12,9,37)            112.6884         estimate D2E/DX2                !
 ! A28   A(1,10,8)             112.6884         estimate D2E/DX2                !
 ! A29   A(1,10,13)            112.6884         estimate D2E/DX2                !
 ! A30   A(8,10,13)            112.6884         estimate D2E/DX2                !
 ! A31   A(8,11,9)             112.6884         estimate D2E/DX2                !
 ! A32   A(8,11,14)            112.6884         estimate D2E/DX2                !
 ! A33   A(9,11,14)            112.6884         estimate D2E/DX2                !
 ! A34   A(9,12,15)            112.6884         estimate D2E/DX2                !
 ! A35   A(9,12,36)            112.6884         estimate D2E/DX2                !
 ! A36   A(15,12,36)           112.6884         estimate D2E/DX2                !
 ! A37   A(10,13,22)           112.6884         estimate D2E/DX2                !
 ! A38   A(10,13,44)           112.6884         estimate D2E/DX2                !
 ! A39   A(22,13,44)           112.6884         estimate D2E/DX2                !
 ! A40   A(11,14,23)           112.6884         estimate D2E/DX2                !
 ! A41   A(11,14,44)           112.6884         estimate D2E/DX2                !
 ! A42   A(23,14,44)           112.6884         estimate D2E/DX2                !
 ! A43   A(12,15,23)           112.6884         estimate D2E/DX2                !
 ! A44   A(12,15,35)           112.6884         estimate D2E/DX2                !
 ! A45   A(23,15,35)           112.6884         estimate D2E/DX2                !
 ! A46   A(22,16,24)           112.6884         estimate D2E/DX2                !
 ! A47   A(22,16,25)           112.6884         estimate D2E/DX2                !
 ! A48   A(24,16,25)           112.6884         estimate D2E/DX2                !
 ! A49   A(25,17,26)           112.6884         estimate D2E/DX2                !
 ! A50   A(25,17,44)           112.6884         estimate D2E/DX2                !
 ! A51   A(26,17,44)           112.6884         estimate D2E/DX2                !
 ! A52   A(23,18,26)           112.6884         estimate D2E/DX2                !
 ! A53   A(23,18,34)           112.6884         estimate D2E/DX2                !
 ! A54   A(26,18,34)           112.6884         estimate D2E/DX2                !
 ! A55   A(24,19,27)           112.6884         estimate D2E/DX2                !
 ! A56   A(24,19,28)           112.6884         estimate D2E/DX2                !
 ! A57   A(27,19,28)           112.6884         estimate D2E/DX2                !
 ! A58   A(25,20,28)           112.6884         estimate D2E/DX2                !
 ! A59   A(25,20,29)           112.6884         estimate D2E/DX2                !
 ! A60   A(28,20,29)           112.6884         estimate D2E/DX2                !
 ! A61   A(26,21,29)           112.6884         estimate D2E/DX2                !
 ! A62   A(26,21,33)           112.6884         estimate D2E/DX2                !
 ! A63   A(29,21,33)           112.6884         estimate D2E/DX2                !
 ! A64   A(3,22,13)            112.6884         estimate D2E/DX2                !
 ! A65   A(3,22,16)            112.6884         estimate D2E/DX2                !
 ! A66   A(13,22,16)           112.6884         estimate D2E/DX2                !
 ! A67   A(14,23,15)           112.6884         estimate D2E/DX2                !
 ! A68   A(14,23,18)           112.6884         estimate D2E/DX2                !
 ! A69   A(15,23,18)           112.6884         estimate D2E/DX2                !
 ! A70   A(4,24,16)            112.6884         estimate D2E/DX2                !
 ! A71   A(4,24,19)            112.6884         estimate D2E/DX2                !
 ! A72   A(16,24,19)           112.6884         estimate D2E/DX2                !
 ! A73   A(16,25,17)           112.6884         estimate D2E/DX2                !
 ! A74   A(16,25,20)           112.6884         estimate D2E/DX2                !
 ! A75   A(17,25,20)           112.6884         estimate D2E/DX2                !
 ! A76   A(17,26,18)           112.6884         estimate D2E/DX2                !
 ! A77   A(17,26,21)           112.6884         estimate D2E/DX2                !
 ! A78   A(18,26,21)           112.6884         estimate D2E/DX2                !
 ! A79   A(5,27,19)            112.6884         estimate D2E/DX2                !
 ! A80   A(5,27,30)            112.6884         estimate D2E/DX2                !
 ! A81   A(19,27,30)           112.6884         estimate D2E/DX2                !
 ! A82   A(19,28,20)           112.6884         estimate D2E/DX2                !
 ! A83   A(19,28,31)           112.6884         estimate D2E/DX2                !
 ! A84   A(20,28,31)           112.6884         estimate D2E/DX2                !
 ! A85   A(20,29,21)           112.6884         estimate D2E/DX2                !
 ! A86   A(20,29,32)           112.6884         estimate D2E/DX2                !
 ! A87   A(21,29,32)           112.6884         estimate D2E/DX2                !
 ! A88   A(13,44,14)           112.6884         estimate D2E/DX2                !
 ! A89   A(13,44,17)           112.6884         estimate D2E/DX2                !
 ! A90   A(14,44,17)           112.6884         estimate D2E/DX2                !
 ! D1    D(10,1,2,3)            51.1032         estimate D2E/DX2                !
 ! D2    D(10,1,2,40)          180.0            estimate D2E/DX2                !
 ! D3    D(39,1,2,3)           180.0            estimate D2E/DX2                !
 ! D4    D(39,1,2,40)          -51.1032         estimate D2E/DX2                !
 ! D5    D(2,1,10,8)           180.0            estimate D2E/DX2                !
 ! D6    D(2,1,10,13)          -51.1032         estimate D2E/DX2                !
 ! D7    D(39,1,10,8)           51.1032         estimate D2E/DX2                !
 ! D8    D(39,1,10,13)         180.0            estimate D2E/DX2                !
 ! D9    D(1,2,3,6)            180.0            estimate D2E/DX2                !
 ! D10   D(1,2,3,22)           -51.1032         estimate D2E/DX2                !
 ! D11   D(40,2,3,6)            51.1032         estimate D2E/DX2                !
 ! D12   D(40,2,3,22)         -180.0            estimate D2E/DX2                !
 ! D13   D(2,3,6,4)            180.0            estimate D2E/DX2                !
 ! D14   D(2,3,6,41)           -51.1032         estimate D2E/DX2                !
 ! D15   D(22,3,6,4)            51.1032         estimate D2E/DX2                !
 ! D16   D(22,3,6,41)          180.0            estimate D2E/DX2                !
 ! D17   D(2,3,22,13)           51.1032         estimate D2E/DX2                !
 ! D18   D(2,3,22,16)          180.0            estimate D2E/DX2                !
 ! D19   D(6,3,22,13)          180.0            estimate D2E/DX2                !
 ! D20   D(6,3,22,16)          -51.1032         estimate D2E/DX2                !
 ! D21   D(7,4,6,3)            180.0            estimate D2E/DX2                !
 ! D22   D(7,4,6,41)            51.1032         estimate D2E/DX2                !
 ! D23   D(24,4,6,3)           -51.1032         estimate D2E/DX2                !
 ! D24   D(24,4,6,41)          180.0            estimate D2E/DX2                !
 ! D25   D(6,4,7,5)            180.0            estimate D2E/DX2                !
 ! D26   D(6,4,7,42)           -67.2727         estimate D2E/DX2                !
 ! D27   D(24,4,7,5)            51.1032         estimate D2E/DX2                !
 ! D28   D(24,4,7,42)          163.8304         estimate D2E/DX2                !
 ! D29   D(6,4,24,16)           51.1032         estimate D2E/DX2                !
 ! D30   D(6,4,24,19)          180.0            estimate D2E/DX2                !
 ! D31   D(7,4,24,16)          180.0            estimate D2E/DX2                !
 ! D32   D(7,4,24,19)          -51.1032         estimate D2E/DX2                !
 ! D33   D(27,5,7,4)           -51.1032         estimate D2E/DX2                !
 ! D34   D(27,5,7,42)         -165.4227         estimate D2E/DX2                !
 ! D35   D(43,5,7,4)           128.6399         estimate D2E/DX2                !
 ! D36   D(43,5,7,42)           14.3203         estimate D2E/DX2                !
 ! D37   D(7,5,27,19)           51.1032         estimate D2E/DX2                !
 ! D38   D(7,5,27,30)          180.0            estimate D2E/DX2                !
 ! D39   D(43,5,27,19)        -128.5377         estimate D2E/DX2                !
 ! D40   D(43,5,27,30)           0.3591         estimate D2E/DX2                !
 ! D41   D(11,8,10,1)          180.0            estimate D2E/DX2                !
 ! D42   D(11,8,10,13)          51.1032         estimate D2E/DX2                !
 ! D43   D(38,8,10,1)          -51.1032         estimate D2E/DX2                !
 ! D44   D(38,8,10,13)        -180.0            estimate D2E/DX2                !
 ! D45   D(10,8,11,9)          180.0            estimate D2E/DX2                !
 ! D46   D(10,8,11,14)         -51.1032         estimate D2E/DX2                !
 ! D47   D(38,8,11,9)           51.1032         estimate D2E/DX2                !
 ! D48   D(38,8,11,14)         180.0            estimate D2E/DX2                !
 ! D49   D(12,9,11,8)         -180.0            estimate D2E/DX2                !
 ! D50   D(12,9,11,14)          51.1032         estimate D2E/DX2                !
 ! D51   D(37,9,11,8)          -51.1032         estimate D2E/DX2                !
 ! D52   D(37,9,11,14)         180.0            estimate D2E/DX2                !
 ! D53   D(11,9,12,15)         -51.1032         estimate D2E/DX2                !
 ! D54   D(11,9,12,36)        -180.0            estimate D2E/DX2                !
 ! D55   D(37,9,12,15)         180.0            estimate D2E/DX2                !
 ! D56   D(37,9,12,36)          51.1032         estimate D2E/DX2                !
 ! D57   D(1,10,13,22)          51.1032         estimate D2E/DX2                !
 ! D58   D(1,10,13,44)         180.0            estimate D2E/DX2                !
 ! D59   D(8,10,13,22)         180.0            estimate D2E/DX2                !
 ! D60   D(8,10,13,44)         -51.1032         estimate D2E/DX2                !
 ! D61   D(8,11,14,23)         180.0            estimate D2E/DX2                !
 ! D62   D(8,11,14,44)          51.1032         estimate D2E/DX2                !
 ! D63   D(9,11,14,23)         -51.1032         estimate D2E/DX2                !
 ! D64   D(9,11,14,44)         180.0            estimate D2E/DX2                !
 ! D65   D(9,12,15,23)          51.1032         estimate D2E/DX2                !
 ! D66   D(9,12,15,35)         180.0            estimate D2E/DX2                !
 ! D67   D(36,12,15,23)        180.0            estimate D2E/DX2                !
 ! D68   D(36,12,15,35)        -51.1032         estimate D2E/DX2                !
 ! D69   D(10,13,22,3)         -51.1032         estimate D2E/DX2                !
 ! D70   D(10,13,22,16)        180.0            estimate D2E/DX2                !
 ! D71   D(44,13,22,3)         180.0            estimate D2E/DX2                !
 ! D72   D(44,13,22,16)         51.1032         estimate D2E/DX2                !
 ! D73   D(10,13,44,14)         51.1032         estimate D2E/DX2                !
 ! D74   D(10,13,44,17)        180.0            estimate D2E/DX2                !
 ! D75   D(22,13,44,14)       -180.0            estimate D2E/DX2                !
 ! D76   D(22,13,44,17)        -51.1032         estimate D2E/DX2                !
 ! D77   D(11,14,23,15)         51.1032         estimate D2E/DX2                !
 ! D78   D(11,14,23,18)        180.0            estimate D2E/DX2                !
 ! D79   D(44,14,23,15)        180.0            estimate D2E/DX2                !
 ! D80   D(44,14,23,18)        -51.1032         estimate D2E/DX2                !
 ! D81   D(11,14,44,13)        -51.1032         estimate D2E/DX2                !
 ! D82   D(11,14,44,17)        180.0            estimate D2E/DX2                !
 ! D83   D(23,14,44,13)       -180.0            estimate D2E/DX2                !
 ! D84   D(23,14,44,17)         51.1032         estimate D2E/DX2                !
 ! D85   D(12,15,23,14)        -51.1032         estimate D2E/DX2                !
 ! D86   D(12,15,23,18)        180.0            estimate D2E/DX2                !
 ! D87   D(35,15,23,14)        180.0            estimate D2E/DX2                !
 ! D88   D(35,15,23,18)         51.1032         estimate D2E/DX2                !
 ! D89   D(24,16,22,3)          51.1032         estimate D2E/DX2                !
 ! D90   D(24,16,22,13)        180.0            estimate D2E/DX2                !
 ! D91   D(25,16,22,3)         180.0            estimate D2E/DX2                !
 ! D92   D(25,16,22,13)        -51.1032         estimate D2E/DX2                !
 ! D93   D(22,16,24,4)         -51.1032         estimate D2E/DX2                !
 ! D94   D(22,16,24,19)        180.0            estimate D2E/DX2                !
 ! D95   D(25,16,24,4)         180.0            estimate D2E/DX2                !
 ! D96   D(25,16,24,19)         51.1032         estimate D2E/DX2                !
 ! D97   D(22,16,25,17)         51.1032         estimate D2E/DX2                !
 ! D98   D(22,16,25,20)        180.0            estimate D2E/DX2                !
 ! D99   D(24,16,25,17)        180.0            estimate D2E/DX2                !
 ! D100  D(24,16,25,20)        -51.1032         estimate D2E/DX2                !
 ! D101  D(26,17,25,16)       -180.0            estimate D2E/DX2                !
 ! D102  D(26,17,25,20)         51.1032         estimate D2E/DX2                !
 ! D103  D(44,17,25,16)        -51.1032         estimate D2E/DX2                !
 ! D104  D(44,17,25,20)        180.0            estimate D2E/DX2                !
 ! D105  D(25,17,26,18)        180.0            estimate D2E/DX2                !
 ! D106  D(25,17,26,21)        -51.1032         estimate D2E/DX2                !
 ! D107  D(44,17,26,18)         51.1032         estimate D2E/DX2                !
 ! D108  D(44,17,26,21)        180.0            estimate D2E/DX2                !
 ! D109  D(25,17,44,13)         51.1032         estimate D2E/DX2                !
 ! D110  D(25,17,44,14)        180.0            estimate D2E/DX2                !
 ! D111  D(26,17,44,13)        180.0            estimate D2E/DX2                !
 ! D112  D(26,17,44,14)        -51.1032         estimate D2E/DX2                !
 ! D113  D(26,18,23,14)         51.1032         estimate D2E/DX2                !
 ! D114  D(26,18,23,15)        180.0            estimate D2E/DX2                !
 ! D115  D(34,18,23,14)        180.0            estimate D2E/DX2                !
 ! D116  D(34,18,23,15)        -51.1032         estimate D2E/DX2                !
 ! D117  D(23,18,26,17)        -51.1032         estimate D2E/DX2                !
 ! D118  D(23,18,26,21)        180.0            estimate D2E/DX2                !
 ! D119  D(34,18,26,17)        180.0            estimate D2E/DX2                !
 ! D120  D(34,18,26,21)         51.1032         estimate D2E/DX2                !
 ! D121  D(27,19,24,4)          51.1032         estimate D2E/DX2                !
 ! D122  D(27,19,24,16)        180.0            estimate D2E/DX2                !
 ! D123  D(28,19,24,4)         180.0            estimate D2E/DX2                !
 ! D124  D(28,19,24,16)        -51.1032         estimate D2E/DX2                !
 ! D125  D(24,19,27,5)         -51.1032         estimate D2E/DX2                !
 ! D126  D(24,19,27,30)        180.0            estimate D2E/DX2                !
 ! D127  D(28,19,27,5)         180.0            estimate D2E/DX2                !
 ! D128  D(28,19,27,30)         51.1032         estimate D2E/DX2                !
 ! D129  D(24,19,28,20)         51.1032         estimate D2E/DX2                !
 ! D130  D(24,19,28,31)        180.0            estimate D2E/DX2                !
 ! D131  D(27,19,28,20)        180.0            estimate D2E/DX2                !
 ! D132  D(27,19,28,31)        -51.1032         estimate D2E/DX2                !
 ! D133  D(28,20,25,16)         51.1032         estimate D2E/DX2                !
 ! D134  D(28,20,25,17)        180.0            estimate D2E/DX2                !
 ! D135  D(29,20,25,16)        180.0            estimate D2E/DX2                !
 ! D136  D(29,20,25,17)        -51.1032         estimate D2E/DX2                !
 ! D137  D(25,20,28,19)        -51.1032         estimate D2E/DX2                !
 ! D138  D(25,20,28,31)        180.0            estimate D2E/DX2                !
 ! D139  D(29,20,28,19)       -180.0            estimate D2E/DX2                !
 ! D140  D(29,20,28,31)         51.1032         estimate D2E/DX2                !
 ! D141  D(25,20,29,21)         51.1032         estimate D2E/DX2                !
 ! D142  D(25,20,29,32)        180.0            estimate D2E/DX2                !
 ! D143  D(28,20,29,21)        180.0            estimate D2E/DX2                !
 ! D144  D(28,20,29,32)        -51.1032         estimate D2E/DX2                !
 ! D145  D(29,21,26,17)         51.1032         estimate D2E/DX2                !
 ! D146  D(29,21,26,18)       -180.0            estimate D2E/DX2                !
 ! D147  D(33,21,26,17)        180.0            estimate D2E/DX2                !
 ! D148  D(33,21,26,18)        -51.1032         estimate D2E/DX2                !
 ! D149  D(26,21,29,20)        -51.1032         estimate D2E/DX2                !
 ! D150  D(26,21,29,32)        180.0            estimate D2E/DX2                !
 ! D151  D(33,21,29,20)        180.0            estimate D2E/DX2                !
 ! D152  D(33,21,29,32)         51.1032         estimate D2E/DX2                !
 --------------------------------------------------------------------------------
 Trust Radius=3.00D-01 FncErr=1.00D-07 GrdErr=1.00D-07
 Number of steps in this run=    264 maximum allowed number of steps=    264.
 GradGradGradGradGradGradGradGradGradGradGradGradGradGradGradGradGradGrad

                          Input orientation:                          
 ---------------------------------------------------------------------
 Center     Atomic      Atomic             Coordinates (Angstroms)
 Number     Number       Type             X           Y           Z
 ---------------------------------------------------------------------
      1          6           0        0.176948    1.023714    2.994967
      2          6           0        1.434948    0.297407    2.577810
      3          6           0        2.692948    1.023714    2.994967
      4          6           0        5.208948    1.023714    2.994967
      5          6           0        7.724948    1.023714    2.994967
      6          6           0        3.950948    0.297407    2.577810
      7          6           0        6.466948    0.297407    2.577810
      8          6           0       -1.081052    3.202634    2.994967
      9          6           0       -2.339052    5.381554    2.994967
     10          6           0        0.176948    2.476327    2.577810
     11          6           0       -1.081052    4.655247    2.577810
     12          6           0       -2.339052    6.834167    2.577810
     13          6           0        1.434948    3.202634    2.994967
     14          6           0        0.176948    5.381554    2.994967
     15          6           0       -1.081052    7.560474    2.994967
     16          6           0        3.950948    3.202634    2.994967
     17          6           0        2.692948    5.381554    2.994967
     18          6           0        1.434948    7.560474    2.994967
     19          6           0        6.466948    3.202634    2.994967
     20          6           0        5.208948    5.381554    2.994967
     21          6           0        3.950948    7.560474    2.994967
     22          6           0        2.692948    2.476327    2.577810
     23          6           0        0.176948    6.834167    2.577810
     24          6           0        5.208948    2.476327    2.577810
     25          6           0        3.950948    4.655247    2.577810
     26          6           0        2.692948    6.834167    2.577810
     27          6           0        7.724948    2.476327    2.577810
     28          6           0        6.466948    4.655247    2.577810
     29          6           0        5.208948    6.834167    2.577810
     30          1           0        8.615597    2.990544    2.873152
     31          1           0        7.357597    5.169464    2.873152
     32          1           0        6.099597    7.348383    2.873152
     33          1           0        3.950948    8.588906    2.699625
     34          1           0        1.434948    8.588906    2.699625
     35          1           0       -1.081052    8.588906    2.699625
     36          1           0       -3.229701    7.348383    2.873152
     37          1           0       -3.229701    4.867338    2.699625
     38          1           0       -1.971701    2.688418    2.699625
     39          1           0       -0.713701    0.509498    2.699625
     40          1           0        1.434948   -0.731025    2.873152
     41          1           0        3.950948   -0.731025    2.873152
     42          1           0        6.495217   -0.604546    3.152772
     43          1           0        8.373408    0.350713    3.515994
     44         73           0        1.434948    4.655247    2.577810
 ---------------------------------------------------------------------
                    Distance matrix (angstroms):
                    1          2          3          4          5
     1  C    0.000000
     2  C    1.511326   0.000000
     3  C    2.516000   1.511326   0.000000
     4  C    5.032000   3.865827   2.516000   0.000000
     5  C    7.548000   6.345521   5.032000   2.516000   0.000000
     6  C    3.865827   2.516000   1.511326   1.511326   3.865827
     7  C    6.345521   5.032000   3.865827   1.511326   1.511326
     8  C    2.516000   3.865827   4.357840   6.656710   9.071567
     9  C    5.032000   6.345521   6.656710   8.715680  10.966990
    10  C    1.511326   2.516000   2.935023   5.254058   7.697818
    11  C    3.865827   5.032000   5.254058   7.275036   9.534552
    12  C    6.345521   7.548000   7.697818   9.534552  11.628391
    13  C    2.516000   2.935023   2.516000   4.357840   6.656710
    14  C    4.357840   5.254058   5.032000   6.656710   8.715680
    15  C    6.656710   7.697818   7.548000   9.071567  10.966990
    16  C    4.357840   3.865827   2.516000   2.516000   4.357840
    17  C    5.032000   5.254058   4.357840   5.032000   6.656710
    18  C    6.656710   7.275036   6.656710   7.548000   9.071567
    19  C    6.656710   5.825409   4.357840   2.516000   2.516000
    20  C    6.656710   6.345521   5.032000   4.357840   5.032000
    21  C    7.548000   7.697818   6.656710   6.656710   7.548000
    22  C    2.935023   2.516000   1.511326   2.935023   5.254058
    23  C    5.825409   6.656710   6.345521   7.697818   9.534552
    24  C    5.254058   4.357840   2.935023   1.511326   2.935023
    25  C    5.254058   5.032000   3.865827   3.865827   5.254058
    26  C    6.345521   6.656710   5.825409   6.345521   7.697818
    27  C    7.697818   6.656710   5.254058   2.935023   1.511326
    28  C    7.275036   6.656710   5.254058   3.865827   3.865827
    29  C    7.697818   7.548000   6.345521   5.825409   6.345521
    30  H    8.665682   7.674759   6.241877   3.935545   2.162524
    31  H    8.292394   7.674759   6.241877   4.671056   4.163775
    32  H    8.665682   8.459458   7.184813   6.388234   6.531313
    33  H    8.459458   8.665682   7.674759   7.674759   8.459458
    34  H    7.674759   8.292394   7.674759   8.459458   9.842940
    35  H    7.674759   8.665682   8.459458   9.842940  11.613139
    36  H    7.184813   8.459458   8.665682  10.546425  12.649925
    37  H    5.144504   6.531313   7.066713   9.277471  11.613139
    38  H    2.734073   4.163775   4.961594   7.377003   9.842940
    39  H    1.070000   2.162524   3.457875   5.952261   8.459458
    40  H    2.162524   1.070000   2.162524   4.163775   6.531313
    41  H    4.163775   2.734073   2.162524   2.162524   4.163775
    42  H    6.526612   5.172082   4.139249   2.081015   2.046551
    43  H    8.240531   7.001804   5.743868   3.276920   1.070000
    44  Ta   3.865827   4.357840   3.865827   5.254058   7.275036
                    6          7          8          9         10
     6  C    0.000000
     7  C    2.516000   0.000000
     8  C    5.825409   8.098559   0.000000
     9  C    8.098559  10.176846   2.516000   0.000000
    10  C    4.357840   6.656710   1.511326   3.865827   0.000000
    11  C    6.656710   8.715680   1.511326   1.511326   2.516000
    12  C    9.071567  10.966990   3.865827   1.511326   5.032000
    13  C    3.865827   5.825409   2.516000   4.357840   1.511326
    14  C    6.345521   8.098559   2.516000   2.516000   2.935023
    15  C    8.845743  10.483246   4.357840   2.516000   5.254058
    16  C    2.935023   3.865827   5.032000   6.656710   3.865827
    17  C    5.254058   6.345521   4.357840   5.032000   3.865827
    18  C    7.697818   8.845743   5.032000   4.357840   5.254058
    19  C    3.865827   2.935023   7.548000   9.071567   6.345521
    20  C    5.254058   5.254058   6.656710   7.548000   5.825409
    21  C    7.275036   7.697818   6.656710   6.656710   6.345521
    22  C    2.516000   4.357840   3.865827   5.825409   2.516000
    23  C    7.548000   9.071567   3.865827   2.935023   4.357840
    24  C    2.516000   2.516000   6.345521   8.098559   5.032000
    25  C    4.357840   5.032000   5.254058   6.345521   4.357840
    26  C    6.656710   7.548000   5.254058   5.254058   5.032000
    27  C    4.357840   2.516000   8.845743  10.483246   7.548000
    28  C    5.032000   4.357840   7.697818   8.845743   6.656710
    29  C    6.656710   6.656710   7.275036   7.697818   6.656710
    30  H    5.394363   3.457875   9.699733  11.213211   8.459458
    31  H    5.952261   4.961594   8.665682   9.699733   7.674759
    32  H    7.377003   7.066713   8.292394   8.665682   7.674759
    33  H    8.292394   8.665682   7.377003   7.066713   7.184813
    34  H    8.665682   9.699733   5.952261   4.961594   6.241877
    35  H    9.699733  11.213211   5.394363   3.457875   6.241877
    36  H   10.068029  11.992851   4.671056   2.162524   5.952261
    37  H    8.512392  10.720266   2.734073   1.070000   4.163775
    38  H    6.388234   8.771691   1.070000   2.734073   2.162524
    39  H    4.671056   7.184813   2.734073   5.144504   2.162524
    40  H    2.734073   5.144504   4.671056   7.184813   3.457875
    41  H    1.070000   2.734073   6.388234   8.771691   4.961594
    42  H    2.759965   1.070000   8.480529  10.672516   7.052864
    43  H    4.521192   2.125469   9.888970  11.846418   8.519412
    44  Ta   5.032000   6.656710   2.935023   3.865827   2.516000
                   11         12         13         14         15
    11  C    0.000000
    12  C    2.516000   0.000000
    13  C    2.935023   5.254058   0.000000
    14  C    1.511326   2.935023   2.516000   0.000000
    15  C    2.935023   1.511326   5.032000   2.516000   0.000000
    16  C    5.254058   7.275036   2.516000   4.357840   6.656710
    17  C    3.865827   5.254058   2.516000   2.516000   4.357840
    18  C    3.865827   3.865827   4.357840   2.516000   2.516000
    19  C    7.697818   9.534552   5.032000   6.656710   8.715680
    20  C    6.345521   7.697818   4.357840   5.032000   6.656710
    21  C    5.825409   6.345521   5.032000   4.357840   5.032000
    22  C    4.357840   6.656710   1.511326   3.865827   6.345521
    23  C    2.516000   2.516000   3.865827   1.511326   1.511326
    24  C    6.656710   8.715680   3.865827   5.825409   8.098559
    25  C    5.032000   6.656710   2.935023   3.865827   5.825409
    26  C    4.357840   5.032000   3.865827   2.935023   3.865827
    27  C    9.071567  10.966990   6.345521   8.098559  10.176846
    28  C    7.548000   9.071567   5.254058   6.345521   8.098559
    29  C    6.656710   7.548000   5.254058   5.254058   6.345521
    30  H    9.842940  11.613139   7.184813   8.771691  10.720266
    31  H    8.459458   9.842940   6.241877   7.184813   8.771691
    32  H    7.674759   8.459458   6.241877   6.241877   7.184813
    33  H    6.388234   6.531313   5.952261   4.961594   5.144504
    34  H    4.671056   4.163775   5.394363   3.457875   2.734073
    35  H    3.935545   2.162524   5.952261   3.457875   1.070000
    36  H    3.457875   1.070000   6.241877   3.935545   2.162524
    37  H    2.162524   2.162524   4.961594   3.457875   3.457875
    38  H    2.162524   4.163775   3.457875   3.457875   4.961594
    39  H    4.163775   6.531313   3.457875   4.961594   7.066713
    40  H    5.952261   8.459458   3.935545   6.241877   8.665682
    41  H    7.377003   9.842940   4.671056   7.184813   9.699733
    42  H    9.240988  11.563276   6.334497   8.705103  11.139673
    43  H   10.430533  12.556757   7.519784   9.631344  11.901215
    44  Ta   2.516000   4.357840   1.511326   1.511326   3.865827
                   16         17         18         19         20
    16  C    0.000000
    17  C    2.516000   0.000000
    18  C    5.032000   2.516000   0.000000
    19  C    2.516000   4.357840   6.656710   0.000000
    20  C    2.516000   2.516000   4.357840   2.516000   0.000000
    21  C    4.357840   2.516000   2.516000   5.032000   2.516000
    22  C    1.511326   2.935023   5.254058   3.865827   3.865827
    23  C    5.254058   2.935023   1.511326   7.275036   5.254058
    24  C    1.511326   3.865827   6.345521   1.511326   2.935023
    25  C    1.511326   1.511326   3.865827   2.935023   1.511326
    26  C    3.865827   1.511326   1.511326   5.254058   2.935023
    27  C    3.865827   5.825409   8.098559   1.511326   3.865827
    28  C    2.935023   3.865827   5.825409   1.511326   1.511326
    29  C    3.865827   2.935023   3.865827   3.865827   1.511326
    30  H    4.671056   6.388234   8.512392   2.162524   4.163775
    31  H    3.935545   4.671056   6.388234   2.162524   2.162524
    32  H    4.671056   3.935545   4.671056   4.163775   2.162524
    33  H    5.394363   3.457875   2.734073   5.952261   3.457875
    34  H    5.952261   3.457875   1.070000   7.377003   4.961594
    35  H    7.377003   4.961594   2.734073   9.277471   7.066713
    36  H    8.292394   6.241877   4.671056  10.546425   8.665682
    37  H    7.377003   5.952261   5.394363   9.842940   8.459458
    38  H    5.952261   5.394363   5.952261   8.459458   7.674759
    39  H    5.394363   5.952261   7.377003   7.674759   7.674759
    40  H    4.671056   6.241877   8.292394   6.388234   7.184813
    41  H    3.935545   6.241877   8.665682   4.671056   6.241877
    42  H    4.581793   7.093345   9.607225   3.810554   6.124768
    43  H    5.288012   7.605817  10.019698   3.469800   5.966124
    44  Ta   2.935023   1.511326   2.935023   5.254058   3.865827
                   21         22         23         24         25
    21  C    0.000000
    22  C    5.254058   0.000000
    23  C    3.865827   5.032000   0.000000
    24  C    5.254058   2.516000   6.656710   0.000000
    25  C    2.935023   2.516000   4.357840   2.516000   0.000000
    26  C    1.511326   4.357840   2.516000   5.032000   2.516000
    27  C    6.345521   5.032000   8.715680   2.516000   4.357840
    28  C    3.865827   4.357840   6.656710   2.516000   2.516000
    29  C    1.511326   5.032000   5.032000   4.357840   2.516000
    30  H    6.531313   5.952261   9.277471   3.457875   4.961594
    31  H    4.163775   5.394363   7.377003   3.457875   3.457875
    32  H    2.162524   5.952261   5.952261   4.961594   3.457875
    33  H    1.070000   6.241877   4.163775   6.241877   3.935545
    34  H    2.734073   6.241877   2.162524   7.184813   4.671056
    35  H    5.144504   7.184813   2.162524   8.771691   6.388234
    36  H    7.184813   7.674759   3.457875   9.748587   7.674759
    37  H    7.674759   6.388234   3.935545   8.771691   7.184813
    38  H    7.674759   4.671056   4.671056   7.184813   6.241877
    39  H    8.459458   3.935545   6.388234   6.241877   6.241877
    40  H    8.665682   3.457875   7.674759   4.961594   5.952261
    41  H    8.292394   3.457875   8.459458   3.457875   5.394363
    42  H    8.553698   4.927435   9.776787   3.387750   5.871057
    43  H    8.474094   6.137267  10.492727   3.925841   6.242384
    44  Ta   3.865827   2.516000   2.516000   4.357840   2.516000
                   26         27         28         29         30
    26  C    0.000000
    27  C    6.656710   0.000000
    28  C    4.357840   2.516000   0.000000
    29  C    2.516000   5.032000   2.516000   0.000000
    30  H    7.066713   1.070000   2.734073   5.144504   0.000000
    31  H    4.961594   2.734073   1.070000   2.734073   2.516000
    32  H    3.457875   5.144504   2.734073   1.070000   5.032000
    33  H    2.162524   7.184813   4.671056   2.162524   7.289082
    34  H    2.162524   8.771691   6.388234   4.163775   9.106783
    35  H    4.163775  10.720266   8.512392   6.531313  11.198070
    36  H    5.952261  11.992851  10.068029   8.459458  12.621483
    37  H    6.241877  11.213211   9.699733   8.665682  11.994313
    38  H    6.241877   9.699733   8.665682   8.292394  10.593029
    39  H    7.184813   8.665682   8.292394   8.665682   9.655127
    40  H    7.674759   7.066713   7.377003   8.459458   8.087755
    41  H    7.674759   4.961594   5.952261   7.674759   5.967329
    42  H    8.373905   3.366689   5.291201   7.570966   4.183164
    43  H    8.670812   2.412245   4.800395   7.275244   2.727747
    44  Ta   2.516000   6.656710   5.032000   4.357840   7.377003
                   31         32         33         34         35
    31  H    0.000000
    32  H    2.516000   0.000000
    33  H    4.829902   2.487107   0.000000
    34  H    6.841087   4.829902   2.516000   0.000000
    35  H    9.106783   7.289082   5.032000   2.516000   0.000000
    36  H   10.809188   9.329297   7.289082   4.829902   2.487107
    37  H   10.593029   9.655127   8.087755   5.967329   4.297297
    38  H    9.655127   9.321547   8.360235   6.813297   5.967329
    39  H    9.321547   9.655127   9.329297   8.360235   8.087755
    40  H    8.360235   9.329297   9.655127   9.321547   9.655127
    41  H    6.813297   8.360235   9.321547   9.655127  10.593029
    42  H    5.844747   7.967671   9.549775  10.503867  11.921609
    43  H    4.966435   7.385855   9.385757  10.801690  12.566666
    44  Ta   5.952261   5.394363   4.671056   3.935545   4.671056
                   36         37         38         39         40
    36  H    0.000000
    37  H    2.487107   0.000000
    38  H    4.829902   2.516000   0.000000
    39  H    7.289082   5.032000   2.516000   0.000000
    40  H    9.329297   7.289082   4.829902   2.487107   0.000000
    41  H   10.809188   9.106783   6.841087   4.829902   2.516000
    42  H   12.565878  11.167850   9.096024   7.308552   5.069567
    43  H   13.565130  12.477920  10.637321   9.125087   7.051640
    44  Ta   5.394363   4.671056   3.935545   4.671056   5.394363
                   41         42         43         44
    41  H    0.000000
    42  H    2.562712   0.000000
    43  H    4.597995   2.138235   0.000000
    44  Ta   5.952261   7.321361   8.218967   0.000000
 Stoichiometry    C29H14Ta(2)
 Framework group  C1[X(C29H14Ta)]
 Deg. of freedom   126
 Full point group                 C1      NOp   1
 Largest Abelian subgroup         C1      NOp   1
 Largest concise Abelian subgroup C1      NOp   1
                         Standard orientation:                         
 ---------------------------------------------------------------------
 Center     Atomic      Atomic             Coordinates (Angstroms)
 Number     Number       Type             X           Y           Z
 ---------------------------------------------------------------------
      1          6           0       -0.347871   -3.773991    0.257136
      2          6           0        1.101945   -3.772418   -0.169640
      3          6           0        1.829941   -2.514145    0.243732
      4          6           0        4.007753   -1.254300    0.230328
      5          6           0        6.185565    0.005546    0.216924
      6          6           0        3.279757   -2.512572   -0.183044
      7          6           0        5.457569   -1.252726   -0.196448
      8          6           0       -2.527801   -2.517838    0.272619
      9          6           0       -4.707732   -1.261686    0.288103
     10          6           0       -1.077986   -2.516265   -0.154157
     11          6           0       -3.257916   -1.260112   -0.138673
     12          6           0       -5.437847   -0.003960   -0.123190
     13          6           0       -0.349989   -1.257993    0.259215
     14          6           0       -2.529920   -0.001840    0.274699
     15          6           0       -4.709850    1.254312    0.290182
     16          6           0        1.827823    0.001853    0.245812
     17          6           0       -0.352108    1.258005    0.261295
     18          6           0       -2.532038    2.514158    0.276778
     19          6           0        4.005635    1.261698    0.232408
     20          6           0        1.825705    2.517851    0.247891
     21          6           0       -0.354226    3.774004    0.263374
     22          6           0        1.099826   -1.256419   -0.167561
     23          6           0       -3.260035    1.255886   -0.136594
     24          6           0        3.277638    0.003426   -0.180965
     25          6           0        1.097708    1.259579   -0.165481
     26          6           0       -1.082223    2.515732   -0.149998
     27          6           0        5.455450    1.263272   -0.194369
     28          6           0        3.275520    2.519424   -0.178885
     29          6           0        1.095589    3.775577   -0.163402
     30          1           0        5.970863    2.154113    0.098294
     31          1           0        3.790933    3.410266    0.113777
     32          1           0        1.611002    4.666418    0.129261
     33          1           0       -0.871139    4.664458   -0.027816
     34          1           0       -3.048951    3.404613   -0.014412
     35          1           0       -5.226763    2.144767   -0.001008
     36          1           0       -6.464298   -0.005074    0.178962
     37          1           0       -5.223144   -2.152527   -0.004560
     38          1           0       -3.043214   -3.408680   -0.020043
     39          1           0       -0.863284   -4.664832   -0.035526
     40          1           0        1.618857   -4.662872    0.121550
     41          1           0        3.796669   -3.403027    0.108146
     42          1           0        5.937474   -2.019775    0.374716
     43          1           0        7.087300   -0.252727    0.731773
     44         73           0       -1.080104   -0.000267   -0.152077
 ---------------------------------------------------------------------
 Rotational constants (GHZ):      0.2984383      0.1253076      0.0889198
 Standard basis: VSTO-6G (5D, 7F)
 There are   140 symmetry adapted cartesian basis functions of A   symmetry.
 There are   139 symmetry adapted basis functions of A   symmetry.
   139 basis functions,   840 primitive gaussians,   140 cartesian basis functions
    68 alpha electrons       67 beta electrons
       nuclear repulsion energy      1254.7632927722 Hartrees.
 Integral buffers will be    262144 words long.
 Regular integral format.
 Two-electron integral symmetry is turned off.
 Do NDO integrals.
 One-electron integrals computed using PRISM.
 NBasis=   139 RedAO= F EigKep=  0.00D+00  NBF=   139
 NBsUse=   139 1.00D-04 EigRej=  0.00D+00 NBFU=   139
 Nonelectrostatic core Hamiltonian diagonalized for initial guess.
 Initial guess <Sx>= 0.0000 <Sy>= 0.0000 <Sz>= 0.5000 <S**2>= 0.7500 S= 0.5000
 Keep J ints in memory in canonical form, NReq=2111950.
 Gradient too large for Newton-Raphson -- use scaled steepest descent instead.
     Minimum is close to point  6 DX=  1.29D-01 DF= -7.84D-03 DXR=  9.71D-02 DFR=  9.15D-03 which will be used.
 Gradient too large for Newton-Raphson -- use scaled steepest descent instead.
     Minimum is close to point  3 DX= -4.10D-03 DF= -2.95D-06 DXR=  4.58D-03 DFR=  2.08D-05 which will be used.
 Gradient too large for Newton-Raphson -- use scaled steepest descent instead.
     Minimum is close to point  2 DX=  4.06D-02 DF= -5.81D-05 DXR=  3.56D-02 DFR=  1.27D-03 which will be used.
 Gradient too large for Newton-Raphson -- use scaled steepest descent instead.
 Gradient too large for Newton-Raphson -- use scaled steepest descent instead.
 Gradient too large for Newton-Raphson -- use scaled steepest descent instead.
     Minimum is close to point  2 DX=  7.33D-02 DF= -3.17D-05 DXR=  5.76D-02 DFR=  3.33D-03 which will be used.
 Gradient too large for Newton-Raphson -- use scaled steepest descent instead.
 Gradient too large for Newton-Raphson -- use scaled steepest descent instead.
     Accept linear search using points  1 and  2.
 Gradient too large for Newton-Raphson -- use scaled steepest descent instead.
     Accept linear search using points  1 and  2.
     Minimum is close to point  2 DX= -6.91D-02 DF= -3.78D-05 DXR=  5.19D-02 DFR=  4.41D-03 which will be used.
 Gradient too large for Newton-Raphson -- use scaled steepest descent instead.
     Accept linear search using points  1 and  2.
     Minimum is close to point  2 DX= -9.95D-02 DF= -7.96D-05 DXR=  8.29D-02 DFR=  1.01D-02 which will be used.
 Gradient too large for Newton-Raphson -- use scaled steepest descent instead.
     Accept linear search using points  1 and  2.
     Minimum is close to point  2 DX= -8.16D-02 DF= -4.56D-05 DXR=  6.70D-02 DFR=  6.60D-03 which will be used.
 Gradient too large for Newton-Raphson -- use scaled steepest descent instead.
     Accept linear search using points  1 and  2.
     Minimum is close to point  2 DX= -8.55D-03 DF= -4.17D-07 DXR=  7.17D-03 DFR=  7.10D-05 which will be used.
 Gradient too large for Newton-Raphson -- use scaled steepest descent instead.
 Gradient too large for Newton-Raphson -- use scaled steepest descent instead.
     Accept linear search using points  1 and  2.
     Minimum is close to point  2 DX= -3.42D-02 DF= -4.48D-06 DXR=  2.70D-02 DFR=  1.11D-03 which will be used.
 Gradient too large for Newton-Raphson -- use scaled steepest descent instead.
     Accept linear search using points  1 and  2.
     Minimum is close to point  2 DX= -3.46D-02 DF= -3.69D-06 DXR=  2.54D-02 DFR=  1.09D-03 which will be used.
 Gradient too large for Newton-Raphson -- use scaled steepest descent instead.
     Accept linear search using points  1 and  2.
     Minimum is close to point  2 DX= -2.00D-02 DF= -1.13D-06 DXR=  1.56D-02 DFR=  3.78D-04 which will be used.
 Gradient too large for Newton-Raphson -- use scaled steepest descent instead.
     Minimum is close to point  2 DX=  1.15D-01 DF= -1.75D-05 DXR=  8.11D-02 DFR=  6.62D-03 which will be used.
 Gradient too large for Newton-Raphson -- use scaled steepest descent instead.
 Gradient too large for Newton-Raphson -- use scaled steepest descent instead.
     Accept linear search using points  1 and  2.
 Gradient too large for Newton-Raphson -- use scaled steepest descent instead.
     Accept linear search using points  1 and  2.
     Minimum is close to point  2 DX= -1.01D-01 DF= -1.81D-05 DXR=  7.22D-02 DFR=  9.07D-03 which will be used.
 Gradient too large for Newton-Raphson -- use scaled steepest descent instead.
     Accept linear search using points  1 and  2.
 Gradient too large for Newton-Raphson -- use scaled steepest descent instead.
     Minimum is close to point  2 DX=  8.83D-02 DF= -6.47D-06 DXR=  6.36D-02 DFR=  4.06D-03 which will be used.
 Gradient too large for Newton-Raphson -- use scaled steepest descent instead.
 Gradient too large for Newton-Raphson -- use scaled steepest descent instead.
     Accept linear search using points  1 and  2.
     Minimum is close to point  2 DX= -1.36D-01 DF= -1.93D-05 DXR=  1.00D-01 DFR=  1.69D-02 which will be used.
 Gradient too large for Newton-Raphson -- use scaled steepest descent instead.
     Accept linear search using points  1 and  2.
 Gradient too large for Newton-Raphson -- use scaled steepest descent instead.
     Minimum is close to point  2 DX=  2.67D-02 DF= -3.50D-07 DXR=  2.01D-02 DFR=  4.05D-04 which will be used.
 Gradient too large for Newton-Raphson -- use scaled steepest descent instead.
 Gradient too large for Newton-Raphson -- use scaled steepest descent instead.
     Accept linear search using points  1 and  2.
     Minimum is close to point  2 DX= -5.44D-02 DF= -1.76D-06 DXR=  4.04D-02 DFR=  2.73D-03 which will be used.
 Gradient too large for Newton-Raphson -- use scaled steepest descent instead.
     Accept linear search using points  1 and  2.
     Minimum is close to point  2 DX= -5.36D-02 DF= -1.49D-06 DXR=  3.98D-02 DFR=  2.64D-03 which will be used.
 Gradient too large for Newton-Raphson -- use scaled steepest descent instead.
     Accept linear search using points  1 and  2.
     Minimum is close to point  2 DX= -3.49D-03 DF= -5.72D-09 DXR=  2.70D-03 DFR=  1.14D-05 which will be used.
 Gradient too large for Newton-Raphson -- use scaled steepest descent instead.
 Gradient too large for Newton-Raphson -- use scaled steepest descent instead.
     Accept linear search using points  1 and  2.
     Minimum is close to point  2 DX= -4.15D-02 DF= -6.07D-07 DXR=  3.06D-02 DFR=  1.58D-03 which will be used.
 Gradient too large for Newton-Raphson -- use scaled steepest descent instead.
     Accept linear search using points  1 and  2.
     Minimum is close to point  2 DX= -3.77D-02 DF= -4.38D-07 DXR=  2.77D-02 DFR=  1.30D-03 which will be used.
 Gradient too large for Newton-Raphson -- use scaled steepest descent instead.
     Accept linear search using points  1 and  2.
     Minimum is close to point  2 DX= -3.43D-02 DF= -3.17D-07 DXR=  2.51D-02 DFR=  1.07D-03 which will be used.
 Gradient too large for Newton-Raphson -- use scaled steepest descent instead.
     Accept linear search using points  1 and  2.
     Minimum is close to point  2 DX= -3.17D-02 DF= -2.34D-07 DXR=  2.31D-02 DFR=  9.12D-04 which will be used.
 LinEq1:  Iter=  0 NonCon=     1 RMS=2.21D-04 Max=7.79D-03 NDo=     1
 AX will form     1 AO Fock derivatives at one time.
 LinEq1:  Iter=  1 NonCon=     1 RMS=1.59D-04 Max=5.69D-03 NDo=     1
 LinEq1:  Iter=  2 NonCon=     1 RMS=1.35D-05 Max=2.48D-04 NDo=     1
 LinEq1:  Iter=  3 NonCon=     1 RMS=3.44D-06 Max=7.46D-05 NDo=     1
 LinEq1:  Iter=  4 NonCon=     1 RMS=8.68D-07 Max=2.44D-05 NDo=     1
 LinEq1:  Iter=  5 NonCon=     1 RMS=2.60D-07 Max=4.36D-06 NDo=     1
 LinEq1:  Iter=  6 NonCon=     1 RMS=1.02D-07 Max=2.01D-06 NDo=     1
 LinEq1:  Iter=  7 NonCon=     1 RMS=3.22D-08 Max=4.99D-07 NDo=     1
 LinEq1:  Iter=  8 NonCon=     1 RMS=9.25D-09 Max=1.35D-07 NDo=     1
 LinEq1:  Iter=  9 NonCon=     0 RMS=2.56D-09 Max=3.57D-08 NDo=     1
 Linear equations converged to 9.824D-09 9.824D-08 after     9 iterations.
     Accept linear search using points  1 and  2.
 LinEq1:  Iter=  0 NonCon=     1 RMS=8.11D-05 Max=2.27D-03 NDo=     1
 LinEq1:  Iter=  1 NonCon=     1 RMS=2.84D-05 Max=8.89D-04 NDo=     1
 LinEq1:  Iter=  2 NonCon=     1 RMS=1.43D-05 Max=5.72D-04 NDo=     1
 LinEq1:  Iter=  3 NonCon=     1 RMS=4.08D-06 Max=1.26D-04 NDo=     1
 LinEq1:  Iter=  4 NonCon=     1 RMS=1.48D-06 Max=2.25D-05 NDo=     1
 LinEq1:  Iter=  5 NonCon=     1 RMS=5.35D-07 Max=2.23D-05 NDo=     1
 LinEq1:  Iter=  6 NonCon=     1 RMS=1.98D-07 Max=4.93D-06 NDo=     1
 LinEq1:  Iter=  7 NonCon=     1 RMS=5.76D-08 Max=8.86D-07 NDo=     1
 LinEq1:  Iter=  8 NonCon=     1 RMS=1.31D-08 Max=2.10D-07 NDo=     1
 LinEq1:  Iter=  9 NonCon=     0 RMS=4.35D-09 Max=9.28D-08 NDo=     1
 Linear equations converged to 9.824D-09 9.824D-08 after     9 iterations.
     Accept linear search using points  2 and  3.
 LinEq1:  Iter=  0 NonCon=     1 RMS=2.97D-05 Max=9.33D-04 NDo=     1
 LinEq1:  Iter=  1 NonCon=     1 RMS=9.42D-06 Max=2.25D-04 NDo=     1
 LinEq1:  Iter=  2 NonCon=     1 RMS=4.56D-06 Max=1.47D-04 NDo=     1
 LinEq1:  Iter=  3 NonCon=     1 RMS=1.34D-06 Max=4.93D-05 NDo=     1
 LinEq1:  Iter=  4 NonCon=     1 RMS=5.44D-07 Max=1.22D-05 NDo=     1
 LinEq1:  Iter=  5 NonCon=     1 RMS=2.24D-07 Max=5.28D-06 NDo=     1
 LinEq1:  Iter=  6 NonCon=     1 RMS=8.90D-08 Max=2.30D-06 NDo=     1
 LinEq1:  Iter=  7 NonCon=     1 RMS=2.72D-08 Max=5.04D-07 NDo=     1
 LinEq1:  Iter=  8 NonCon=     1 RMS=9.43D-09 Max=2.92D-07 NDo=     1
 LinEq1:  Iter=  9 NonCon=     0 RMS=3.55D-09 Max=7.79D-08 NDo=     1
 Linear equations converged to 9.824D-09 9.824D-08 after     9 iterations.
     Minimum is close to point  2 DX=  3.52D-02 DF= -1.94D-08 DXR=  3.40D-02 DFR=  1.16D-03 which will be used.
 LinEq1:  Iter=  0 NonCon=     1 RMS=7.61D-06 Max=2.52D-04 NDo=     1
 LinEq1:  Iter=  1 NonCon=     1 RMS=3.51D-06 Max=1.44D-04 NDo=     1
 LinEq1:  Iter=  2 NonCon=     1 RMS=1.19D-06 Max=2.42D-05 NDo=     1
 LinEq1:  Iter=  3 NonCon=     1 RMS=3.67D-07 Max=1.17D-05 NDo=     1
 LinEq1:  Iter=  4 NonCon=     1 RMS=1.48D-07 Max=4.57D-06 NDo=     1
 LinEq1:  Iter=  5 NonCon=     1 RMS=6.29D-08 Max=1.59D-06 NDo=     1
 LinEq1:  Iter=  6 NonCon=     1 RMS=2.61D-08 Max=6.16D-07 NDo=     1
 LinEq1:  Iter=  7 NonCon=     1 RMS=8.16D-09 Max=2.70D-07 NDo=     1
 LinEq1:  Iter=  8 NonCon=     1 RMS=2.72D-09 Max=5.45D-08 NDo=     1
 LinEq1:  Iter=  9 NonCon=     0 RMS=1.26D-09 Max=2.81D-08 NDo=     1
 Linear equations converged to 3.758D-09 3.758D-08 after     9 iterations.
     Accept linear search using points  1 and  2.
     Minimum is close to point  2 DX= -2.99D-02 DF= -8.75D-10 DXR=  3.08D-02 DFR=  9.37D-04 which will be used.
 LinEq1:  Iter=  0 NonCon=     1 RMS=2.64D-06 Max=5.85D-05 NDo=     1
 LinEq1:  Iter=  1 NonCon=     1 RMS=1.24D-06 Max=2.26D-05 NDo=     1
 LinEq1:  Iter=  2 NonCon=     1 RMS=4.71D-07 Max=1.68D-05 NDo=     1
 LinEq1:  Iter=  3 NonCon=     1 RMS=1.42D-07 Max=3.06D-06 NDo=     1
 LinEq1:  Iter=  4 NonCon=     1 RMS=5.35D-08 Max=1.29D-06 NDo=     1
 LinEq1:  Iter=  5 NonCon=     1 RMS=2.21D-08 Max=7.21D-07 NDo=     1
 LinEq1:  Iter=  6 NonCon=     1 RMS=9.62D-09 Max=2.22D-07 NDo=     1
 LinEq1:  Iter=  7 NonCon=     1 RMS=3.12D-09 Max=6.57D-08 NDo=     1
 LinEq1:  Iter=  8 NonCon=     1 RMS=9.94D-10 Max=3.70D-08 NDo=     1
 LinEq1:  Iter=  9 NonCon=     0 RMS=4.58D-10 Max=9.22D-09 NDo=     1
 Linear equations converged to 1.383D-09 1.383D-08 after     9 iterations.
     Accept linear search using points  1 and  2.
     Minimum is close to point  2 DX= -1.05D-02 DF= -8.22D-12 DXR=  1.06D-02 DFR=  1.13D-04 which will be used.
 LinEq1:  Iter=  0 NonCon=     1 RMS=5.61D-07 Max=1.14D-05 NDo=     1
 LinEq1:  Iter=  1 NonCon=     1 RMS=2.92D-07 Max=1.22D-05 NDo=     1
 LinEq1:  Iter=  2 NonCon=     1 RMS=8.27D-08 Max=1.72D-06 NDo=     1
 LinEq1:  Iter=  3 NonCon=     1 RMS=2.76D-08 Max=7.58D-07 NDo=     1
 LinEq1:  Iter=  4 NonCon=     1 RMS=1.14D-08 Max=3.71D-07 NDo=     1
 LinEq1:  Iter=  5 NonCon=     1 RMS=5.07D-09 Max=1.17D-07 NDo=     1
 LinEq1:  Iter=  6 NonCon=     1 RMS=1.83D-09 Max=4.15D-08 NDo=     1
 LinEq1:  Iter=  7 NonCon=     1 RMS=6.16D-10 Max=2.03D-08 NDo=     1
 LinEq1:  Iter=  8 NonCon=     1 RMS=2.11D-10 Max=4.13D-09 NDo=     1
 LinEq1:  Iter=  9 NonCon=     0 RMS=1.04D-10 Max=2.06D-09 NDo=     1
 Linear equations converged to 3.112D-10 3.112D-09 after     9 iterations.
 LinEq1:  Iter=  0 NonCon=     1 RMS=2.34D-07 Max=4.64D-06 NDo=     1
 LinEq1:  Iter=  1 NonCon=     1 RMS=1.16D-07 Max=2.20D-06 NDo=     1
 LinEq1:  Iter=  2 NonCon=     1 RMS=4.32D-08 Max=1.52D-06 NDo=     1
 LinEq1:  Iter=  3 NonCon=     1 RMS=1.35D-08 Max=2.31D-07 NDo=     1
 LinEq1:  Iter=  4 NonCon=     1 RMS=4.52D-09 Max=1.07D-07 NDo=     1
 LinEq1:  Iter=  5 NonCon=     1 RMS=1.80D-09 Max=4.94D-08 NDo=     1
 LinEq1:  Iter=  6 NonCon=     1 RMS=7.49D-10 Max=1.80D-08 NDo=     1
 LinEq1:  Iter=  7 NonCon=     1 RMS=2.62D-10 Max=7.55D-09 NDo=     1
 LinEq1:  Iter=  8 NonCon=     1 RMS=8.11D-11 Max=2.74D-09 NDo=     1
 LinEq1:  Iter=  9 NonCon=     0 RMS=4.03D-11 Max=8.16D-10 NDo=     1
 Linear equations converged to 1.326D-10 1.326D-09 after     9 iterations.
 LinEq1:  Iter=  0 NonCon=     1 RMS=2.48D-08 Max=5.02D-07 NDo=     1
 LinEq1:  Iter=  1 NonCon=     1 RMS=1.32D-08 Max=4.63D-07 NDo=     1
 LinEq1:  Iter=  2 NonCon=     1 RMS=3.69D-09 Max=9.31D-08 NDo=     1
 LinEq1:  Iter=  3 NonCon=     1 RMS=1.35D-09 Max=3.52D-08 NDo=     1
 LinEq1:  Iter=  4 NonCon=     1 RMS=5.65D-10 Max=1.71D-08 NDo=     1
 LinEq1:  Iter=  5 NonCon=     1 RMS=2.31D-10 Max=5.34D-09 NDo=     1
 LinEq1:  Iter=  6 NonCon=     1 RMS=7.24D-11 Max=1.25D-09 NDo=     1
 LinEq1:  Iter=  7 NonCon=     1 RMS=2.45D-11 Max=7.93D-10 NDo=     1
 LinEq1:  Iter=  8 NonCon=     1 RMS=8.87D-12 Max=2.06D-10 NDo=     1
 LinEq1:  Iter=  9 NonCon=     0 RMS=4.30D-12 Max=8.42D-11 NDo=     1
 Linear equations converged to 1.407D-11 1.407D-10 after     9 iterations.
 LinEq1:  Iter=  0 NonCon=     1 RMS=2.03D-08 Max=4.17D-07 NDo=     1
 LinEq1:  Iter=  1 NonCon=     1 RMS=1.07D-08 Max=3.58D-07 NDo=     1
 LinEq1:  Iter=  2 NonCon=     1 RMS=3.01D-09 Max=7.02D-08 NDo=     1
 LinEq1:  Iter=  3 NonCon=     1 RMS=1.10D-09 Max=2.83D-08 NDo=     1
 LinEq1:  Iter=  4 NonCon=     1 RMS=4.69D-10 Max=1.18D-08 NDo=     1
 LinEq1:  Iter=  5 NonCon=     1 RMS=1.76D-10 Max=3.95D-09 NDo=     1
 LinEq1:  Iter=  6 NonCon=     1 RMS=5.60D-11 Max=7.98D-10 NDo=     1
 LinEq1:  Iter=  7 NonCon=     1 RMS=1.76D-11 Max=5.48D-10 NDo=     1
 LinEq1:  Iter=  8 NonCon=     1 RMS=5.62D-12 Max=1.39D-10 NDo=     1
 LinEq1:  Iter=  9 NonCon=     0 RMS=3.01D-12 Max=5.96D-11 NDo=     1
 Linear equations converged to 1.127D-11 1.127D-10 after     9 iterations.
 SCF Done:  E(UPM6) =   1.52951069720     a.u. after   45 cycles
            Convg  =    0.6300D-06                   167 Fock formations.
              S**2 =  5.7299                  -V/T =  1.0163
 <Sx>= 0.0000 <Sy>= 0.0000 <Sz>= 0.5000 <S**2>= 5.7299 S= 1.9454
 <L.S>= 0.000000000000E+00
 Annihilation of the first spin contaminant:
 S**2 before annihilation     5.7299,   after    20.2483

 **********************************************************************

            Population analysis using the SCF density.

 **********************************************************************

 Orbital symmetries:
 Alpha Orbitals:
       Occupied  (A) (A) (A) (A) (A) (A) (A) (A) (A) (A) (A) (A)
                 (A) (A) (A) (A) (A) (A) (A) (A) (A) (A) (A) (A)
                 (A) (A) (A) (A) (A) (A) (A) (A) (A) (A) (A) (A)
                 (A) (A) (A) (A) (A) (A) (A) (A) (A) (A) (A) (A)
                 (A) (A) (A) (A) (A) (A) (A) (A) (A) (A) (A) (A)
                 (A) (A) (A) (A) (A) (A) (A) (A)
       Virtual   (A) (A) (A) (A) (A) (A) (A) (A) (A) (A) (A) (A)
                 (A) (A) (A) (A) (A) (A) (A) (A) (A) (A) (A) (A)
                 (A) (A) (A) (A) (A) (A) (A) (A) (A) (A) (A) (A)
                 (A) (A) (A) (A) (A) (A) (A) (A) (A) (A) (A) (A)
                 (A) (A) (A) (A) (A) (A) (A) (A) (A) (A) (A) (A)
                 (A) (A) (A) (A) (A) (A) (A) (A) (A) (A) (A)
 Beta  Orbitals:
       Occupied  (A) (A) (A) (A) (A) (A) (A) (A) (A) (A) (A) (A)
                 (A) (A) (A) (A) (A) (A) (A) (A) (A) (A) (A) (A)
                 (A) (A) (A) (A) (A) (A) (A) (A) (A) (A) (A) (A)
                 (A) (A) (A) (A) (A) (A) (A) (A) (A) (A) (A) (A)
                 (A) (A) (A) (A) (A) (A) (A) (A) (A) (A) (A) (A)
                 (A) (A) (A) (A) (A) (A) (A)
       Virtual   (A) (A) (A) (A) (A) (A) (A) (A) (A) (A) (A) (A)
                 (A) (A) (A) (A) (A) (A) (A) (A) (A) (A) (A) (A)
                 (A) (A) (A) (A) (A) (A) (A) (A) (A) (A) (A) (A)
                 (A) (A) (A) (A) (A) (A) (A) (A) (A) (A) (A) (A)
                 (A) (A) (A) (A) (A) (A) (A) (A) (A) (A) (A) (A)
                 (A) (A) (A) (A) (A) (A) (A) (A) (A) (A) (A) (A)
 The electronic state is 2-A.
 Alpha  occ. eigenvalues --   -1.09716  -1.07924  -1.06959  -1.05151  -1.01324
 Alpha  occ. eigenvalues --   -0.99997  -0.98401  -0.97163  -0.93051  -0.91732
 Alpha  occ. eigenvalues --   -0.91628  -0.89892  -0.88393  -0.84864  -0.83793
 Alpha  occ. eigenvalues --   -0.79231  -0.78776  -0.75815  -0.75514  -0.73907
 Alpha  occ. eigenvalues --   -0.71478  -0.70207  -0.67888  -0.66320  -0.65883
 Alpha  occ. eigenvalues --   -0.62311  -0.60236  -0.59445  -0.58887  -0.56990
 Alpha  occ. eigenvalues --   -0.56593  -0.55583  -0.54429  -0.54337  -0.53111
 Alpha  occ. eigenvalues --   -0.51712  -0.51007  -0.50887  -0.50581  -0.49458
 Alpha  occ. eigenvalues --   -0.48692  -0.47317  -0.47011  -0.46320  -0.45660
 Alpha  occ. eigenvalues --   -0.45443  -0.45060  -0.44822  -0.44599  -0.43770
 Alpha  occ. eigenvalues --   -0.42481  -0.42203  -0.41883  -0.40979  -0.40477
 Alpha  occ. eigenvalues --   -0.40046  -0.39925  -0.39750  -0.39666  -0.39186
 Alpha  occ. eigenvalues --   -0.37109  -0.36731  -0.35985  -0.34958  -0.32507
 Alpha  occ. eigenvalues --   -0.29438  -0.28402  -0.27229
 Alpha virt. eigenvalues --   -0.02758  -0.00937  -0.00316  -0.00167  -0.00150
 Alpha virt. eigenvalues --    0.01217   0.01435   0.02775   0.03111   0.04756
 Alpha virt. eigenvalues --    0.05709   0.06030   0.06328   0.07725   0.09784
 Alpha virt. eigenvalues --    0.09896   0.11621   0.11836   0.13319   0.13439
 Alpha virt. eigenvalues --    0.13650   0.13697   0.14513   0.14779   0.14817
 Alpha virt. eigenvalues --    0.14861   0.15123   0.15204   0.15298   0.15570
 Alpha virt. eigenvalues --    0.16045   0.16100   0.16311   0.16421   0.16619
 Alpha virt. eigenvalues --    0.16877   0.16970   0.16978   0.17279   0.17620
 Alpha virt. eigenvalues --    0.17745   0.17866   0.18283   0.18538   0.18588
 Alpha virt. eigenvalues --    0.19014   0.19154   0.19726   0.20010   0.20747
 Alpha virt. eigenvalues --    0.21128   0.21157   0.21675   0.21720   0.21872
 Alpha virt. eigenvalues --    0.22457   0.22714   0.22718   0.23325   0.23895
 Alpha virt. eigenvalues --    0.23909   0.24000   0.24019   0.24790   0.24856
 Alpha virt. eigenvalues --    0.25713   0.25836   0.25930   1.65190   1.66057
 Alpha virt. eigenvalues --    1.66778
  Beta  occ. eigenvalues --   -1.09694  -1.08191  -1.07164  -1.05100  -1.01320
  Beta  occ. eigenvalues --   -1.00059  -0.98395  -0.97108  -0.92971  -0.91730
  Beta  occ. eigenvalues --   -0.91622  -0.89802  -0.88509  -0.84361  -0.83904
  Beta  occ. eigenvalues --   -0.78927  -0.78671  -0.75853  -0.75765  -0.73892
  Beta  occ. eigenvalues --   -0.71531  -0.70352  -0.67938  -0.66278  -0.65886
  Beta  occ. eigenvalues --   -0.62705  -0.60191  -0.59244  -0.58459  -0.56640
  Beta  occ. eigenvalues --   -0.56487  -0.55390  -0.54350  -0.54061  -0.53065
  Beta  occ. eigenvalues --   -0.51750  -0.51114  -0.50756  -0.50439  -0.49256
  Beta  occ. eigenvalues --   -0.48365  -0.47215  -0.46707  -0.46170  -0.45425
  Beta  occ. eigenvalues --   -0.45149  -0.44886  -0.44552  -0.44412  -0.43836
  Beta  occ. eigenvalues --   -0.42267  -0.42111  -0.41550  -0.41277  -0.40422
  Beta  occ. eigenvalues --   -0.39866  -0.39413  -0.39283  -0.38987  -0.38577
  Beta  occ. eigenvalues --   -0.36487  -0.36351  -0.35295  -0.30965  -0.30311
  Beta  occ. eigenvalues --   -0.28254  -0.26219
  Beta virt. eigenvalues --   -0.02222  -0.02054  -0.00796  -0.00589   0.00165
  Beta virt. eigenvalues --    0.00589   0.01748   0.02239   0.02474   0.04073
  Beta virt. eigenvalues --    0.04773   0.05980   0.06187   0.06812   0.07828
  Beta virt. eigenvalues --    0.09369   0.10229   0.11436   0.11763   0.13276
  Beta virt. eigenvalues --    0.13373   0.13622   0.13931   0.14509   0.14592
  Beta virt. eigenvalues --    0.14711   0.14891   0.15102   0.15395   0.15442
  Beta virt. eigenvalues --    0.15509   0.15940   0.16012   0.16393   0.16433
  Beta virt. eigenvalues --    0.16585   0.16817   0.17100   0.17149   0.17177
  Beta virt. eigenvalues --    0.17703   0.17804   0.17886   0.18458   0.18493
  Beta virt. eigenvalues --    0.18652   0.18765   0.19234   0.19551   0.20121
  Beta virt. eigenvalues --    0.20905   0.20989   0.21021   0.22061   0.22163
  Beta virt. eigenvalues --    0.22303   0.22630   0.23092   0.23100   0.23442
  Beta virt. eigenvalues --    0.23459   0.23506   0.23848   0.24461   0.24547
  Beta virt. eigenvalues --    0.24749   0.24788   0.25748   0.25897   1.65259
  Beta virt. eigenvalues --    1.65487   1.67006
          Condensed to atoms (all electrons):
               1          2          3          4          5          6
     1  C    4.108989   0.000000   0.000000   0.000000   0.000000   0.000000
     2  C    0.000000   4.178020   0.000000   0.000000   0.000000   0.000000
     3  C    0.000000   0.000000   3.977491   0.000000   0.000000   0.000000
     4  C    0.000000   0.000000   0.000000   4.009579   0.000000   0.000000
     5  C    0.000000   0.000000   0.000000   0.000000   4.170870   0.000000
     6  C    0.000000   0.000000   0.000000   0.000000   0.000000   4.135660
     7  C    0.000000   0.000000   0.000000   0.000000   0.000000   0.000000
     8  C    0.000000   0.000000   0.000000   0.000000   0.000000   0.000000
     9  C    0.000000   0.000000   0.000000   0.000000   0.000000   0.000000
    10  C    0.000000   0.000000   0.000000   0.000000   0.000000   0.000000
    11  C    0.000000   0.000000   0.000000   0.000000   0.000000   0.000000
    12  C    0.000000   0.000000   0.000000   0.000000   0.000000   0.000000
    13  C    0.000000   0.000000   0.000000   0.000000   0.000000   0.000000
    14  C    0.000000   0.000000   0.000000   0.000000   0.000000   0.000000
    15  C    0.000000   0.000000   0.000000   0.000000   0.000000   0.000000
    16  C    0.000000   0.000000   0.000000   0.000000   0.000000   0.000000
    17  C    0.000000   0.000000   0.000000   0.000000   0.000000   0.000000
    18  C    0.000000   0.000000   0.000000   0.000000   0.000000   0.000000
    19  C    0.000000   0.000000   0.000000   0.000000   0.000000   0.000000
    20  C    0.000000   0.000000   0.000000   0.000000   0.000000   0.000000
    21  C    0.000000   0.000000   0.000000   0.000000   0.000000   0.000000
    22  C    0.000000   0.000000   0.000000   0.000000   0.000000   0.000000
    23  C    0.000000   0.000000   0.000000   0.000000   0.000000   0.000000
    24  C    0.000000   0.000000   0.000000   0.000000   0.000000   0.000000
    25  C    0.000000   0.000000   0.000000   0.000000   0.000000   0.000000
    26  C    0.000000   0.000000   0.000000   0.000000   0.000000   0.000000
    27  C    0.000000   0.000000   0.000000   0.000000   0.000000   0.000000
    28  C    0.000000   0.000000   0.000000   0.000000   0.000000   0.000000
    29  C    0.000000   0.000000   0.000000   0.000000   0.000000   0.000000
    30  H    0.000000   0.000000   0.000000   0.000000   0.000000   0.000000
    31  H    0.000000   0.000000   0.000000   0.000000   0.000000   0.000000
    32  H    0.000000   0.000000   0.000000   0.000000   0.000000   0.000000
    33  H    0.000000   0.000000   0.000000   0.000000   0.000000   0.000000
    34  H    0.000000   0.000000   0.000000   0.000000   0.000000   0.000000
    35  H    0.000000   0.000000   0.000000   0.000000   0.000000   0.000000
    36  H    0.000000   0.000000   0.000000   0.000000   0.000000   0.000000
    37  H    0.000000   0.000000   0.000000   0.000000   0.000000   0.000000
    38  H    0.000000   0.000000   0.000000   0.000000   0.000000   0.000000
    39  H    0.000000   0.000000   0.000000   0.000000   0.000000   0.000000
    40  H    0.000000   0.000000   0.000000   0.000000   0.000000   0.000000
    41  H    0.000000   0.000000   0.000000   0.000000   0.000000   0.000000
    42  H    0.000000   0.000000   0.000000   0.000000   0.000000   0.000000
    43  H    0.000000   0.000000   0.000000   0.000000   0.000000   0.000000
    44  Ta   0.000000   0.000000   0.000000   0.000000   0.000000   0.000000
               7          8          9         10         11         12
     1  C    0.000000   0.000000   0.000000   0.000000   0.000000   0.000000
     2  C    0.000000   0.000000   0.000000   0.000000   0.000000   0.000000
     3  C    0.000000   0.000000   0.000000   0.000000   0.000000   0.000000
     4  C    0.000000   0.000000   0.000000   0.000000   0.000000   0.000000
     5  C    0.000000   0.000000   0.000000   0.000000   0.000000   0.000000
     6  C    0.000000   0.000000   0.000000   0.000000   0.000000   0.000000
     7  C    4.134489   0.000000   0.000000   0.000000   0.000000   0.000000
     8  C    0.000000   4.211846   0.000000   0.000000   0.000000   0.000000
     9  C    0.000000   0.000000   4.112285   0.000000   0.000000   0.000000
    10  C    0.000000   0.000000   0.000000   4.212842   0.000000   0.000000
    11  C    0.000000   0.000000   0.000000   0.000000   4.203726   0.000000
    12  C    0.000000   0.000000   0.000000   0.000000   0.000000   4.175487
    13  C    0.000000   0.000000   0.000000   0.000000   0.000000   0.000000
    14  C    0.000000   0.000000   0.000000   0.000000   0.000000   0.000000
    15  C    0.000000   0.000000   0.000000   0.000000   0.000000   0.000000
    16  C    0.000000   0.000000   0.000000   0.000000   0.000000   0.000000
    17  C    0.000000   0.000000   0.000000   0.000000   0.000000   0.000000
    18  C    0.000000   0.000000   0.000000   0.000000   0.000000   0.000000
    19  C    0.000000   0.000000   0.000000   0.000000   0.000000   0.000000
    20  C    0.000000   0.000000   0.000000   0.000000   0.000000   0.000000
    21  C    0.000000   0.000000   0.000000   0.000000   0.000000   0.000000
    22  C    0.000000   0.000000   0.000000   0.000000   0.000000   0.000000
    23  C    0.000000   0.000000   0.000000   0.000000   0.000000   0.000000
    24  C    0.000000   0.000000   0.000000   0.000000   0.000000   0.000000
    25  C    0.000000   0.000000   0.000000   0.000000   0.000000   0.000000
    26  C    0.000000   0.000000   0.000000   0.000000   0.000000   0.000000
    27  C    0.000000   0.000000   0.000000   0.000000   0.000000   0.000000
    28  C    0.000000   0.000000   0.000000   0.000000   0.000000   0.000000
    29  C    0.000000   0.000000   0.000000   0.000000   0.000000   0.000000
[...]
 5,-0.00653499,0.02792358,-0.00597565,-0.00713261,-0.02847839,0.0025925
 3,0.00001546,-0.00000967,0.00000153,-0.03333661,-0.00115952,0.00096319
 ,-0.00137310,-0.00103504,0.00009940,-0.00007545,0.00002794,0.00002075,
 -0.00001761,0.00000051,0.00001027,0.00020619,0.00000648,-0.00007129,0.
 00000986,-0.00005179,-0.00001562,0.00000037,-0.00000198,-0.00000128,-0
 .00019020,0.00041813,-0.00004624,0.00001734,0.00004130,0.00000701,-0.0
 0000762,0.00000537,0.00000763,0.00002570,0.00007733,-0.00000778,-0.000
 00224,-0.00001291,0.00003479,-0.00002367,-0.00000685,0.00000639,0.0000
 5455,-0.00045866,0.00005520,0.00000364,0.00001855,-0.00000076,-0.00001
 531,0.00000400,-0.00000368,-0.00227471,0.00070405,-0.00093851,0.000017
 67,0.00001956,0.00000933,-0.00227037,-0.00099563,-0.00069587,0.0000020
 1,-0.00002111,0.00006067,0.00000051,-0.00002173,-0.00001125,0.00005245
 ,0.00002266,0.00000703,-0.00011827,-0.00006371,-0.00001199,0.00000504,
 -0.00000115,-0.00000583,-0.00001029,0.00000100,-0.00000366,0.00000965,
 -0.00002494,0.00000068,0.00000226,0.00000087,0.00000064,0.00000032,0.0
 0000191,0.00000201,-0.00000032,0.00000132,-0.00000068,-0.00000090,0.00
 000027,-0.00000115,0.00000008,-0.00000014,-0.00000075,0.00000221,0.000
 00386,-0.00000232,-0.00000100,0.00001311,-0.00000390,-0.00001518,-0.00
 001257,-0.00002769,-0.00083218,-0.00015367,-0.00012190,0.05575695,-0.0
 0066381,0.00003677,-0.00003547,0.00123997,-0.00004568,-0.00010211,0.01
 401018,-0.02505766,0.00653734,-0.01582241,-0.02559686,0.00262395,0.000
 13202,-0.00025520,0.00003646,-0.00047134,-0.21613066,0.02755439,-0.000
 40841,-0.00023452,-0.00015760,-0.00020710,0.00009873,-0.00000235,-0.00
 011459,0.00001395,0.00001681,0.00027127,-0.00005727,-0.00002697,0.0000
 6221,-0.00008308,0.00002138,0.00004942,0.00001945,-0.00000427,-0.00035
 771,-0.00003335,-0.00017192,-0.00007758,-0.00005117,0.00001757,-0.0001
 4971,0.00005647,0.00003364,-0.00035478,-0.00031754,-0.00004670,0.00004
 366,0.00026024,0.00001657,-0.00041171,0.00007748,0.00000062,0.00004947
 ,-0.00002151,-0.00002335,-0.00053973,0.00007858,-0.00011099,-0.0001412
 5,-0.00000935,0.00000645,0.00168852,0.00004354,0.00093327,0.00027229,0
 .00010367,0.00000236,-0.00130634,-0.00038165,0.00044378,0.00041298,0.0
 0040883,0.00000391,0.00037571,-0.00019023,-0.00005406,0.00013317,0.000
 03340,0.00001212,0.00024680,-0.00023491,0.00003517,0.00001999,-0.00013
 078,0.00000547,-0.00006114,-0.00002900,-0.00000252,-0.00004773,-0.0000
 3206,-0.00000579,-0.00002114,-0.00001444,-0.00000376,-0.00000869,-0.00
 004639,-0.00000092,0.00000449,-0.00004767,-0.00000106,0.00000596,-0.00
 003786,-0.00001243,0.00002117,-0.00001182,-0.00000832,0.00004204,0.000
 02334,-0.00001394,0.00004098,0.00003031,-0.00000364,0.00003115,0.00009
 358,0.00002333,0.00011506,0.00033898,0.00001737,0.00210834,0.26696559,
 0.00000297,0.00005053,-0.00011601,0.00002693,-0.00016708,-0.00124494,-
 0.00467574,0.00926738,0.00422243,-0.00027102,0.00054434,0.00595291,-0.
 00003509,-0.00004180,-0.00002606,0.00212823,0.02738876,-0.04146901,0.0
 0019034,-0.00033942,-0.00102433,0.00003217,-0.00005344,-0.00004152,0.0
 0003651,-0.00002384,-0.00002983,-0.00007286,0.00004471,0.00005752,-0.0
 0004894,0.00005730,0.00003482,0.00000534,0.00000992,0.00000257,0.00030
 092,-0.00012216,-0.00031994,0.00000888,0.00001168,0.00001597,0.0000158
 5,-0.00001339,-0.00001827,0.00052309,0.00020709,0.00012096,-0.00000879
 ,-0.00000528,-0.00011212,0.00010905,-0.00000283,-0.00002323,-0.0000251
 1,0.00001616,-0.00020689,0.00011312,-0.00002373,0.00000706,0.00003361,
 0.00002281,-0.00000750,-0.00135908,0.00010243,0.00395581,-0.00006832,-
 0.00004445,-0.00000401,-0.00074390,0.00075036,0.00359975,-0.00001687,-
 0.00024316,-0.00043536,-0.00011060,0.00002271,0.00005677,0.00004303,0.
 00002110,-0.00002550,-0.00004799,0.00000487,-0.00009500,-0.00000307,0.
 00003348,0.00003764,0.00000163,0.00000501,0.00003169,0.00000553,0.0000
 0250,0.00002338,0.00000327,0.00000223,0.00000380,0.00000253,0.00000891
 ,-0.00000316,-0.00000116,0.00000966,0.00000540,0.00000072,0.00000425,0
 .00000773,-0.00000344,0.00000187,0.00000394,-0.00000615,-0.00000473,0.
 00000667,-0.00000459,-0.00000408,0.00001295,-0.00000697,-0.00000134,0.
 00014919,-0.00015488,-0.00003755,0.00029784,0.00430553,-0.03761850,0.0
 2620103,0.00007469,-0.00003331,0.00001269,-0.00005916,-0.00001716,-0.0
 0000312,0.00007312,0.00003359,0.00000354,-0.00671389,0.02782440,-0.004
 81433,-0.00691426,-0.02872513,0.00095125,-0.00139077,0.00104778,-0.000
 17272,-0.03370314,0.00015192,0.00073722,0.00001481,-0.00002360,0.00000
 642,0.00001163,-0.00002128,-0.00000221,-0.00000857,0.00001964,-0.00000
 950,-0.00001271,0.00001867,-0.00000263,0.00000668,0.00001786,0.0000000
 7,0.00003548,-0.00010886,0.00006554,0.00001045,-0.00000418,-0.00000645
 ,-0.00001299,-0.00000884,0.00000290,0.00012425,0.00054612,-0.00003625,
 -0.00003701,-0.00000123,-0.00000713,0.00000096,-0.00001051,0.00000469,
 -0.00005182,0.00002303,-0.00001325,0.00004053,-0.00002077,0.00000173,0
 .00001821,-0.00000432,-0.00000104,-0.00004607,-0.00005082,0.00000437,0
 .00001698,-0.00000014,-0.00000687,-0.00226107,0.00086143,-0.00096928,-
 0.00012027,-0.00002526,-0.00002219,-0.00002120,0.00002195,0.00000094,-
 0.00232301,-0.00124385,-0.00095343,-0.00003477,0.00001866,0.00006473,-
 0.00001293,0.00001440,-0.00000486,0.00004780,-0.00043004,0.00007805,0.
 00000159,0.00000781,-0.00000350,0.00000280,0.00000279,-0.00000015,-0.0
 0000011,0.00000073,0.00000035,0.00000038,0.00000379,0.00000117,0.00000
 028,0.00000477,0.00000089,-0.00000222,0.00000126,0.00000074,-0.0000028
 6,-0.00000033,0.00000077,-0.00000338,0.00000055,-0.00000185,-0.0000063
 0,-0.00000394,-0.00000279,-0.00002411,0.00002010,-0.00000876,-0.000879
 71,-0.00013552,-0.00011103,0.05446816,-0.00022264,0.00011126,0.0000060
 1,0.00029283,-0.00003840,0.00001228,-0.00050296,0.00001187,-0.00006302
 ,0.01431666,-0.02426025,0.00529524,-0.01503195,-0.02744053,0.00108786,
 0.00086166,-0.00031500,0.00001918,-0.00003100,-0.21876493,0.01865353,-
 0.00023250,0.00019939,0.00000786,-0.00011248,0.00004698,0.00002626,0.0
 0034074,-0.00007831,-0.00007513,0.00004622,-0.00017567,0.00000385,0.00
 002259,-0.00000868,-0.00000243,-0.00032700,-0.00002187,-0.00002186,-0.
 00001529,0.00000685,0.00002875,-0.00010345,0.00006346,0.00002286,-0.00
 007868,-0.00008250,0.00002009,-0.00020990,0.00021270,-0.00007199,-0.00
 027020,0.00007436,0.00000415,0.00014510,0.00024178,-0.00000274,-0.0001
 3020,0.00023397,-0.00004155,-0.00021908,0.00013273,-0.00000614,0.00014
 733,-0.00019247,0.00005430,0.00017989,0.00004725,0.00001178,0.00105426
 ,-0.00037837,0.00057781,0.00018098,-0.00019033,0.00003961,0.00020869,-
 0.00019259,-0.00005239,-0.00131134,-0.00001985,0.00027714,0.00019187,-
 0.00003939,-0.00002126,0.00016739,-0.00022884,0.00001861,-0.00009837,-
 0.00025573,-0.00003703,-0.00005432,-0.00004089,-0.00000360,-0.00001672
 ,-0.00001330,-0.00000110,-0.00000593,-0.00003340,0.00000269,0.00000111
 ,-0.00003418,-0.00000075,0.00000348,-0.00003361,-0.00001144,0.00001929
 ,-0.00001070,-0.00000769,0.00003398,0.00001780,-0.00001225,0.00003481,
 0.00002385,-0.00000470,0.00002449,0.00003032,0.00000072,-0.00002261,0.
 00008372,-0.00000951,0.00011796,0.00041013,-0.00000619,0.00099149,0.27
 042686,0.00003310,-0.00001640,-0.00001934,-0.00003686,0.00000865,0.000
 01478,0.00002654,0.00004730,-0.00002458,-0.00408304,0.00752217,0.00464
 925,-0.00087196,-0.00142661,0.00611904,0.00004505,0.00014217,-0.000930
 92,0.00152517,0.01868103,-0.03956244,0.00003227,-0.00004051,-0.0000238
 4,0.00002025,-0.00001276,-0.00001493,-0.00005579,0.00001569,0.00003794
 ,-0.00001551,0.00003244,0.00001533,0.00000038,0.00000577,0.00000209,0.
 00003677,-0.00001627,-0.00002753,-0.00000170,0.00000266,-0.00001362,0.
 00001056,-0.00001094,-0.00001057,0.00004005,0.00001120,-0.00019333,0.0
 0002009,-0.00002185,-0.00001544,0.00003649,-0.00000712,-0.00001585,0.0
 0011666,0.00001718,0.00007152,-0.00000296,0.00000262,0.00000264,0.0000
 1150,-0.00000785,-0.00001102,0.00000478,-0.00000417,0.00004071,-0.0000
 2448,-0.00000341,0.00000865,-0.00106395,0.00039252,0.00332152,-0.00001
 448,0.00003194,-0.00007795,-0.00002451,0.00003567,0.00001985,-0.000921
 31,0.00052423,0.00440279,0.00008085,-0.00005353,-0.00047319,-0.0000166
 9,0.00000731,0.00003502,0.00007062,-0.00004862,-0.00032268,0.00000059,
 0.00000465,0.00003169,0.00000118,0.00000150,0.00000529,0.00000085,0.00
 000328,-0.00000030,0.00000048,0.00000383,0.00000513,0.00000043,0.00000
 435,0.00000398,-0.00000231,0.00000122,0.00000239,-0.00000385,-0.000003
 03,0.00000483,-0.00000398,-0.00000320,0.00000636,-0.00000325,-0.000003
 52,0.00000635,-0.00000280,-0.00000311,0.00002672,-0.00014006,-0.000026
 29,0.00027770,0.00503564,-0.02554344,0.02362133,0.00009804,-0.00006610
 ,-0.00000255,-0.00014565,0.00001788,-0.00000762,0.00009696,-0.00012893
 ,0.00008056,-0.00164866,-0.00166118,-0.00081165,-0.16853287,0.07809479
 ,-0.02680580,-0.00047132,0.00028414,-0.00007047,-0.04025824,0.00406657
 ,-0.00733528,0.00017004,-0.00016691,-0.00000700,0.00008838,-0.00003742
 ,-0.00001712,-0.00021797,0.00007100,0.00004202,-0.00003946,0.00016023,
 -0.00000083,-0.00001894,0.00000112,0.00000122,0.00019287,0.00001422,-0
 .00002212,0.00000021,-0.00000137,-0.00000463,0.00009799,-0.00005856,-0
 .00002164,0.00002789,-0.00002550,0.00005674,0.00014551,-0.00018350,-0.
 00000249,0.00024988,-0.00006894,-0.00000813,0.00020131,-0.00021519,-0.
 00070616,0.00012638,-0.00012924,0.00007569,0.00012185,-0.00007504,-0.0
 0000230,-0.00010092,0.00008711,-0.00002308,-0.00017958,-0.00004240,0.0
 0000661,0.00013862,-0.00011963,0.00002977,-0.00014342,0.00008424,-0.00
 002704,-0.00018111,0.00017071,0.00004792,-0.00231860,0.01180714,-0.002
 21902,-0.00004783,-0.00003358,0.00003005,-0.00007736,0.00012106,-0.000
 00317,0.00078414,-0.00019112,0.00030047,0.00007990,0.00005014,-0.00000
 564,0.00002368,0.00001488,0.00000196,0.00000810,0.00003215,-0.00000233
 ,-0.00000083,0.00003263,0.00000039,-0.00000326,0.00002979,0.00000810,-
 0.00001636,0.00000958,0.00000630,-0.00002728,-0.00001182,0.00000785,-0
 .00002765,-0.00001475,0.00000059,-0.00002292,-0.00001926,-0.00000156,-
 0.00000096,-0.00002059,0.00000145,0.00000336,-0.00003716,-0.00001258,-
 0.00035366,-0.00044280,0.00014896,0.21221428,-0.00008863,0.00004083,0.
 00000121,0.00008181,0.00000237,-0.00000101,-0.00014613,-0.00002217,-0.
 00004124,-0.00127696,-0.00087227,0.00035843,0.07809566,-0.07878147,0.0
 1549974,-0.00027681,0.00009585,-0.00007531,-0.00997363,0.00679791,-0.0
 0167927,-0.00011464,0.00011448,0.00000504,-0.00006397,0.00004295,0.000
 01512,0.00014933,-0.00004255,-0.00003132,0.00003794,-0.00011188,-0.000
 00755,0.00000112,-0.00001764,-0.00000067,-0.00015621,0.00004835,-0.000
 00944,-0.00000138,-0.00000136,0.00000267,-0.00003185,0.00003333,0.0000
 0724,-0.00002543,-0.00000163,-0.00003382,-0.00001291,0.00009574,0.0000
 2363,-0.00012097,0.00003472,0.00000363,-0.00059963,-0.00272114,0.00054
 991,-0.00011204,-0.00005149,-0.00004969,-0.00005240,0.00001705,0.00000
 164,0.00010859,-0.00004494,0.00001794,0.00007977,0.00002813,0.00000427
 ,-0.00011954,0.00000129,-0.00001690,0.00006274,-0.00000255,0.00001099,
 0.00009197,-0.00007934,-0.00002070,0.02584667,-0.03111817,0.00726327,0
 .00052716,-0.00032733,0.00009808,0.00005704,-0.00006587,0.00000720,0.0
 0021031,-0.00071824,0.00000075,0.00000678,0.00001086,0.00001157,-0.000
 00644,-0.00000424,-0.00000046,-0.00000145,-0.00001551,0.00000059,0.000
 00064,-0.00001738,-0.00000034,0.00000195,-0.00001698,-0.00000429,0.000
 00955,-0.00000539,-0.00000364,0.00001598,0.00000701,-0.00000492,0.0000
 1722,0.00000942,-0.00000021,0.00001434,0.00001549,0.00000167,0.0000007
 3,0.00002039,-0.00000151,0.00000623,0.00008736,-0.00000087,-0.00084416
 ,0.00041881,-0.00026399,-0.09137350,0.10718017,0.00002226,-0.00001519,
 -0.00000271,-0.00002869,0.00000212,-0.00000649,0.00006197,-0.00006977,
 -0.00021243,-0.00088069,0.00036862,0.00470652,-0.02673059,0.01545697,-
 0.04545806,-0.00005412,0.00002627,-0.00017624,-0.00603380,0.00049168,0
 .00458440,0.00004071,-0.00004553,-0.00001621,0.00002286,-0.00001124,-0
 .00001087,-0.00005939,0.00001956,0.00002379,-0.00001360,0.00004070,0.0
 0000962,-0.00000338,0.00000199,0.00000173,0.00004171,-0.00000142,0.000
 00736,-0.00000426,0.00000245,-0.00000953,0.00002104,-0.00001426,-0.000
 01085,0.00007367,-0.00004352,-0.00047572,0.00002179,-0.00003542,0.0000
 0736,0.00005966,-0.00001269,-0.00001627,-0.00074868,0.00060424,0.00470
 633,0.00009106,-0.00001927,-0.00021258,0.00002420,-0.00001168,-0.00000
 272,-0.00001777,0.00002896,0.00000404,-0.00004199,-0.00000844,0.000009
 70,0.00004221,-0.00002385,0.00009378,-0.00003387,0.00000082,0.00000413
 ,-0.00004644,0.00004180,0.00002373,-0.00349765,0.00507814,0.00455762,-
 0.00005166,0.00003415,-0.00017661,-0.00001619,0.00002381,-0.00000656,0
 .00028083,-0.00006708,-0.00103805,-0.00000160,0.00000695,0.00008685,0.
 00000337,0.00000269,0.00000773,0.00000099,0.00000636,0.00000404,0.0000
 0016,0.00000719,0.00000333,-0.00000011,0.00000668,0.00000389,-0.000003
 47,0.00000201,0.00000238,-0.00000584,-0.00000321,0.00000391,-0.0000061
 5,-0.00000371,0.00000335,-0.00000502,-0.00000403,0.00000406,-0.0000006
 4,-0.00000427,0.00000774,-0.00000669,-0.00000200,0.00008688,0.00019929
 ,-0.00021379,-0.00103690,0.03728792,-0.02164597,0.02987683,-0.00142624
 ,0.00104183,-0.00119462,0.00146204,0.00091107,-0.00024776,-0.00404519,
 0.00202151,-0.00027216,-0.00089579,-0.00025825,-0.00005075,0.00004904,
 -0.00001603,0.00001777,0.00179972,-0.00025856,0.00062695,0.00023070,-0
 .00057597,0.00007254,-0.01805902,0.01934904,0.00338154,-0.00569106,0.0
 0138593,-0.00264856,0.02117732,-0.01231310,-0.00000798,-0.02965935,-0.
 03774702,0.01496346,0.00383892,0.00216409,0.00018203,-0.02473455,0.002
 56503,0.00316708,-0.02649000,0.00184890,0.03607933,-0.01161521,-0.0004
 2517,-0.00044339,-0.00646554,-0.00008331,-0.00323024,-0.06810658,-0.00
 430126,-0.03444725,-0.04921954,-0.00021679,0.00289373,0.00049982,0.001
 81889,-0.00008982,-0.00176368,0.00634694,0.00193528,-0.00863058,-0.001
 30658,0.00241278,-0.00087033,0.00703413,-0.00898501,0.04427198,0.05186
 490,0.00577215,-0.00240663,0.00072881,0.00022839,-0.03822027,0.0273155
 6,-0.02172741,0.03728763,-0.06059775,-0.01805716,-0.00003690,-0.000295
 06,-0.00002284,0.00135000,-0.00205242,0.00082539,0.00266634,-0.0065218
 2,-0.00029680,-0.00000690,0.00005459,-0.00001609,-0.00006330,-0.000066
 78,-0.00017956,-0.00023176,-0.00014452,-0.00035819,0.00028176,-0.00036
 749,-0.00028558,0.00001883,-0.00169316,0.00084802,0.00100511,-0.000561
 42,-0.00013673,-0.00036179,0.00009054,0.00056243,0.00096949,-0.0000952
 7,-0.00010285,-0.00028558,0.00017864,-0.00065804,-0.00011500,0.0000416
 2,0.00045389,-0.00011356,-0.00028312,0.00013274,-0.00000124,-0.0000382
 4,-0.00009026,0.00005414,0.00004718,-0.00000409,-0.00003115,-0.0000179
 4,-0.00000340,0.18271441,0.00281982,-0.00878208,-0.00343886,-0.0072065
 4,-0.00055464,0.00021874,0.00503097,0.00302739,-0.00240258,0.00102005,
 0.00139767,0.00006700,-0.00001645,0.00003043,-0.00001044,-0.00179932,0
 .00002132,-0.00058744,-0.00014166,-0.00053629,0.00006880,0.01767848,-0
 .03823942,-0.00130339,0.00298010,-0.01106255,-0.00097680,-0.06978830,-
 0.00446819,0.02093366,0.00946979,0.05236790,0.00163363,0.00216101,0.00
 632198,-0.00012061,0.02064186,-0.06878759,0.04151788,0.00191374,-0.024
 57670,-0.02107516,-0.00200268,-0.00513491,0.00281271,-0.00009664,-0.00
 653737,0.00187964,-0.02250219,-0.02582528,-0.02354346,0.00146460,-0.00
 711904,-0.00228125,0.00054157,-0.00000298,0.00000980,0.00333343,0.0007
 6198,0.00143002,-0.00309839,-0.00157571,0.00276659,0.04877366,-0.01840
 579,0.01985948,0.00464269,-0.02165209,-0.01376298,0.00073349,-0.001573
 95,-0.00012769,-0.01441115,0.01886877,-0.00214691,-0.00307291,-0.02067
 667,-0.01036767,-0.00073002,-0.00026915,-0.00009541,-0.00051994,0.0004
 7447,-0.00025245,0.00160874,-0.00175986,0.00010904,0.00001210,0.000112
 54,-0.00000472,-0.00007385,-0.00006119,0.00000129,-0.00035165,-0.00035
 973,-0.00035794,0.00026837,-0.00030391,-0.00068760,0.00035510,-0.00115
 106,0.00124736,-0.00007477,0.00059289,0.00003807,0.00008983,-0.0002601
 9,-0.00032669,-0.00058143,0.00062897,0.00009846,-0.00187042,-0.0008541
 8,-0.00134699,-0.00059424,0.00009595,0.00058965,-0.00007591,-0.0004753
 9,0.00048942,-0.00003087,-0.00012272,0.00015571,0.00008961,0.00005161,
 0.00001609,-0.00001797,-0.00005171,0.00000216,0.00334879,0.18646588,-0
 .00125118,0.00421609,0.00277107,0.00282289,-0.00163889,0.00013204,-0.0
 0139387,-0.00198341,0.00213633,0.00091354,0.00105730,0.00001026,-0.000
 14226,0.00008223,-0.00005187,-0.00165640,0.00012892,-0.00011627,-0.000
 13674,0.00010981,-0.00014252,0.01083884,0.00599104,-0.00518427,0.00281
 279,-0.00047589,0.00313363,0.00799043,0.00640590,-0.00849919,0.0173784
 7,0.00841883,-0.00999079,-0.00104435,0.00058897,0.00023527,-0.00701121
 ,0.09355424,-0.08218406,0.06736103,-0.03919086,-0.11050455,0.00184648,
 -0.00217650,0.00312922,-0.00982180,0.00569719,-0.00226079,-0.08459175,
 -0.04064470,-0.08177466,0.00027304,-0.01237626,-0.00514504,-0.00046501
 ,-0.00132182,0.00001517,0.00102320,0.00218885,0.00212001,-0.00424985,-
 0.00099694,0.00276911,-0.00788745,0.01425359,-0.00795716,0.00123361,-0
 .01931982,-0.00990100,0.00245454,-0.00141691,0.00110630,-0.01618990,-0
 .00038359,-0.00788178,-0.00165287,-0.00997171,-0.00840008,-0.00016122,
 0.00006496,-0.00014208,-0.00093722,0.00137450,-0.00011937,0.00281711,-
 0.00161555,0.00013184,-0.00003577,-0.00000117,0.00004192,-0.00010362,-
 0.00000751,0.00003875,-0.00022051,-0.00016586,-0.00034771,0.00001499,-
 0.00018697,-0.00025345,0.00022787,0.00058003,0.00106812,-0.00004170,-0
 .00009575,-0.00009574,0.00022058,-0.00012872,-0.00067495,0.00006218,0.
 00008173,-0.00009622,-0.00038143,-0.00048063,0.00107551,0.00017125,0.0
 0007893,-0.00025665,0.00003394,0.00027477,-0.00035050,-0.00004490,0.00
 009419,0.00003825,-0.00001708,0.00003149,0.00004181,-0.00000393,0.0000
 0248,0.00003417,0.01879386,-0.01060832,0.32220235||0.00000827,0.000003
 36,0.00002744,-0.00000735,0.00001125,0.00002775,-0.00000591,0.00001520
 ,-0.00000926,0.00000019,0.00001175,0.00001859,0.00002404,0.00001410,0.
 00001934,-0.00000796,-0.00000374,-0.00002433,-0.00002566,-0.00001650,0
 .00000343,-0.00000893,-0.00000110,0.00000421,0.00000043,-0.00001241,-0
 .00000666,0.00000933,-0.00001646,-0.00003254,-0.00001160,0.00000361,0.
 00000493,-0.00000774,0.00000583,0.00000239,0.00001497,-0.00001117,-0.0
 0000051,0.00001471,-0.00000877,-0.00000277,0.00000733,0.00000645,-0.00
 001184,0.00000814,-0.00000853,-0.00000909,0.00001483,-0.00000095,0.000
 00019,-0.00000403,0.00000825,0.00001094,0.00000414,-0.00001748,0.00002
 523,-0.00001621,0.00000425,-0.00000385,0.00000458,-0.00001004,0.000009
 66,-0.00001113,-0.00002220,0.00002198,-0.00000843,0.00000770,0.0000021
 1,-0.00000185,-0.00000959,-0.00001566,0.00001244,0.00001969,0.00001764
 ,0.00002114,-0.00000549,-0.00002248,0.00000405,0.00000512,-0.00001489,
 0.00000162,0.00001597,-0.00000175,-0.00001183,0.00000070,0.00000516,-0
 .00000246,0.00000128,-0.00000314,0.00000121,0.00000229,-0.00000430,-0.
 00000369,-0.00000109,-0.00000628,0.00000143,-0.00000115,-0.00000221,0.
 00000093,0.00000444,-0.00000068,0.00000368,0.00000018,0.00000534,0.000
 00021,-0.00000017,0.00000053,0.00000099,-0.00000287,0.00000349,-0.0000
 0281,-0.00000269,0.00000112,0.00000162,-0.00000194,-0.00001084,-0.0000
 0072,0.00000202,-0.00001699,-0.00000062,-0.00000027,0.00000367,-0.0000
 0018,-0.00000418,-0.00000871,0.00000413,0.00000104,-0.00000568,-0.0000
 2531,0.00001431,-0.00000068|||@


 ALMOST ALL THE CHEMICAL PROCESSES WHICH OCCUR IN NATURE,
 WHETHER IN ANIMAL OR VEGETABLE ORGANISMS,
 OR IN THE NON-LIVING SURFACE OF THE EARTH ... 
 TAKE PLACE BETWEEN SUBSTANCES IN SOLUTION

                                    -- W. OSTWALD, 1890
 Job cpu time:       0 days  0 hours  0 minutes 12.0 seconds.
 File lengths (MBytes):  RWF=    774 Int=      0 D2E=      0 Chk=      5 Scr=      1
 Normal termination of Gaussian 09 at Sun Mar 15 21:10:25 2026.
