 Entering Link 1 = C:\Gaussian\G09W\l1.exe PID=     26940.
  
 Copyright (c) 1988,1990,1992,1993,1995,1998,2003,2009,2013,
            Gaussian, Inc.  All Rights Reserved.
  
 This is part of the Gaussian(R) 09 program.  It is based on
 the Gaussian(R) 03 system (copyright 2003, Gaussian, Inc.),
 the Gaussian(R) 98 system (copyright 1998, Gaussian, Inc.),
 the Gaussian(R) 94 system (copyright 1995, Gaussian, Inc.),
 the Gaussian 92(TM) system (copyright 1992, Gaussian, Inc.),
 the Gaussian 90(TM) system (copyright 1990, Gaussian, Inc.),
 the Gaussian 88(TM) system (copyright 1988, Gaussian, Inc.),
 the Gaussian 86(TM) system (copyright 1986, Carnegie Mellon
 University), and the Gaussian 82(TM) system (copyright 1983,
 Carnegie Mellon University). Gaussian is a federally registered
 trademark of Gaussian, Inc.
  
 This software contains proprietary and confidential information,
 including trade secrets, belonging to Gaussian, Inc.
  
 This software is provided under written license and may be
 used, copied, transmitted, or stored only in accord with that
 written license.
  
 The following legend is applicable only to US Government
 contracts under FAR:
  
                    RESTRICTED RIGHTS LEGEND
  
 Use, reproduction and disclosure by the US Government is
 subject to restrictions as set forth in subparagraphs (a)
 and (c) of the Commercial Computer Software - Restricted
 Rights clause in FAR 52.227-19.
  
 Gaussian, Inc.
 340 Quinnipiac St., Bldg. 40, Wallingford CT 06492
  
  
 ---------------------------------------------------------------
 Warning -- This program may not be used in any manner that
 competes with the business of Gaussian, Inc. or will provide
 assistance to any competitor of Gaussian, Inc.  The licensee
 of this program is prohibited from giving any competitor of
 Gaussian, Inc. access to this program.  By using this program,
 the user acknowledges that Gaussian, Inc. is engaged in the
 business of creating and licensing software in the field of
 computational chemistry and represents and warrants to the
 licensee that it is not a competitor of Gaussian, Inc. and that
 it will not use this program in any manner prohibited above.
 ---------------------------------------------------------------
  

 Cite this work as:
 Gaussian 09, Revision D.01,
 M. J. Frisch, G. W. Trucks, H. B. Schlegel, G. E. Scuseria, 
 M. A. Robb, J. R. Cheeseman, G. Scalmani, V. Barone, B. Mennucci, 
 G. A. Petersson, H. Nakatsuji, M. Caricato, X. Li, H. P. Hratchian, 
 A. F. Izmaylov, J. Bloino, G. Zheng, J. L. Sonnenberg, M. Hada, 
 M. Ehara, K. Toyota, R. Fukuda, J. Hasegawa, M. Ishida, T. Nakajima, 
 Y. Honda, O. Kitao, H. Nakai, T. Vreven, J. A. Montgomery, Jr., 
 J. E. Peralta, F. Ogliaro, M. Bearpark, J. J. Heyd, E. Brothers, 
 K. N. Kudin, V. N. Staroverov, T. Keith, R. Kobayashi, J. Normand, 
 K. Raghavachari, A. Rendell, J. C. Burant, S. S. Iyengar, J. Tomasi, 
 M. Cossi, N. Rega, J. M. Millam, M. Klene, J. E. Knox, J. B. Cross, 
 V. Bakken, C. Adamo, J. Jaramillo, R. Gomperts, R. E. Stratmann, 
 O. Yazyev, A. J. Austin, R. Cammi, C. Pomelli, J. W. Ochterski, 
 R. L. Martin, K. Morokuma, V. G. Zakrzewski, G. A. Voth, 
 P. Salvador, J. J. Dannenberg, S. Dapprich, A. D. Daniels, 
 O. Farkas, J. B. Foresman, J. V. Ortiz, J. Cioslowski, 
 and D. J. Fox, Gaussian, Inc., Wallingford CT, 2013.
 
 ******************************************
 Gaussian 09:  IA32W-G09RevD.01 24-Apr-2013
                11-Mar-2026 
 ******************************************
 %chk=C:\Users\User\Desktop\IMRG\ECE+ML\V_Gr_NS.chk
 ---------------------------------------
 # opt freq pm6 scf=qc geom=connectivity
 ---------------------------------------
 1/14=-1,18=20,19=15,26=1,38=1,57=2/1,3;
 2/9=110,12=2,17=6,18=5,40=1/2;
 3/5=2,16=1,25=1,41=3900000,71=1/1,2,3;
 4/35=1/1;
 5/5=2,8=3,35=1,38=5/8;
 6/7=2,8=2,9=2,10=2,28=1/1;
 7//1,2,3,16;
 1/14=-1,18=20,19=15,26=1/3(2);
 2/9=110/2;
 99//99;
 2/9=110/2;
 3/5=2,16=1,25=1,41=3900000,71=1,135=20/1,2,3;
 4/5=5,16=3,35=1/1;
 5/5=2,8=3,35=1,38=5/8;
 7//1,2,3,16;
 1/14=-1,18=20,19=15,26=1/3(-5);
 2/9=110/2;
 6/7=2,8=2,9=2,10=2,19=2,28=1/1;
 99/9=1/99;
 -------
 V_Gr_NS
 -------
 Symbolic Z-matrix:
 Charge =  0 Multiplicity = 2
 C                    -1.48734   1.25527   0. 
 C                    -0.11458   1.26757   0.00021 
 C                     0.63784   2.49562   0.00024 
 C                     2.76155   3.73782  -0.0001 
 C                     4.87637   4.98541  -0.00058 
 C                     2.0603    2.51615  -0.00001 
 C                     4.19236   3.77104  -0.00038 
 C                    -3.68033   2.52318  -0.00036 
 C                    -5.85442   3.76459  -0.00032 
 C                    -2.22717   2.49171  -0.00016 
 C                    -4.4314    3.73294  -0.00038 
 C                    -6.52317   4.98925  -0.00022 
 C                    -1.49723   3.66543   0.00004 
 C                    -3.77063   4.98776  -0.00006 
 C                    -5.83173   6.21539  -0.00016 
 C                     0.61876   4.98443   0.00024 
 C                    -1.48853   6.30241   0.00019 
 C                    -3.64606   7.47395  -0.00004 
 C                     2.76334   6.23383  -0.00007 
 C                     0.64426   7.4887    0.0001 
 C                    -1.48605   8.7395   -0.00011 
 C                    -0.07268   3.72258   0.00025 
 C                    -4.42338   6.2256   -0.00018 
 C                     2.03942   4.98572   0.00009 
 C                    -0.08682   6.24592   0.00026 
 C                    -2.24783   7.50962   0.00012 
 C                     4.18329   6.20584  -0.00024 
 C                     2.05117   7.46407  -0.0001 
 C                    -0.10808   8.71832  -0.00011 
 H                     4.73683   7.14171  -0.00013 
 H                     2.60821   8.39816  -0.00027 
 H                     0.45062   9.65387  -0.00038 
 H                    -2.02415   9.68484  -0.0001 
 H                    -4.21082   8.4023   -0.00019 
 H                    -6.39162   7.1481   -0.0001 
 H                    -7.61353   5.00188  -0.00006 
 H                    -6.41745   2.83421  -0.00027 
 H                    -4.20834   1.57407  -0.00036 
 H                    -2.035     0.31468   0.00008 
 H                     0.44259   0.33017   0.00001 
 H                     2.60785   1.57708  -0.00018 
 H                     4.74181   2.8329   -0.00058 
 H                     5.96597   4.99136  -0.0008 
 V                    -2.25175   4.98582   0.00002 
 

 GradGradGradGradGradGradGradGradGradGradGradGradGradGradGradGradGradGrad
 Berny optimization.
 Initialization pass.
                           ----------------------------
                           !    Initial Parameters    !
                           ! (Angstroms and Degrees)  !
 --------------------------                            --------------------------
 ! Name  Definition              Value          Derivative Info.                !
 --------------------------------------------------------------------------------
 ! R1    R(1,2)                  1.3728         estimate D2E/DX2                !
 ! R2    R(1,10)                 1.4409         estimate D2E/DX2                !
 ! R3    R(1,39)                 1.0884         estimate D2E/DX2                !
 ! R4    R(2,3)                  1.4402         estimate D2E/DX2                !
 ! R5    R(2,40)                 1.0905         estimate D2E/DX2                !
 ! R6    R(3,6)                  1.4226         estimate D2E/DX2                !
 ! R7    R(3,22)                 1.4178         estimate D2E/DX2                !
 ! R8    R(4,6)                  1.4086         estimate D2E/DX2                !
 ! R9    R(4,7)                  1.4312         estimate D2E/DX2                !
 ! R10   R(4,24)                 1.4418         estimate D2E/DX2                !
 ! R11   R(5,7)                  1.3938         estimate D2E/DX2                !
 ! R12   R(5,27)                 1.4035         estimate D2E/DX2                !
 ! R13   R(5,43)                 1.0896         estimate D2E/DX2                !
 ! R14   R(6,41)                 1.087          estimate D2E/DX2                !
 ! R15   R(7,42)                 1.0872         estimate D2E/DX2                !
 ! R16   R(8,10)                 1.4535         estimate D2E/DX2                !
 ! R17   R(8,11)                 1.4239         estimate D2E/DX2                !
 ! R18   R(8,38)                 1.0861         estimate D2E/DX2                !
 ! R19   R(9,11)                 1.4234         estimate D2E/DX2                !
 ! R20   R(9,12)                 1.3954         estimate D2E/DX2                !
 ! R21   R(9,37)                 1.0875         estimate D2E/DX2                !
 ! R22   R(10,13)                1.3822         estimate D2E/DX2                !
 ! R23   R(11,14)                1.4182         estimate D2E/DX2                !
 ! R24   R(12,15)                1.4077         estimate D2E/DX2                !
 ! R25   R(12,36)                1.0904         estimate D2E/DX2                !
 ! R26   R(13,22)                1.4257         estimate D2E/DX2                !
 ! R27   R(13,44)                1.5208         estimate D2E/DX2                !
 ! R28   R(14,23)                1.3994         estimate D2E/DX2                !
 ! R29   R(14,44)                1.5189         estimate D2E/DX2                !
 ! R30   R(15,23)                1.4084         estimate D2E/DX2                !
 ! R31   R(15,35)                1.0879         estimate D2E/DX2                !
 ! R32   R(16,22)                1.4389         estimate D2E/DX2                !
 ! R33   R(16,24)                1.4207         estimate D2E/DX2                !
 ! R34   R(16,25)                1.4454         estimate D2E/DX2                !
 ! R35   R(17,25)                1.4028         estimate D2E/DX2                !
 ! R36   R(17,26)                1.4261         estimate D2E/DX2                !
 ! R37   R(17,44)                1.5218         estimate D2E/DX2                !
 ! R38   R(18,23)                1.4706         estimate D2E/DX2                !
 ! R39   R(18,26)                1.3987         estimate D2E/DX2                !
 ! R40   R(18,34)                1.0866         estimate D2E/DX2                !
 ! R41   R(19,24)                1.4429         estimate D2E/DX2                !
 ! R42   R(19,27)                1.4202         estimate D2E/DX2                !
 ! R43   R(19,28)                1.4215         estimate D2E/DX2                !
 ! R44   R(20,25)                1.4419         estimate D2E/DX2                !
 ! R45   R(20,28)                1.4071         estimate D2E/DX2                !
 ! R46   R(20,29)                1.4415         estimate D2E/DX2                !
 ! R47   R(21,26)                1.4467         estimate D2E/DX2                !
 ! R48   R(21,29)                1.3781         estimate D2E/DX2                !
 ! R49   R(21,33)                1.0878         estimate D2E/DX2                !
 ! R50   R(27,30)                1.0873         estimate D2E/DX2                !
 ! R51   R(28,31)                1.0876         estimate D2E/DX2                !
 ! R52   R(29,32)                1.0897         estimate D2E/DX2                !
 ! A1    A(2,1,10)             120.3811         estimate D2E/DX2                !
 ! A2    A(2,1,39)             120.7234         estimate D2E/DX2                !
 ! A3    A(10,1,39)            118.8954         estimate D2E/DX2                !
 ! A4    A(1,2,3)              122.0091         estimate D2E/DX2                !
 ! A5    A(1,2,40)             120.2126         estimate D2E/DX2                !
 ! A6    A(3,2,40)             117.7783         estimate D2E/DX2                !
 ! A7    A(2,3,6)              122.323          estimate D2E/DX2                !
 ! A8    A(2,3,22)             118.4295         estimate D2E/DX2                !
 ! A9    A(6,3,22)             119.2474         estimate D2E/DX2                !
 ! A10   A(6,4,7)              121.1867         estimate D2E/DX2                !
 ! A11   A(6,4,24)             120.0864         estimate D2E/DX2                !
 ! A12   A(7,4,24)             118.7269         estimate D2E/DX2                !
 ! A13   A(7,5,27)             121.017          estimate D2E/DX2                !
 ! A14   A(7,5,43)             119.7036         estimate D2E/DX2                !
 ! A15   A(27,5,43)            119.2794         estimate D2E/DX2                !
 ! A16   A(3,6,4)              120.6839         estimate D2E/DX2                !
 ! A17   A(3,6,41)             119.4183         estimate D2E/DX2                !
 ! A18   A(4,6,41)             119.8978         estimate D2E/DX2                !
 ! A19   A(4,7,5)              120.7208         estimate D2E/DX2                !
 ! A20   A(4,7,42)             119.0266         estimate D2E/DX2                !
 ! A21   A(5,7,42)             120.2526         estimate D2E/DX2                !
 ! A22   A(10,8,11)            123.0746         estimate D2E/DX2                !
 ! A23   A(10,8,38)            117.8469         estimate D2E/DX2                !
 ! A24   A(11,8,38)            119.0785         estimate D2E/DX2                !
 ! A25   A(11,9,12)            119.9113         estimate D2E/DX2                !
 ! A26   A(11,9,37)            119.9067         estimate D2E/DX2                !
 ! A27   A(12,9,37)            120.182          estimate D2E/DX2                !
 ! A28   A(1,10,8)             122.1353         estimate D2E/DX2                !
 ! A29   A(1,10,13)            117.2279         estimate D2E/DX2                !
 ! A30   A(8,10,13)            120.6368         estimate D2E/DX2                !
 ! A31   A(8,11,9)             123.1078         estimate D2E/DX2                !
 ! A32   A(8,11,14)            120.3955         estimate D2E/DX2                !
 ! A33   A(9,11,14)            116.4967         estimate D2E/DX2                !
 ! A34   A(9,12,15)            121.9432         estimate D2E/DX2                !
 ! A35   A(9,12,36)            119.3009         estimate D2E/DX2                !
 ! A36   A(15,12,36)           118.7559         estimate D2E/DX2                !
 ! A37   A(10,13,22)           124.1752         estimate D2E/DX2                !
 ! A38   A(10,13,44)           118.3771         estimate D2E/DX2                !
 ! A39   A(22,13,44)           117.4477         estimate D2E/DX2                !
 ! A40   A(11,14,23)           124.4256         estimate D2E/DX2                !
 ! A41   A(11,14,44)           117.6975         estimate D2E/DX2                !
 ! A42   A(23,14,44)           117.8769         estimate D2E/DX2                !
 ! A43   A(12,15,23)           119.8349         estimate D2E/DX2                !
 ! A44   A(12,15,35)           119.6049         estimate D2E/DX2                !
 ! A45   A(23,15,35)           120.5602         estimate D2E/DX2                !
 ! A46   A(22,16,24)           118.7733         estimate D2E/DX2                !
 ! A47   A(22,16,25)           122.0594         estimate D2E/DX2                !
 ! A48   A(24,16,25)           119.1674         estimate D2E/DX2                !
 ! A49   A(25,17,26)           124.4765         estimate D2E/DX2                !
 ! A50   A(25,17,44)           117.7927         estimate D2E/DX2                !
 ! A51   A(26,17,44)           117.7308         estimate D2E/DX2                !
 ! A52   A(23,18,26)           123.3713         estimate D2E/DX2                !
 ! A53   A(23,18,34)           116.7761         estimate D2E/DX2                !
 ! A54   A(26,18,34)           119.8525         estimate D2E/DX2                !
 ! A55   A(24,19,27)           118.9848         estimate D2E/DX2                !
 ! A56   A(24,19,28)           119.8195         estimate D2E/DX2                !
 ! A57   A(27,19,28)           121.1957         estimate D2E/DX2                !
 ! A58   A(25,20,28)           119.4641         estimate D2E/DX2                !
 ! A59   A(25,20,29)           118.073          estimate D2E/DX2                !
 ! A60   A(28,20,29)           122.4629         estimate D2E/DX2                !
 ! A61   A(26,21,29)           120.8936         estimate D2E/DX2                !
 ! A62   A(26,21,33)           118.5771         estimate D2E/DX2                !
 ! A63   A(29,21,33)           120.5293         estimate D2E/DX2                !
 ! A64   A(3,22,13)            117.777          estimate D2E/DX2                !
 ! A65   A(3,22,16)            121.2041         estimate D2E/DX2                !
 ! A66   A(13,22,16)           121.0189         estimate D2E/DX2                !
 ! A67   A(14,23,15)           117.3883         estimate D2E/DX2                !
 ! A68   A(14,23,18)           120.2865         estimate D2E/DX2                !
 ! A69   A(15,23,18)           122.3252         estimate D2E/DX2                !
 ! A70   A(4,24,16)            120.005          estimate D2E/DX2                !
 ! A71   A(4,24,19)            119.8289         estimate D2E/DX2                !
 ! A72   A(16,24,19)           120.1662         estimate D2E/DX2                !
 ! A73   A(16,25,17)           121.5273         estimate D2E/DX2                !
 ! A74   A(16,25,20)           120.3138         estimate D2E/DX2                !
 ! A75   A(17,25,20)           118.159          estimate D2E/DX2                !
 ! A76   A(17,26,18)           120.707          estimate D2E/DX2                !
 ! A77   A(17,26,21)           116.0575         estimate D2E/DX2                !
 ! A78   A(18,26,21)           123.2355         estimate D2E/DX2                !
 ! A79   A(5,27,19)            120.7216         estimate D2E/DX2                !
 ! A80   A(5,27,30)            119.8045         estimate D2E/DX2                !
 ! A81   A(19,27,30)           119.4739         estimate D2E/DX2                !
 ! A82   A(19,28,20)           121.0692         estimate D2E/DX2                !
 ! A83   A(19,28,31)           119.1239         estimate D2E/DX2                !
 ! A84   A(20,28,31)           119.8069         estimate D2E/DX2                !
 ! A85   A(20,29,21)           122.3405         estimate D2E/DX2                !
 ! A86   A(20,29,32)           117.6945         estimate D2E/DX2                !
 ! A87   A(21,29,32)           119.965          estimate D2E/DX2                !
 ! A88   A(13,44,14)           119.8184         estimate D2E/DX2                !
 ! A89   A(13,44,17)           120.1541         estimate D2E/DX2                !
 ! A90   A(14,44,17)           120.0275         estimate D2E/DX2                !
 ! D1    D(10,1,2,3)            -0.0025         estimate D2E/DX2                !
 ! D2    D(10,1,2,40)         -179.9806         estimate D2E/DX2                !
 ! D3    D(39,1,2,3)          -179.9941         estimate D2E/DX2                !
 ! D4    D(39,1,2,40)            0.0278         estimate D2E/DX2                !
 ! D5    D(2,1,10,8)          -179.9988         estimate D2E/DX2                !
 ! D6    D(2,1,10,13)           -0.0059         estimate D2E/DX2                !
 ! D7    D(39,1,10,8)           -0.0071         estimate D2E/DX2                !
 ! D8    D(39,1,10,13)         179.9859         estimate D2E/DX2                !
 ! D9    D(1,2,3,6)           -179.9775         estimate D2E/DX2                !
 ! D10   D(1,2,3,22)             0.0102         estimate D2E/DX2                !
 ! D11   D(40,2,3,6)             0.0012         estimate D2E/DX2                !
 ! D12   D(40,2,3,22)          179.9889         estimate D2E/DX2                !
 ! D13   D(2,3,6,4)            179.9947         estimate D2E/DX2                !
 ! D14   D(2,3,6,41)            -0.0032         estimate D2E/DX2                !
 ! D15   D(22,3,6,4)             0.0071         estimate D2E/DX2                !
 ! D16   D(22,3,6,41)         -179.9908         estimate D2E/DX2                !
 ! D17   D(2,3,22,13)           -0.0093         estimate D2E/DX2                !
 ! D18   D(2,3,22,16)         -179.9984         estimate D2E/DX2                !
 ! D19   D(6,3,22,13)          179.9788         estimate D2E/DX2                !
 ! D20   D(6,3,22,16)           -0.0104         estimate D2E/DX2                !
 ! D21   D(7,4,6,3)           -179.9983         estimate D2E/DX2                !
 ! D22   D(7,4,6,41)            -0.0004         estimate D2E/DX2                !
 ! D23   D(24,4,6,3)             0.0005         estimate D2E/DX2                !
 ! D24   D(24,4,6,41)          179.9984         estimate D2E/DX2                !
 ! D25   D(6,4,7,5)            179.9946         estimate D2E/DX2                !
 ! D26   D(6,4,7,42)             0.0023         estimate D2E/DX2                !
 ! D27   D(24,4,7,5)            -0.0043         estimate D2E/DX2                !
 ! D28   D(24,4,7,42)         -179.9966         estimate D2E/DX2                !
 ! D29   D(6,4,24,16)           -0.0051         estimate D2E/DX2                !
 ! D30   D(6,4,24,19)         -179.9968         estimate D2E/DX2                !
 ! D31   D(7,4,24,16)          179.9938         estimate D2E/DX2                !
 ! D32   D(7,4,24,19)            0.0021         estimate D2E/DX2                !
 ! D33   D(27,5,7,4)             0.0119         estimate D2E/DX2                !
 ! D34   D(27,5,7,42)         -179.9959         estimate D2E/DX2                !
 ! D35   D(43,5,7,4)          -179.9999         estimate D2E/DX2                !
 ! D36   D(43,5,7,42)           -0.0077         estimate D2E/DX2                !
 ! D37   D(7,5,27,19)           -0.0173         estimate D2E/DX2                !
 ! D38   D(7,5,27,30)          179.9838         estimate D2E/DX2                !
 ! D39   D(43,5,27,19)         179.9944         estimate D2E/DX2                !
 ! D40   D(43,5,27,30)          -0.0044         estimate D2E/DX2                !
 ! D41   D(11,8,10,1)          179.9932         estimate D2E/DX2                !
 ! D42   D(11,8,10,13)           0.0005         estimate D2E/DX2                !
 ! D43   D(38,8,10,1)            0.002          estimate D2E/DX2                !
 ! D44   D(38,8,10,13)        -179.9907         estimate D2E/DX2                !
 ! D45   D(10,8,11,9)         -179.9875         estimate D2E/DX2                !
 ! D46   D(10,8,11,14)          -0.0059         estimate D2E/DX2                !
 ! D47   D(38,8,11,9)            0.0036         estimate D2E/DX2                !
 ! D48   D(38,8,11,14)         179.9852         estimate D2E/DX2                !
 ! D49   D(12,9,11,8)          179.9943         estimate D2E/DX2                !
 ! D50   D(12,9,11,14)           0.012          estimate D2E/DX2                !
 ! D51   D(37,9,11,8)           -0.0011         estimate D2E/DX2                !
 ! D52   D(37,9,11,14)        -179.9834         estimate D2E/DX2                !
 ! D53   D(11,9,12,15)          -0.0008         estimate D2E/DX2                !
 ! D54   D(11,9,12,36)        -179.9935         estimate D2E/DX2                !
 ! D55   D(37,9,12,15)         179.9946         estimate D2E/DX2                !
 ! D56   D(37,9,12,36)           0.0019         estimate D2E/DX2                !
 ! D57   D(1,10,13,22)           0.0067         estimate D2E/DX2                !
 ! D58   D(1,10,13,44)        -179.9942         estimate D2E/DX2                !
 ! D59   D(8,10,13,22)         179.9997         estimate D2E/DX2                !
 ! D60   D(8,10,13,44)          -0.0012         estimate D2E/DX2                !
 ! D61   D(8,11,14,23)         179.9937         estimate D2E/DX2                !
 ! D62   D(8,11,14,44)           0.0113         estimate D2E/DX2                !
 ! D63   D(9,11,14,23)          -0.0235         estimate D2E/DX2                !
 ! D64   D(9,11,14,44)         179.9941         estimate D2E/DX2                !
 ! D65   D(9,12,15,23)          -0.0008         estimate D2E/DX2                !
 ! D66   D(9,12,15,35)         179.9989         estimate D2E/DX2                !
 ! D67   D(36,12,15,23)        179.9919         estimate D2E/DX2                !
 ! D68   D(36,12,15,35)         -0.0083         estimate D2E/DX2                !
 ! D69   D(10,13,22,3)           0.001          estimate D2E/DX2                !
 ! D70   D(10,13,22,16)        179.9902         estimate D2E/DX2                !
 ! D71   D(44,13,22,3)        -179.9981         estimate D2E/DX2                !
 ! D72   D(44,13,22,16)         -0.0089         estimate D2E/DX2                !
 ! D73   D(10,13,44,14)          0.0069         estimate D2E/DX2                !
 ! D74   D(10,13,44,17)       -179.9981         estimate D2E/DX2                !
 ! D75   D(22,13,44,14)       -179.9939         estimate D2E/DX2                !
 ! D76   D(22,13,44,17)          0.001          estimate D2E/DX2                !
 ! D77   D(11,14,23,15)          0.0221         estimate D2E/DX2                !
 ! D78   D(11,14,23,18)       -179.9904         estimate D2E/DX2                !
 ! D79   D(44,14,23,15)       -179.9955         estimate D2E/DX2                !
 ! D80   D(44,14,23,18)         -0.008          estimate D2E/DX2                !
 ! D81   D(11,14,44,13)         -0.012          estimate D2E/DX2                !
 ! D82   D(11,14,44,17)        179.993          estimate D2E/DX2                !
 ! D83   D(23,14,44,13)       -179.9956         estimate D2E/DX2                !
 ! D84   D(23,14,44,17)          0.0095         estimate D2E/DX2                !
 ! D85   D(12,15,23,14)         -0.0092         estimate D2E/DX2                !
 ! D86   D(12,15,23,18)       -179.9964         estimate D2E/DX2                !
 ! D87   D(35,15,23,14)        179.991          estimate D2E/DX2                !
 ! D88   D(35,15,23,18)          0.0039         estimate D2E/DX2                !
 ! D89   D(24,16,22,3)           0.0059         estimate D2E/DX2                !
 ! D90   D(24,16,22,13)       -179.9829         estimate D2E/DX2                !
 ! D91   D(25,16,22,3)        -179.9999         estimate D2E/DX2                !
 ! D92   D(25,16,22,13)          0.0113         estimate D2E/DX2                !
 ! D93   D(22,16,24,4)           0.0019         estimate D2E/DX2                !
 ! D94   D(22,16,24,19)        179.9936         estimate D2E/DX2                !
 ! D95   D(25,16,24,4)        -179.9925         estimate D2E/DX2                !
 ! D96   D(25,16,24,19)         -0.0008         estimate D2E/DX2                !
 ! D97   D(22,16,25,17)         -0.005          estimate D2E/DX2                !
 ! D98   D(22,16,25,20)       -179.9929         estimate D2E/DX2                !
 ! D99   D(24,16,25,17)        179.9893         estimate D2E/DX2                !
 ! D100  D(24,16,25,20)          0.0013         estimate D2E/DX2                !
 ! D101  D(26,17,25,16)       -179.9962         estimate D2E/DX2                !
 ! D102  D(26,17,25,20)         -0.008          estimate D2E/DX2                !
 ! D103  D(44,17,25,16)         -0.003          estimate D2E/DX2                !
 ! D104  D(44,17,25,20)        179.9852         estimate D2E/DX2                !
 ! D105  D(25,17,26,18)        179.9954         estimate D2E/DX2                !
 ! D106  D(25,17,26,21)          0.0108         estimate D2E/DX2                !
 ! D107  D(44,17,26,18)          0.0021         estimate D2E/DX2                !
 ! D108  D(44,17,26,21)       -179.9825         estimate D2E/DX2                !
 ! D109  D(25,17,44,13)          0.0049         estimate D2E/DX2                !
 ! D110  D(25,17,44,14)        179.9998         estimate D2E/DX2                !
 ! D111  D(26,17,44,13)        179.9986         estimate D2E/DX2                !
 ! D112  D(26,17,44,14)         -0.0065         estimate D2E/DX2                !
 ! D113  D(26,18,23,14)          0.0039         estimate D2E/DX2                !
 ! D114  D(26,18,23,15)        179.9907         estimate D2E/DX2                !
 ! D115  D(34,18,23,14)        179.9976         estimate D2E/DX2                !
 ! D116  D(34,18,23,15)         -0.0156         estimate D2E/DX2                !
 ! D117  D(23,18,26,17)         -0.0007         estimate D2E/DX2                !
 ! D118  D(23,18,26,21)        179.9827         estimate D2E/DX2                !
 ! D119  D(34,18,26,17)       -179.9942         estimate D2E/DX2                !
 ! D120  D(34,18,26,21)         -0.0107         estimate D2E/DX2                !
 ! D121  D(27,19,24,4)          -0.0072         estimate D2E/DX2                !
 ! D122  D(27,19,24,16)       -179.999          estimate D2E/DX2                !
 ! D123  D(28,19,24,4)         179.9902         estimate D2E/DX2                !
 ! D124  D(28,19,24,16)         -0.0015         estimate D2E/DX2                !
 ! D125  D(24,19,27,5)           0.0148         estimate D2E/DX2                !
 ! D126  D(24,19,27,30)       -179.9864         estimate D2E/DX2                !
 ! D127  D(28,19,27,5)        -179.9826         estimate D2E/DX2                !
 ! D128  D(28,19,27,30)          0.0163         estimate D2E/DX2                !
 ! D129  D(24,19,28,20)          0.0035         estimate D2E/DX2                !
 ! D130  D(24,19,28,31)       -179.9967         estimate D2E/DX2                !
 ! D131  D(27,19,28,20)       -179.9991         estimate D2E/DX2                !
 ! D132  D(27,19,28,31)          0.0007         estimate D2E/DX2                !
 ! D133  D(28,20,25,16)          0.0006         estimate D2E/DX2                !
 ! D134  D(28,20,25,17)       -179.9877         estimate D2E/DX2                !
 ! D135  D(29,20,25,16)        179.9894         estimate D2E/DX2                !
 ! D136  D(29,20,25,17)          0.0011         estimate D2E/DX2                !
 ! D137  D(25,20,28,19)         -0.003          estimate D2E/DX2                !
 ! D138  D(25,20,28,31)        179.9972         estimate D2E/DX2                !
 ! D139  D(29,20,28,19)       -179.9913         estimate D2E/DX2                !
 ! D140  D(29,20,28,31)          0.0089         estimate D2E/DX2                !
 ! D141  D(25,20,29,21)          0.0025         estimate D2E/DX2                !
 ! D142  D(25,20,29,32)       -179.9913         estimate D2E/DX2                !
 ! D143  D(28,20,29,21)        179.991          estimate D2E/DX2                !
 ! D144  D(28,20,29,32)         -0.0029         estimate D2E/DX2                !
 ! D145  D(29,21,26,17)         -0.0068         estimate D2E/DX2                !
 ! D146  D(29,21,26,18)       -179.9909         estimate D2E/DX2                !
 ! D147  D(33,21,26,17)       -179.9966         estimate D2E/DX2                !
 ! D148  D(33,21,26,18)          0.0193         estimate D2E/DX2                !
 ! D149  D(26,21,29,20)          0.0005         estimate D2E/DX2                !
 ! D150  D(26,21,29,32)        179.9942         estimate D2E/DX2                !
 ! D151  D(33,21,29,20)        179.9901         estimate D2E/DX2                !
 ! D152  D(33,21,29,32)         -0.0162         estimate D2E/DX2                !
 --------------------------------------------------------------------------------
 Trust Radius=3.00D-01 FncErr=1.00D-07 GrdErr=1.00D-07
 Number of steps in this run=    264 maximum allowed number of steps=    264.
 GradGradGradGradGradGradGradGradGradGradGradGradGradGradGradGradGradGrad

                          Input orientation:                          
 ---------------------------------------------------------------------
 Center     Atomic      Atomic             Coordinates (Angstroms)
 Number     Number       Type             X           Y           Z
 ---------------------------------------------------------------------
      1          6           0       -1.487342    1.255274    0.000000
      2          6           0       -0.114579    1.267573    0.000214
      3          6           0        0.637842    2.495615    0.000237
      4          6           0        2.761554    3.737816   -0.000096
      5          6           0        4.876369    4.985412   -0.000577
      6          6           0        2.060297    2.516154   -0.000014
      7          6           0        4.192364    3.771038   -0.000385
      8          6           0       -3.680332    2.523182   -0.000361
      9          6           0       -5.854424    3.764586   -0.000316
     10          6           0       -2.227169    2.491707   -0.000158
     11          6           0       -4.431403    3.732940   -0.000377
     12          6           0       -6.523170    4.989254   -0.000217
     13          6           0       -1.497229    3.665426    0.000042
     14          6           0       -3.770635    4.987756   -0.000065
     15          6           0       -5.831731    6.215386   -0.000158
     16          6           0        0.618765    4.984426    0.000243
     17          6           0       -1.488529    6.302410    0.000188
     18          6           0       -3.646057    7.473946   -0.000044
     19          6           0        2.763344    6.233835   -0.000066
     20          6           0        0.644264    7.488696    0.000097
     21          6           0       -1.486048    8.739497   -0.000106
     22          6           0       -0.072682    3.722583    0.000254
     23          6           0       -4.423380    6.225598   -0.000181
     24          6           0        2.039423    4.985716    0.000088
     25          6           0       -0.086819    6.245918    0.000262
     26          6           0       -2.247828    7.509622    0.000125
     27          6           0        4.183286    6.205843   -0.000242
     28          6           0        2.051167    7.464069   -0.000096
     29          6           0       -0.108077    8.718323   -0.000112
     30          1           0        4.736826    7.141709   -0.000134
     31          1           0        2.608212    8.398162   -0.000269
     32          1           0        0.450622    9.653867   -0.000382
     33          1           0       -2.024149    9.684844   -0.000104
     34          1           0       -4.210816    8.402296   -0.000186
     35          1           0       -6.391623    7.148101   -0.000098
     36          1           0       -7.613530    5.001882   -0.000063
     37          1           0       -6.417453    2.834207   -0.000272
     38          1           0       -4.208336    1.574068   -0.000359
     39          1           0       -2.035005    0.314677    0.000084
     40          1           0        0.442586    0.330166    0.000014
     41          1           0        2.607852    1.577080   -0.000179
     42          1           0        4.741811    2.832903   -0.000582
     43          1           0        5.965971    4.991361   -0.000799
     44         23           0       -2.251750    4.985817    0.000017
 ---------------------------------------------------------------------
                    Distance matrix (angstroms):
                    1          2          3          4          5
     1  C    0.000000
     2  C    1.372818   0.000000
     3  C    2.460661   1.440217   0.000000
     4  C    4.920988   3.791337   2.460328   0.000000
     5  C    7.376364   6.223494   4.915709   2.455390   0.000000
     6  C    3.765044   2.507795   1.422603   1.408623   3.745330
     7  C    6.211934   4.981675   3.776417   1.431196   1.393760
     8  C    2.533140   3.780364   4.318263   6.555397   8.903916
     9  C    5.036670   6.259464   6.615119   8.616019  10.800015
    10  C    1.440871   2.441627   2.865014   5.141998   7.528533
    11  C    3.847899   4.971218   5.218067   7.192959   9.391662
    12  C    6.269144   7.410867   7.582765   9.368681  11.399540
    13  C    2.410172   2.767927   2.434540   4.259398   6.508849
    14  C    4.375483   5.215986   5.064132   6.650702   8.647004
    15  C    6.593666   7.560866   7.462713   8.943316  10.778509
    16  C    4.282786   3.788507   2.488884   2.479028   4.257604
    17  C    5.047136   5.218939   4.360406   4.963904   6.499724
    18  C    6.582699   7.140757   6.567768   7.417287   8.878319
    19  C    6.546327   5.739878   4.300238   2.496019   2.454269
    20  C    6.587813   6.267233   4.993085   4.307204   4.917026
    21  C    7.484223   7.596748   6.595223   6.561930   7.387389
    22  C    2.844095   2.455367   1.417849   2.834277   5.107626
    23  C    5.772732   6.568697   6.287188   7.603442   9.382078
    24  C    5.133641   4.297012   2.857452   1.441779   2.836946
    25  C    5.183434   4.978422   3.819674   3.795234   5.120753
    26  C    6.300413   6.596509   5.785098   6.270600   7.558163
    27  C    7.527559   6.546613   5.131857   2.848241   1.403502
    28  C    7.146340   6.564070   5.165562   3.793364   3.758392
    29  C    7.589432   7.450753   6.267256   5.748063   6.227305
    30  H    8.566818   7.618504   6.195794   3.935503   2.160808
    31  H    8.233736   7.632751   6.222734   4.662868   4.097731
    32  H    8.619284   8.405318   7.160700   6.351382   6.432862
    33  H    8.446645   8.631159   7.666238   7.633485   8.348761
    34  H    7.648348   8.226994   7.641883   8.388761   9.708349
    35  H    7.666641   8.601273   8.429650   9.767839  11.473660
    36  H    7.181034   8.377311   8.623602  10.451805  12.489910
    37  H    5.176778   6.494657   7.063415   9.223376  11.496873
    38  H    2.739605   4.105214   4.933020   7.298025   9.704078
    39  H    1.088420   2.143839   3.449725   5.892780   8.341634
    40  H    2.140197   1.090488   2.174234   4.121855   6.428821
    41  H    4.107818   2.739967   2.173625   2.166196   4.094252
    42  H    6.425828   5.102429   4.117806   2.177221   2.156710
    43  H    8.337279   7.130195   5.883681   3.440881   1.089618
    44  V    3.808053   4.288687   3.814558   5.166306   7.128119
                    6          7          8          9         10
     6  C    0.000000
     7  C    2.473953   0.000000
     8  C    5.740633   7.970978   0.000000
     9  C    8.012576  10.046789   2.503549   0.000000
    10  C    4.287535   6.545768   1.453504   3.844112   0.000000
    11  C    6.604751   8.623851   1.423946   1.423372   2.529685
    12  C    8.932643  10.784559   3.763407   1.395361   4.969242
    13  C    3.738558   5.690573   2.463871   4.358323   1.382183
    14  C    6.333133   8.055417   2.466228   2.416262   2.934714
    15  C    8.715987  10.317816   4.273276   2.450906   5.182534
    16  C    2.858387   3.773979   4.953783   6.587123   3.783251
    17  C    5.189402   6.219356   4.368817   5.049910   3.881629
    18  C    7.559244   8.669047   4.950883   4.316971   5.180343
    19  C    3.783573   2.847361   7.435719   8.964548   6.237687
    20  C    5.170233   5.139065   6.584714   7.490123   5.763248
    21  C    7.162859   7.545194   6.592227   6.620608   6.291593
    22  C    2.450524   4.265321   3.801803   5.781894   2.481304
    23  C    7.469808   8.958565   3.776242   2.846835   4.331892
    24  C    2.469650   2.471962   6.227333   7.987739   4.942053
    25  C    4.303631   4.943322   5.174177   6.278716   4.321481
    26  C    6.595048   7.446683   5.188126   5.199311   5.017958
    27  C    4.256863   2.434822   8.683230  10.330312   7.408693
    28  C    4.947924   4.268865   7.567196   8.728376   6.559615
    29  C    6.570293   6.555106   7.151279   7.586832   6.577333
    30  H    5.344115   3.414361   9.601008  11.116633   8.373753
    31  H    5.907472   4.890788   8.605881   9.648121   7.633290
    32  H    7.316966   6.971965   8.240841   8.627702   7.646378
    33  H    8.250625   8.580101   7.350670   7.051274   7.196001
    34  H    8.600786   9.594894   5.902999   4.920346   6.234575
    35  H    9.637940  11.109695   5.361061   3.425895   6.246974
    36  H    9.988081  11.869882   4.649085   2.150664   5.942547
    37  H    8.483714  10.651096   2.754735   1.087477   4.204258
    38  H    6.339028   8.683227   1.086096   2.740068   2.183365
    39  H    4.649516   7.122257   2.754015   5.146827   2.185495
    40  H    2.719473   5.089246   4.669879   7.172696   3.435091
    41  H    1.087050   2.706313   6.358960   8.740440   4.920769
    42  H    2.700158   1.087194   8.427837  10.637116   6.977328
    43  H    4.623953   2.152875   9.957062  11.883884   8.565968
    44  V    4.969203   6.557613   2.847002   3.804032   2.494231
                   11         12         13         14         15
    11  C    0.000000
    12  C    2.440044   0.000000
    13  C    2.934951   5.197365   0.000000
    14  C    1.418161   2.752535   2.630006   0.000000
    15  C    2.850168   1.407654   5.028937   2.398999   0.000000
    16  C    5.202924   7.141937   2.493430   4.389401   6.566899
    17  C    3.906749   5.203075   2.636998   2.633690   4.344074
    18  C    3.822551   3.801510   4.372904   2.489309   2.522131
    19  C    7.617012   9.369543   4.974858   6.651736   8.595095
    20  C    6.314120   7.590740   4.382166   5.074055   6.599988
    21  C    5.808677   6.279882   5.074083   4.392596   5.025544
    22  C    4.358734   6.573679   1.425693   3.908391   6.275406
    23  C    2.492671   2.436733   3.888038   1.399403   1.408389
    24  C    6.590982   8.562594   3.775060   5.810059   7.966628
    25  C    5.019011   6.557882   2.940781   3.892746   5.744993
    26  C    4.362491   4.962943   3.916790   2.945972   3.810434
    27  C    8.962595  10.775355   6.222697   8.046651  10.015021
    28  C    7.479642   8.924347   5.198154   6.326571   7.981184
    29  C    6.598879   7.420201   5.240374   5.227950   6.246993
    30  H    9.781418  11.463882   7.137786   8.775899  10.609076
    31  H    8.445146   9.746938   6.265256   7.233295   8.717635
    32  H    7.674083   8.390018   6.297265   6.292186   7.161782
    33  H    6.420283   6.503057   6.042436   5.011272   5.151196
    34  H    4.674564   4.122601   5.459074   3.442796   2.722120
    35  H    3.937739   2.162852   6.007006   3.396567   1.087858
    36  H    3.425806   1.090433   6.260611   3.842921   2.155783
    37  H    2.179934   2.157638   4.989943   3.412245   3.431536
    38  H    2.170366   4.125767   3.424015   3.441635   4.917037
    39  H    4.174595   6.480378   3.393630   4.984985   7.016659
    40  H    5.944294   8.380265   3.858347   6.280475   8.602492
    41  H    7.361986   9.747743   4.605744   7.233105   9.630184
    42  H    9.217263  11.469510   6.294340   8.780953  11.101396
    43  H   10.473252  12.489141   7.580070   9.736606  11.861029
    44  V    2.514078   4.271421   1.520768   1.518886   3.785248
                   16         17         18         19         20
    16  C    0.000000
    17  C    2.485512   0.000000
    18  C    4.938261   2.455081   0.000000
    19  C    2.481984   4.252426   6.528269   0.000000
    20  C    2.504399   2.440509   4.290347   2.462758   0.000000
    21  C    4.304741   2.437089   2.503449   4.933121   2.470372
    22  C    1.438870   2.942810   5.180901   3.788064   3.833747
    23  C    5.192661   2.935855   1.470579   7.186729   5.222684
    24  C    1.420659   3.765651   6.206124   1.442866   2.865550
    25  C    1.445410   1.402848   3.765133   2.850189   1.441867
    26  C    3.820206   1.426147   1.398684   5.171023   2.892168
    27  C    3.767979   5.672637   7.931374   1.420217   3.764357
    28  C    2.863635   3.725440   5.697232   1.421504   1.407118
    29  C    3.803983   2.782497   3.750437   3.797070   1.441528
    30  H    4.648903   6.281678   8.389465   2.172295   4.107245
    31  H    3.951138   4.601681   6.322188   2.169880   2.164306
    32  H    4.672467   3.872024   4.640564   4.128595   2.173813
    33  H    5.392488   3.424580   2.742016   5.901657   3.455937
    34  H    5.916645   3.438077   1.086640   7.303502   4.940291
    35  H    7.336691   4.975492   2.764834   9.200506   7.044127
    36  H    8.232313   6.261550   4.674606  10.449748   8.624118
    37  H    7.357432   6.026833   5.404425   9.790021   8.457666
    38  H    5.910283   5.454775   5.926611   8.385568   7.650526
    39  H    5.371131   6.012618   7.338298   7.619749   7.658004
    40  H    4.657593   6.276695   8.231075   6.343439   7.161370
    41  H    3.945437   6.253725   8.595604   4.659350   6.229195
    42  H    4.650652   7.131243   9.586220   3.934548   6.202120
    43  H    5.347210   7.568911   9.927452   3.435194   5.878540
    44  V    2.870516   1.521816   2.852171   5.168048   3.827702
                   21         22         23         24         25
    21  C    0.000000
    22  C    5.212200   0.000000
    23  C    3.866213   5.019328   0.000000
    24  C    5.149740   2.460994   6.580663   0.000000
    25  C    2.859332   2.523375   4.336608   2.471643   0.000000
    26  C    1.446686   4.367256   2.526211   4.975000   2.503379
    27  C    6.209730   4.927458   8.606688   2.466750   4.270293
    28  C    3.760134   4.302262   6.591931   2.478382   2.460666
    29  C    1.378134   4.995866   4.983525   4.306288   2.472497
    30  H    6.424725   5.900999   9.205902   3.453156   4.906118
    31  H    4.108464   5.389641   7.359573   3.459524   3.448963
    32  H    2.141673   5.954324   5.958936   4.931118   3.450066
    33  H    1.087765   6.273498   4.209832   6.212441   3.947082
    34  H    2.745554   6.246909   2.187052   7.123097   4.653743
    35  H    5.157248   7.187711   2.173705   8.703933   6.369026
    36  H    7.177451   7.648594   3.416803   9.652967   7.628827
    37  H    7.693582   6.406663   3.934191   8.726267   7.191432
    38  H    7.665131   4.660445   4.656499   7.118556   6.230015
    39  H    8.442686   3.932497   6.375212   6.198352   6.243000
    40  H    8.627657   3.431325   7.644196   4.921791   5.939393
    41  H    8.249863   3.433431   8.428934   3.455707   5.390668
    42  H    8.583361   4.896006   9.772978   3.455069   5.913066
    43  H    8.341529   6.170505  10.462406   3.926552   6.181438
    44  V    3.830981   2.518749   2.500606   4.291174   2.504951
                   26         27         28         29         30
    26  C    0.000000
    27  C    6.561941   0.000000
    28  C    4.299236   2.475695   0.000000
    29  C    2.457539   4.972761   2.497095   0.000000
    30  H    6.994338   1.087314   2.704937   5.094978   0.000000
    31  H    4.936662   2.699466   1.087579   2.735092   2.471775
    32  H    3.446653   5.081500   2.712371   1.089672   4.968147
    33  H    2.186692   7.115876   4.641125   2.146042   7.223457
    34  H    2.156430   8.676713   6.331880   4.114893   9.036005
    35  H    4.159535  10.616805   8.448700   6.476770  11.128451
    36  H    5.922796  11.858093   9.973401   8.375188  12.534359
    37  H    6.264605  11.124009   9.651587   8.627343  11.957111
    38  H    6.250952   9.585022   8.594969   8.237264  10.536344
    39  H    7.198092   8.565802   8.234720   8.621736   9.615927
    40  H    7.667001   6.965372   7.313009   8.406212   8.052180
    41  H    7.666335   4.889524   5.913252   7.640264   5.957989
    42  H    8.409921   3.418871   5.356050   7.626243   4.308809
    43  H    8.591166   2.157066   4.630332   7.126310   2.476851
    44  V    2.523808   6.549668   4.965564   4.304293   7.313554
                   31         32         33         34         35
    31  H    0.000000
    32  H    2.496395   0.000000
    33  H    4.807736   2.474965   0.000000
    34  H    6.819030   4.826535   2.535043   0.000000
    35  H    9.086236   7.286644   5.050732   2.515735   0.000000
    36  H   10.771199   9.309754   7.291866   4.810538   2.469679
    37  H   10.602840   9.678750   8.138325   5.989395   4.313971
    38  H    9.645392   9.326792   8.399724   6.828229   5.986367
    39  H    9.322134   9.664306   9.370173   8.375186   8.104061
    40  H    8.353591   9.323704   9.674439   9.317372   9.653530
    41  H    6.821082   8.359912   9.337627   9.647684  10.584273
    42  H    5.960231   8.058527   9.629502  10.543609  11.940448
    43  H    4.783391   7.222051   9.266650  10.733195  12.544387
    44  V    5.938294   5.393840   4.704536   3.938308   4.670548
                   36         37         38         39         40
    36  H    0.000000
    37  H    2.475765   0.000000
    38  H    4.831693   2.543256   0.000000
    39  H    7.286277   5.055085   2.511858   0.000000
    40  H    9.312676   7.302763   4.814391   2.477639   0.000000
    41  H   10.779885   9.112436   6.816188   4.811421   2.498633
    42  H   12.544279  11.159264   9.038241   7.229571   4.974639
    43  H   13.579505  12.569904  10.732866   9.267523   7.227345
    44  V    5.361804   4.688550   3.932971   4.676166   5.379083
                   41         42         43         44
    41  H    0.000000
    42  H    2.476061   0.000000
    43  H    4.788975   2.481433   0.000000
    44  V    5.935926   7.317441   8.217723   0.000000
 Stoichiometry    C29H14V(2)
 Framework group  C1[X(C29H14V)]
 Deg. of freedom   126
 Full point group                 C1      NOp   1
 Largest Abelian subgroup         C1      NOp   1
 Largest concise Abelian subgroup C1      NOp   1
                         Standard orientation:                         
 ---------------------------------------------------------------------
 Center     Atomic      Atomic             Coordinates (Angstroms)
 Number     Number       Type             X           Y           Z
 ---------------------------------------------------------------------
      1          6           0        0.558603   -3.734047   -0.000066
      2          6           0       -0.814161   -3.721863   -0.000280
      3          6           0       -1.566684   -2.493885   -0.000303
      4          6           0       -3.690500   -1.251861    0.000030
      5          6           0       -5.805420   -0.004443    0.000511
      6          6           0       -2.989141   -2.473465   -0.000051
      7          6           0       -5.121313   -1.218760    0.000319
      8          6           0        2.751488   -2.465956    0.000295
      9          6           0        4.925475   -1.224370    0.000251
     10          6           0        1.298327   -2.497552    0.000092
     11          6           0        3.502457   -1.256135    0.000312
     12          6           0        5.594119    0.000354    0.000151
     13          6           0        0.568289   -1.323894   -0.000108
     14          6           0        2.841584   -0.001374   -0.000001
     15          6           0        4.902577    1.226429    0.000092
     16          6           0       -1.547816   -0.005072   -0.000309
     17          6           0        0.559368    1.313088   -0.000254
     18          6           0        2.716797    2.484805   -0.000022
     19          6           0       -3.692500    1.244157    0.000001
     20          6           0       -1.573525    2.499195   -0.000162
     21          6           0        0.556682    3.750175    0.000040
     22          6           0       -0.856263   -1.266857   -0.000319
     23          6           0        3.494224    1.236523    0.000116
     24          6           0       -2.968474   -0.003901   -0.000154
     25          6           0       -0.842338    1.256479   -0.000328
     26          6           0        1.318566    2.520364   -0.000190
     27          6           0       -5.112439    1.216046    0.000176
     28          6           0       -2.980426    2.474451    0.000031
     29          6           0       -0.821287    3.728886    0.000046
     30          1           0       -5.666058    2.151865    0.000069
     31          1           0       -3.537549    3.408497    0.000203
     32          1           0       -1.380065    4.664383    0.000316
     33          1           0        1.094704    4.695567    0.000039
     34          1           0        3.281479    3.413203    0.000121
     35          1           0        5.462391    2.159191    0.000032
     36          1           0        6.684477    0.013074   -0.000003
     37          1           0        5.488582   -2.154701    0.000206
     38          1           0        3.279570   -3.415026    0.000293
     39          1           0        1.106345   -4.674599   -0.000149
     40          1           0       -1.371247   -4.659317   -0.000080
     41          1           0       -3.536617   -3.412585    0.000114
     42          1           0       -5.670682   -2.156941    0.000516
     43          1           0       -6.895022    0.001415    0.000733
     44         23           0        1.322699   -0.003441   -0.000082
 ---------------------------------------------------------------------
 Rotational constants (GHZ):      0.3074629      0.1350462      0.0938324
 Standard basis: VSTO-6G (5D, 7F)
 There are   140 symmetry adapted cartesian basis functions of A   symmetry.
 There are   139 symmetry adapted basis functions of A   symmetry.
   139 basis functions,   840 primitive gaussians,   140 cartesian basis functions
    68 alpha electrons       67 beta electrons
       nuclear repulsion energy      1269.6143547389 Hartrees.
 Integral buffers will be    262144 words long.
 Regular integral format.
 Two-electron integral symmetry is turned off.
 Do NDO integrals.
 One-electron integrals computed using PRISM.
 NBasis=   139 RedAO= F EigKep=  0.00D+00  NBF=   139
 NBsUse=   139 1.00D-04 EigRej=  0.00D+00 NBFU=   139
 Simple Huckel Guess.
 Initial guess <Sx>= 0.0000 <Sy>= 0.0000 <Sz>= 0.5000 <S**2>= 0.7500 S= 0.5000
 Keep J ints in memory in canonical form, NReq=2111950.
 Gradient too large for Newton-Raphson -- use scaled steepest descent instead.
  Beta Gap=    -0.105 HL deriv= 2.73D-05 Rot set to   1.04D+00
 Gradient too large for Newton-Raphson -- use scaled steepest descent instead.
     Accept linear search using points  4 and  5.
 Gradient too large for Newton-Raphson -- use scaled steepest descent instead.
     Minimum is close to point  4 DX=  1.52D-01 DF= -2.15D-03 DXR=  8.20D-02 DFR=  7.37D-03 which will be used.
 Gradient too large for Newton-Raphson -- use scaled steepest descent instead.
 Gradient too large for Newton-Raphson -- use scaled steepest descent instead.
     Accept linear search using points  1 and  2.
 Gradient too large for Newton-Raphson -- use scaled steepest descent instead.
     Accept linear search using points  1 and  2.
 Gradient too large for Newton-Raphson -- use scaled steepest descent instead.
     Minimum is close to point  2 DX=  2.55D-02 DF= -1.36D-05 DXR=  2.08D-02 DFR=  4.34D-04 which will be used.
 Gradient too large for Newton-Raphson -- use scaled steepest descent instead.
 Gradient too large for Newton-Raphson -- use scaled steepest descent instead.
     Accept linear search using points  1 and  2.
     Minimum is close to point  2 DX= -2.20D-03 DF= -9.02D-08 DXR=  1.69D-03 DFR=  4.49D-06 which will be used.
 Gradient too large for Newton-Raphson -- use scaled steepest descent instead.
     Minimum is close to point  2 DX=  1.24D-01 DF= -1.28D-04 DXR=  8.14D-02 DFR=  6.67D-03 which will be used.
 Gradient too large for Newton-Raphson -- use scaled steepest descent instead.
 Gradient too large for Newton-Raphson -- use scaled steepest descent instead.
     Accept linear search using points  1 and  2.
     Minimum is close to point  2 DX= -1.45D-01 DF= -3.19D-04 DXR=  9.99D-02 DFR=  1.80D-02 which will be used.
 Gradient too large for Newton-Raphson -- use scaled steepest descent instead.
     Accept linear search using points  1 and  2.
 Gradient too large for Newton-Raphson -- use scaled steepest descent instead.
     Minimum is close to point  2 DX=  3.22D-02 DF= -7.20D-06 DXR=  2.41D-02 DFR=  5.83D-04 which will be used.
 Gradient too large for Newton-Raphson -- use scaled steepest descent instead.
 Gradient too large for Newton-Raphson -- use scaled steepest descent instead.
     Accept linear search using points  1 and  2.
     Minimum is close to point  2 DX= -7.03D-02 DF= -2.56D-05 DXR=  5.29D-02 DFR=  4.59D-03 which will be used.
 Gradient too large for Newton-Raphson -- use scaled steepest descent instead.
     Accept linear search using points  1 and  2.
     Minimum is close to point  2 DX= -7.60D-02 DF= -1.89D-05 DXR=  5.74D-02 DFR=  5.36D-03 which will be used.
 Gradient too large for Newton-Raphson -- use scaled steepest descent instead.
     Accept linear search using points  1 and  2.
     Minimum is close to point  2 DX= -2.68D-02 DF= -1.52D-06 DXR=  2.11D-02 DFR=  6.82D-04 which will be used.
 Gradient too large for Newton-Raphson -- use scaled steepest descent instead.
 Gradient too large for Newton-Raphson -- use scaled steepest descent instead.
     Accept linear search using points  1 and  2.
     Minimum is close to point  2 DX= -9.77D-03 DF= -7.38D-08 DXR=  7.03D-03 DFR=  8.63D-05 which will be used.
 Gradient too large for Newton-Raphson -- use scaled steepest descent instead.
     Minimum is close to point  2 DX=  3.04D-02 DF= -2.44D-07 DXR=  2.12D-02 DFR=  4.51D-04 which will be used.
 Gradient too large for Newton-Raphson -- use scaled steepest descent instead.
     Minimum is close to point  2 DX=  1.07D-01 DF= -1.75D-06 DXR=  7.08D-02 DFR=  5.04D-03 which will be used.
 LinEq1:  Iter=  0 NonCon=     1 RMS=2.21D-04 Max=7.25D-03 NDo=     1
 AX will form     1 AO Fock derivatives at one time.
 LinEq1:  Iter=  1 NonCon=     1 RMS=1.09D-04 Max=2.81D-03 NDo=     1
 LinEq1:  Iter=  2 NonCon=     1 RMS=2.00D-05 Max=7.98D-04 NDo=     1
 LinEq1:  Iter=  3 NonCon=     1 RMS=4.46D-06 Max=1.25D-04 NDo=     1
 LinEq1:  Iter=  4 NonCon=     1 RMS=1.25D-06 Max=4.32D-05 NDo=     1
 LinEq1:  Iter=  5 NonCon=     1 RMS=4.07D-07 Max=1.61D-05 NDo=     1
 LinEq1:  Iter=  6 NonCon=     1 RMS=1.52D-07 Max=5.64D-06 NDo=     1
 LinEq1:  Iter=  7 NonCon=     1 RMS=4.22D-08 Max=1.17D-06 NDo=     1
 LinEq1:  Iter=  8 NonCon=     1 RMS=1.32D-08 Max=5.10D-07 NDo=     1
 LinEq1:  Iter=  9 NonCon=     0 RMS=3.37D-09 Max=8.75D-08 NDo=     1
 Linear equations converged to 9.824D-09 9.824D-08 after     9 iterations.
     Accept linear search using points  1 and  2.
 LinEq1:  Iter=  0 NonCon=     1 RMS=4.94D-05 Max=1.04D-03 NDo=     1
 LinEq1:  Iter=  1 NonCon=     1 RMS=2.14D-05 Max=1.12D-03 NDo=     1
 LinEq1:  Iter=  2 NonCon=     1 RMS=5.60D-06 Max=1.07D-04 NDo=     1
 LinEq1:  Iter=  3 NonCon=     1 RMS=2.00D-06 Max=6.48D-05 NDo=     1
 LinEq1:  Iter=  4 NonCon=     1 RMS=5.59D-07 Max=1.54D-05 NDo=     1
 LinEq1:  Iter=  5 NonCon=     1 RMS=1.80D-07 Max=5.21D-06 NDo=     1
 LinEq1:  Iter=  6 NonCon=     1 RMS=5.09D-08 Max=1.36D-06 NDo=     1
 LinEq1:  Iter=  7 NonCon=     1 RMS=1.71D-08 Max=6.72D-07 NDo=     1
 LinEq1:  Iter=  8 NonCon=     1 RMS=5.76D-09 Max=2.73D-07 NDo=     1
 LinEq1:  Iter=  9 NonCon=     0 RMS=1.53D-09 Max=5.96D-08 NDo=     1
 Linear equations converged to 9.824D-09 9.824D-08 after     9 iterations.
     Minimum is close to point  2 DX=  1.07D-02 DF= -3.30D-09 DXR=  1.05D-02 DFR=  1.11D-04 which will be used.
 LinEq1:  Iter=  0 NonCon=     1 RMS=2.12D-06 Max=7.58D-05 NDo=     1
 LinEq1:  Iter=  1 NonCon=     1 RMS=8.66D-07 Max=4.00D-05 NDo=     1
 LinEq1:  Iter=  2 NonCon=     1 RMS=2.65D-07 Max=1.18D-05 NDo=     1
 LinEq1:  Iter=  3 NonCon=     1 RMS=8.67D-08 Max=2.34D-06 NDo=     1
 LinEq1:  Iter=  4 NonCon=     1 RMS=2.65D-08 Max=5.49D-07 NDo=     1
 LinEq1:  Iter=  5 NonCon=     1 RMS=6.94D-09 Max=1.58D-07 NDo=     1
 LinEq1:  Iter=  6 NonCon=     1 RMS=1.92D-09 Max=4.95D-08 NDo=     1
 LinEq1:  Iter=  7 NonCon=     1 RMS=6.40D-10 Max=1.17D-08 NDo=     1
 LinEq1:  Iter=  8 NonCon=     0 RMS=1.91D-10 Max=6.30D-09 NDo=     1
 Linear equations converged to 1.039D-09 1.039D-08 after     8 iterations.
     Minimum is close to point  2 DX=  1.47D-02 DF= -5.26D-11 DXR=  1.45D-02 DFR=  2.10D-04 which will be used.
 LinEq1:  Iter=  0 NonCon=     1 RMS=5.90D-07 Max=2.15D-05 NDo=     1
 LinEq1:  Iter=  1 NonCon=     1 RMS=2.41D-07 Max=7.41D-06 NDo=     1
 LinEq1:  Iter=  2 NonCon=     1 RMS=8.54D-08 Max=4.12D-06 NDo=     1
 LinEq1:  Iter=  3 NonCon=     1 RMS=2.66D-08 Max=6.68D-07 NDo=     1
 LinEq1:  Iter=  4 NonCon=     1 RMS=8.30D-09 Max=2.57D-07 NDo=     1
 LinEq1:  Iter=  5 NonCon=     1 RMS=2.69D-09 Max=9.35D-08 NDo=     1
 LinEq1:  Iter=  6 NonCon=     1 RMS=8.99D-10 Max=2.30D-08 NDo=     1
 LinEq1:  Iter=  7 NonCon=     1 RMS=2.57D-10 Max=6.34D-09 NDo=     1
 LinEq1:  Iter=  8 NonCon=     0 RMS=8.53D-11 Max=1.56D-09 NDo=     1
 Linear equations converged to 3.168D-10 3.168D-09 after     8 iterations.
 LinEq1:  Iter=  0 NonCon=     1 RMS=1.49D-07 Max=2.72D-06 NDo=     1
 LinEq1:  Iter=  1 NonCon=     1 RMS=6.22D-08 Max=1.83D-06 NDo=     1
 LinEq1:  Iter=  2 NonCon=     1 RMS=1.67D-08 Max=5.73D-07 NDo=     1
 LinEq1:  Iter=  3 NonCon=     1 RMS=5.25D-09 Max=1.88D-07 NDo=     1
 LinEq1:  Iter=  4 NonCon=     1 RMS=1.73D-09 Max=5.31D-08 NDo=     1
 LinEq1:  Iter=  5 NonCon=     1 RMS=5.37D-10 Max=1.59D-08 NDo=     1
 LinEq1:  Iter=  6 NonCon=     1 RMS=1.62D-10 Max=7.27D-09 NDo=     1
 LinEq1:  Iter=  7 NonCon=     1 RMS=4.87D-11 Max=1.25D-09 NDo=     1
 LinEq1:  Iter=  8 NonCon=     1 RMS=2.21D-11 Max=8.37D-10 NDo=     1
 LinEq1:  Iter=  9 NonCon=     0 RMS=3.94D-12 Max=5.78D-11 NDo=     1
 Linear equations converged to 7.941D-11 7.941D-10 after     9 iterations.
 LinEq1:  Iter=  0 NonCon=     1 RMS=3.23D-08 Max=4.75D-07 NDo=     1
 LinEq1:  Iter=  1 NonCon=     1 RMS=1.00D-08 Max=3.51D-07 NDo=     1
 LinEq1:  Iter=  2 NonCon=     1 RMS=3.66D-09 Max=8.88D-08 NDo=     1
 LinEq1:  Iter=  3 NonCon=     1 RMS=1.40D-09 Max=4.93D-08 NDo=     1
 LinEq1:  Iter=  4 NonCon=     1 RMS=4.51D-10 Max=1.21D-08 NDo=     1
 LinEq1:  Iter=  5 NonCon=     1 RMS=1.36D-10 Max=3.76D-09 NDo=     1
 LinEq1:  Iter=  6 NonCon=     1 RMS=4.31D-11 Max=1.22D-09 NDo=     1
 LinEq1:  Iter=  7 NonCon=     1 RMS=1.25D-11 Max=3.97D-10 NDo=     1
 LinEq1:  Iter=  8 NonCon=     0 RMS=3.57D-12 Max=7.89D-11 NDo=     1
 Linear equations converged to 1.747D-11 1.747D-10 after     8 iterations.
 SCF Done:  E(UPM6) =  0.713518369118     a.u. after   29 cycles
            Convg  =    0.5308D-06                   112 Fock formations.
              S**2 =  4.6049                  -V/T =  1.0076
 <Sx>= 0.0000 <Sy>= 0.0000 <Sz>= 0.5000 <S**2>= 4.6049 S= 1.7034
 <L.S>= 0.000000000000E+00
 Annihilation of the first spin contaminant:
 S**2 before annihilation     4.6049,   after    15.5916

 **********************************************************************

            Population analysis using the SCF density.

 **********************************************************************

 Orbital symmetries:
 Alpha Orbitals:
       Occupied  (A) (A) (A) (A) (A) (A) (A) (A) (A) (A) (A) (A)
                 (A) (A) (A) (A) (A) (A) (A) (A) (A) (A) (A) (A)
                 (A) (A) (A) (A) (A) (A) (A) (A) (A) (A) (A) (A)
                 (A) (A) (A) (A) (A) (A) (A) (A) (A) (A) (A) (A)
                 (A) (A) (A) (A) (A) (A) (A) (A) (A) (A) (A) (A)
                 (A) (A) (A) (A) (A) (A) (A) (A)
       Virtual   (A) (A) (A) (A) (A) (A) (A) (A) (A) (A) (A) (A)
                 (A) (A) (A) (A) (A) (A) (A) (A) (A) (A) (A) (A)
                 (A) (A) (A) (A) (A) (A) (A) (A) (A) (A) (A) (A)
                 (A) (A) (A) (A) (A) (A) (A) (A) (A) (A) (A) (A)
                 (A) (A) (A) (A) (A) (A) (A) (A) (A) (A) (A) (A)
                 (A) (A) (A) (A) (A) (A) (A) (A) (A) (A) (A)
 Beta  Orbitals:
       Occupied  (A) (A) (A) (A) (A) (A) (A) (A) (A) (A) (A) (A)
                 (A) (A) (A) (A) (A) (A) (A) (A) (A) (A) (A) (A)
                 (A) (A) (A) (A) (A) (A) (A) (A) (A) (A) (A) (A)
                 (A) (A) (A) (A) (A) (A) (A) (A) (A) (A) (A) (A)
                 (A) (A) (A) (A) (A) (A) (A) (A) (A) (A) (A) (A)
                 (A) (A) (A) (A) (A) (A) (A)
       Virtual   (A) (A) (A) (A) (A) (A) (A) (A) (A) (A) (A) (A)
                 (A) (A) (A) (A) (A) (A) (A) (A) (A) (A) (A) (A)
                 (A) (A) (A) (A) (A) (A) (A) (A) (A) (A) (A) (A)
                 (A) (A) (A) (A) (A) (A) (A) (A) (A) (A) (A) (A)
                 (A) (A) (A) (A) (A) (A) (A) (A) (A) (A) (A) (A)
                 (A) (A) (A) (A) (A) (A) (A) (A) (A) (A) (A) (A)
 The electronic state is 2-A.
 Alpha  occ. eigenvalues --   -1.14446  -1.13716  -1.10726  -1.09193  -1.05215
 Alpha  occ. eigenvalues --   -1.04401  -1.00528  -1.00303  -0.97611  -0.94211
 Alpha  occ. eigenvalues --   -0.93939  -0.93308  -0.90315  -0.87953  -0.86259
 Alpha  occ. eigenvalues --   -0.81997  -0.80977  -0.79141  -0.78678  -0.75512
 Alpha  occ. eigenvalues --   -0.74932  -0.72013  -0.69255  -0.67714  -0.66844
 Alpha  occ. eigenvalues --   -0.64007  -0.62652  -0.59960  -0.58324  -0.57977
 Alpha  occ. eigenvalues --   -0.57823  -0.56648  -0.56299  -0.54738  -0.53756
 Alpha  occ. eigenvalues --   -0.52813  -0.52351  -0.51884  -0.51410  -0.50903
 Alpha  occ. eigenvalues --   -0.49413  -0.49377  -0.49309  -0.48895  -0.48328
 Alpha  occ. eigenvalues --   -0.47263  -0.47015  -0.46936  -0.45906  -0.45671
 Alpha  occ. eigenvalues --   -0.43596  -0.43080  -0.42676  -0.42420  -0.41974
 Alpha  occ. eigenvalues --   -0.40826  -0.40161  -0.38828  -0.37005  -0.36018
 Alpha  occ. eigenvalues --   -0.35041  -0.34781  -0.33404  -0.33137  -0.32290
 Alpha  occ. eigenvalues --   -0.30586  -0.28256  -0.26305
 Alpha virt. eigenvalues --   -0.03938  -0.02725  -0.01068  -0.00247   0.00605
 Alpha virt. eigenvalues --    0.00812   0.00975   0.01212   0.03357   0.03959
 Alpha virt. eigenvalues --    0.05702   0.06269   0.06542   0.07006   0.07547
 Alpha virt. eigenvalues --    0.09692   0.11524   0.11705   0.11792   0.12358
 Alpha virt. eigenvalues --    0.13254   0.13301   0.13464   0.13617   0.15058
 Alpha virt. eigenvalues --    0.15237   0.15564   0.15869   0.16058   0.16193
 Alpha virt. eigenvalues --    0.16429   0.16642   0.17074   0.17317   0.17618
 Alpha virt. eigenvalues --    0.17671   0.18123   0.18286   0.18393   0.18558
 Alpha virt. eigenvalues --    0.18731   0.18918   0.19023   0.19474   0.19566
 Alpha virt. eigenvalues --    0.19697   0.19838   0.20012   0.20419   0.20539
 Alpha virt. eigenvalues --    0.20645   0.20758   0.20944   0.21507   0.21563
 Alpha virt. eigenvalues --    0.21777   0.21965   0.22028   0.22127   0.22239
 Alpha virt. eigenvalues --    0.22338   0.22350   0.22505   0.22599   0.22652
 Alpha virt. eigenvalues --    0.22706   0.23096   0.23207   0.23464   0.23978
 Alpha virt. eigenvalues --    0.24085
  Beta  occ. eigenvalues --   -1.14430  -1.13766  -1.10805  -1.09158  -1.05203
  Beta  occ. eigenvalues --   -1.04422  -1.00571  -1.00318  -0.97653  -0.94193
  Beta  occ. eigenvalues --   -0.93927  -0.93332  -0.90263  -0.87977  -0.86744
  Beta  occ. eigenvalues --   -0.82014  -0.80946  -0.79280  -0.78747  -0.75582
  Beta  occ. eigenvalues --   -0.74878  -0.72116  -0.69297  -0.67713  -0.66803
  Beta  occ. eigenvalues --   -0.63929  -0.62691  -0.60268  -0.58294  -0.57876
  Beta  occ. eigenvalues --   -0.57795  -0.56849  -0.56307  -0.54859  -0.53689
  Beta  occ. eigenvalues --   -0.52958  -0.52287  -0.51860  -0.51295  -0.50783
  Beta  occ. eigenvalues --   -0.49907  -0.49455  -0.49448  -0.49058  -0.48299
  Beta  occ. eigenvalues --   -0.47397  -0.46825  -0.46808  -0.45875  -0.45686
  Beta  occ. eigenvalues --   -0.43702  -0.43143  -0.42800  -0.42434  -0.42334
  Beta  occ. eigenvalues --   -0.41023  -0.40015  -0.39129  -0.36789  -0.36199
  Beta  occ. eigenvalues --   -0.34705  -0.34541  -0.33272  -0.32101  -0.32097
  Beta  occ. eigenvalues --   -0.30371  -0.29706
  Beta virt. eigenvalues --   -0.03182  -0.00938   0.00002   0.00743   0.01306
  Beta virt. eigenvalues --    0.01787   0.02304   0.02553   0.03737   0.03840
  Beta virt. eigenvalues --    0.04172   0.05548   0.05823   0.06842   0.07310
  Beta virt. eigenvalues --    0.08053   0.09921   0.10906   0.11479   0.11672
  Beta virt. eigenvalues --    0.12243   0.12665   0.13264   0.13322   0.13499
  Beta virt. eigenvalues --    0.14877   0.15220   0.15452   0.15863   0.16005
  Beta virt. eigenvalues --    0.16229   0.16427   0.16653   0.16968   0.17273
  Beta virt. eigenvalues --    0.17585   0.17635   0.18154   0.18291   0.18320
  Beta virt. eigenvalues --    0.18556   0.18731   0.18950   0.19014   0.19418
  Beta virt. eigenvalues --    0.19545   0.19655   0.19814   0.19936   0.20480
  Beta virt. eigenvalues --    0.20513   0.20636   0.20700   0.20924   0.21536
  Beta virt. eigenvalues --    0.21564   0.21792   0.21812   0.22040   0.22170
  Beta virt. eigenvalues --    0.22324   0.22336   0.22432   0.22567   0.22600
  Beta virt. eigenvalues --    0.22697   0.22770   0.22902   0.22966   0.23521
  Beta virt. eigenvalues --    0.23784   0.23910
          Condensed to atoms (all electrons):
               1          2          3          4          5          6
     1  C    4.148051   0.000000   0.000000   0.000000   0.000000   0.000000
     2  C    0.000000   4.167217   0.000000   0.000000   0.000000   0.000000
     3  C    0.000000   0.000000   3.977863   0.000000   0.000000   0.000000
     4  C    0.000000   0.000000   0.000000   3.964393   0.000000   0.000000
     5  C    0.000000   0.000000   0.000000   0.000000   4.131088   0.000000
     6  C    0.000000   0.000000   0.000000   0.000000   0.000000   4.195643
     7  C    0.000000   0.000000   0.000000   0.000000   0.000000   0.000000
     8  C    0.000000   0.000000   0.000000   0.000000   0.000000   0.000000
     9  C    0.000000   0.000000   0.000000   0.000000   0.000000   0.000000
    10  C    0.000000   0.000000   0.000000   0.000000   0.000000   0.000000
    11  C    0.000000   0.000000   0.000000   0.000000   0.000000   0.000000
    12  C    0.000000   0.000000   0.000000   0.000000   0.000000   0.000000
    13  C    0.000000   0.000000   0.000000   0.000000   0.000000   0.000000
    14  C    0.000000   0.000000   0.000000   0.000000   0.000000   0.000000
    15  C    0.000000   0.000000   0.000000   0.000000   0.000000   0.000000
    16  C    0.000000   0.000000   0.000000   0.000000   0.000000   0.000000
    17  C    0.000000   0.000000   0.000000   0.000000   0.000000   0.000000
    18  C    0.000000   0.000000   0.000000   0.000000   0.000000   0.000000
    19  C    0.000000   0.000000   0.000000   0.000000   0.000000   0.000000
    20  C    0.000000   0.000000   0.000000   0.000000   0.000000   0.000000
    21  C    0.000000   0.000000   0.000000   0.000000   0.000000   0.000000
    22  C    0.000000   0.000000   0.000000   0.000000   0.000000   0.000000
    23  C    0.000000   0.000000   0.000000   0.000000   0.000000   0.000000
    24  C    0.000000   0.000000   0.000000   0.000000   0.000000   0.000000
    25  C    0.000000   0.000000   0.000000   0.000000   0.000000   0.000000
    26  C    0.000000   0.000000   0.000000   0.000000   0.000000   0.000000
    27  C    0.000000   0.000000   0.000000   0.000000   0.000000   0.000000
    28  C    0.000000   0.000000   0.000000   0.000000   0.000000   0.000000
    29  C    0.000000   0.000000   0.000000   0.000000   0.000000   0.000000
    30  H    0.000000   0.000000   0.000000   0.000000   0.000000   0.000000
    31  H    0.000000   0.000000   0.000000   0.000000   0.000000   0.000000
    32  H    0.000000   0.000000   0.000000   0.000000   0.000000   0.000000
    33  H    0.000000   0.000000   0.000000   0.000000   0.000000   0.000000
    34  H    0.000000   0.000000   0.000000   0.000000   0.000000   0.000000
    35  H    0.000000   0.000000   0.000000   0.000000   0.000000   0.000000
    36  H    0.000000   0.000000   0.000000   0.000000   0.000000   0.000000
    37  H    0.000000   0.000000   0.000000   0.000000   0.000000   0.000000
    38  H    0.000000   0.000000   0.000000   0.000000   0.000000   0.000000
    39  H    0.000000   0.000000   0.000000   0.000000   0.000000   0.000000
    40  H    0.000000   0.000000   0.000000   0.000000   0.000000   0.000000
    41  H    0.000000   0.000000   0.000000   0.000000   0.000000   0.000000
    42  H    0.000000   0.000000   0.000000   0.000000   0.000000   0.000000
    43  H    0.000000   0.000000   0.000000   0.000000   0.000000   0.000000
    44  V    0.000000   0.000000   0.000000   0.000000   0.000000   0.000000
               7          8          9         10         11         12
     1  C    0.000000   0.000000   0.000000   0.000000   0.000000   0.000000
     2  C    0.000000   0.000000   0.000000   0.000000   0.000000   0.000000
     3  C    0.000000   0.000000   0.000000   0.000000   0.000000   0.000000
     4  C    0.000000   0.000000   0.000000   0.000000   0.000000   0.000000
     5  C    0.000000   0.000000   0.000000   0.000000   0.000000   0.000000
     6  C    0.000000   0.000000   0.000000   0.000000   0.000000   0.000000
     7  C    4.168774   0.000000   0.000000   0.000000   0.000000   0.000000
     8  C    0.000000   4.144820   0.000000   0.000000   0.000000   0.000000
     9  C    0.000000   0.000000   4.122842   0.000000   0.000000   0.000000
    10  C    0.000000   0.000000   0.000000   4.033258   0.000000   0.000000
    11  C    0.000000   0.000000   0.000000   0.000000   4.109049   0.000000
    12  C    0.000000   0.000000   0.000000   0.000000   0.000000   4.190535
    13  C    0.000000   0.000000   0.000000   0.000000   0.000000   0.000000
    14  C    0.000000   0.000000   0.000000   0.000000   0.000000   0.000000
    15  C    0.000000   0.000000   0.000000   0.000000   0.000000   0.000000
    16  C    0.000000   0.000000   0.000000   0.000000   0.000000   0.000000
    17  C    0.000000   0.000000   0.000000   0.000000   0.000000   0.000000
    18  C    0.000000   0.000000   0.000000   0.000000   0.000000   0.000000
    19  C    0.000000   0.000000   0.000000   0.000000   0.000000   0.000000
    20  C    0.000000   0.000000   0.000000   0.000000   0.000000   0.000000
    21  C    0.000000   0.000000   0.000000   0.000000   0.000000   0.000000
    22  C    0.000000   0.000000   0.000000   0.000000   0.000000   0.000000
    23  C    0.000000   0.000000   0.000000   0.000000   0.000000   0.000000
    24  C    0.000000   0.000000   0.000000   0.000000   0.000000   0.000000
    25  C    0.000000   0.000000   0.000000   0.000000   0.000000   0.000000
    26  C    0.000000   0.000000   0.000000   0.000000   0.000000   0.000000
    27  C    0.000000   0.000000   0.000000   0.000000   0.000000   0.000000
    28  C    0.000000   0.000000   0.000000   0.000000   0.000000   0.000000
    29  C    0.000000   0.000000   0.000000   0.000000   0.000000   0.000000
    30  H    0.000000   0.000000   0.000000   0.000000   0.000000   0.000000
    31  H    0.000000   0.000000   0.000000   0.000000   0.000000   0.000000
    32  H    0.000000   0.000000   0.000000   0.000000   0.000000   0.000000
    33  H    0.000000   0.000000   0.000000   0.000000   0.000000   0.000000
    34  H    0.000000   0.000000   0.000000   0.000000   0.000000   0.000000
    35  H    0.000000   0.000000   0.000000   0.000000   0.000000   0.000000
    36  H    0.000000   0.000000   0.000000   0.000000   0.000000   0.000000
    37  H    0.000000   0.000000   0.000000   0.000000   0.000000   0.000000
    38  H    0.000000   0.000000   0.000000   0.000000   0.000000   0.000000
    39  H    0.000000   0.000000   0.000000   0.000000   0.000000   0.000000
    40  H    0.000000   0.000000   0.000000   0.000000   0.000000   0.000000
    41  H    0.000000   0.000000   0.000000   0.000000   0.000000   0.000000
    42  H    0.000000   0.000000   0.000000   0.000000   0.000000   0.000000
    43  H    0.000000   0.000000   0.000000   0.000000   0.000000   0.000000
    44  V    0.000000   0.000000   0.000000   0.000000   0.000000   0.000000
              13         14         15         16         17         18
     1  C    0.000000   0.000000   0.000000   0.000000   0.000000   0.000000
     2  C    0.000000   0.000000   0.000000   0.000000   0.000000   0.000000
     3  C    0.000000   0.000000   0.000000   0.000000   0.000000   0.000000
     4  C    0.000000   0.000000   0.000000   0.000000   0.000000   0.000000
     5  C    0.000000   0.000000   0.000000   0.000000   0.000000   0.000000
     6  C    0.000000   0.000000   0.000000   0.000000   0.000000   0.000000
     7  C    0.000000   0.000000   0.000000   0.000000   0.000000   0.000000
     8  C    0.000000   0.000000   0.000000   0.000000   0.000000   0.000000
     9  C    0.000000   0.000000   0.000000   0.000000   0.000000   0.000000
    10  C    0.000000   0.000000   0.000000   0.000000   0.000000   0.000000
    11  C    0.000000   0.000000   0.000000   0.000000   0.000000   0.000000
    12  C    0.000000   0.000000   0.000000   0.000000   0.000000   0.000000
    13  C    3.968417   0.000000   0.000000   0.000000   0.000000   0.000000
    14  C    0.000000   3.655513   0.000000   0.000000   0.000000   0.000000
    15  C    0.000000   0.000000   4.120567   0.000000   0.000000   0.000000
    16  C    0.000000   0.000000   0.000000   3.969641   0.000000   0.000000
    17  C    0.000000   0.000000   0.000000   0.000000   3.908260   0.000000
    18  C    0.000000   0.000000   0.000000   0.000000   0.000000   4.130366
    19  C    0.000000   0.000000   0.000000   0.000000   0.000000   0.000000
    20  C    0.000000   0.000000   0.000000   0.000000   0.000000   0.000000
    21  C    0.000000   0.000000   0.000000   0.000000   0.000000   0.000000
    22  C    0.000000   0.000000   0.000000   0.000000   0.000000   0.000000
    23  C    0.000000   0.000000   0.000000   0.000000   0.000000   0.000000
    24  C    0.000000   0.000000   0.000000   0.000000   0.000000   0.000000
    25  C    0.000000   0.000000   0.000000   0.000000   0.000000   0.000000
    26  C    0.000000   0.000000   0.000000   0.000000   0.000000   0.000000
    27  C    0.000000   0.000000   0.000000   0.000000   0.000000   0.000000
    28  C    0.000000   0.000000   0.000000   0.000000   0.000000   0.000000
    29  C    0.000000   0.000000   0.000000   0.000000   0.000000   0.000000
    30  H    0.000000   0.000000   0.000000   0.000000   0.000000   0.000000
    31  H    0.000000   0.000000   0.000000   0.000000   0.000000   0.000000
    32  H    0.000000   0.000000   0.000000   0.000000   0.000000   0.000000
    33  H    0.000000   0.000000   0.000000   0.000000   0.000000   0.000000
    34  H    0.000000   0.000000   0.000000   0.000000   0.000000   0.000000
    35  H    0.000000   0.000000   0.000000   0.000000   0.000000   0.000000
    36  H    0.000000   0.000000   0.000000   0.000000   0.000000   0.000000
    37  H    0.000000   0.000000   0.000000   0.000000   0.000000   0.000000
    38  H    0.000000   0.000000   0.000000   0.000000   0.000000   0.000000
    39  H    0.000000   0.000000   0.000000   0.000000   0.000000   0.000000
    40  H    0.000000   0.000000   0.000000   0.000000   0.000000   0.000000
    41  H    0.000000   0.000000   0.000000   0.000000   0.000000   0.000000
    42  H    0.000000   0.000000   0.000000   0.000000   0.000000   0.000000
    43  H    0.000000   0.000000   0.000000   0.000000   0.000000   0.000000
    44  V    0.000000   0.000000   0.000000   0.000000   0.000000   0.000000
              19         20         21         22         23         24
     1  C    0.000000   0.000000   0.000000   0.000000   0.000000   0.000000
     2  C    0.000000   0.000000   0.000000   0.000000   0.000000   0.000000
     3  C    0.000000   0.000000   0.000000   0.000000   0.000000   0.000000
     4  C    0.000000   0.000000   0.000000   0.000000   0.000000   0.000000
     5  C    0.000000   0.000000   0.000000   0.000000   0.000000   0.000000
     6  C    0.000000   0.000000   0.000000   0.000000   0.000000   0.000000
     7  C    0.000000   0.000000   0.000000   0.000000   0.000000   0.000000
     8  C    0.000000   0.000000   0.000000   0.000000   0.000000   0.000000
     9  C    0.000000   0.000000   0.000000   0.000000   0.000000   0.000000
    10  C    0.000000   0.000000   0.000000   0.000000   0.000000   0.000000
    11  C    0.000000   0.000000   0.000000   0.000000   0.000000   0.000000
[...]
 ,0.00000490,-0.00003248,0.00000049,-0.00002492,0.00000760,-0.00000029,
 -0.00161058,-0.00177974,0.00000062,-0.00003946,-0.00002270,-0.00000033
 ,0.00011397,0.00001421,-0.00000005,0.00005062,-0.00007502,0.00000114,-
 0.00002317,0.00010026,-0.00000081,0.00004834,0.00000862,-0.00000001,0.
 00001779,0.00003278,-0.00000002,0.00001583,0.00002365,0.00000005,-0.00
 001739,-0.00002411,0.,-0.00001260,-0.00001813,0.,-0.00000942,-0.000020
 30,0.,0.00000790,-0.00001668,0.,0.00001130,-0.00001670,0.00000001,0.00
 001661,-0.00002039,-0.00000002,0.00002719,0.00000479,0.00000002,0.0000
 1706,0.00002575,-0.00000003,0.00004004,0.00005124,0.00000001,-0.000345
 09,0.00091841,0.00000045,-0.09592680,0.21130818,0.00000353,-0.00000247
 ,0.00561642,0.00001821,-0.00002735,-0.03773818,-0.00000010,-0.00000777
 ,0.00630149,0.,-0.00000008,-0.00003880,0.00000001,0.,-0.00000322,0.000
 00014,0.00000026,-0.00085177,0.00000002,-0.00000001,-0.00000710,0.0000
 0005,-0.00000009,-0.00003411,0.00000001,0.,-0.00001434,0.00000035,-0.0
 0000130,0.00546755,0.,0.00000002,-0.00020257,-0.00000002,0.00000001,0.
 00000928,0.00000031,0.00000017,-0.00025042,0.00000003,0.00000003,-0.00
 002019,-0.00000001,0.,-0.00000127,0.,0.00000004,-0.00017281,0.00000003
 ,-0.00000002,-0.00001709,-0.00000001,0.00000002,-0.00000519,0.,-0.0000
 0001,0.00001939,0.,-0.00000002,0.00000675,0.,0.,-0.00000278,0.,-0.0000
 0068,0.00274144,-0.00000004,0.00000001,0.00001536,-0.00000005,0.000000
 02,-0.00001433,0.00000002,-0.00000005,0.00004521,0.,0.00000003,0.00000
 388,0.,0.00000001,-0.00000797,0.,0.,-0.00001016,0.00000002,0.,-0.00000
 874,0.,0.,0.00000475,0.,0.,0.00000469,0.,0.,0.00000329,0.,0.,0.0000033
 8,0.,0.,0.00000383,0.,0.,0.00000033,0.,0.,0.00000348,0.,0.,0.00000769,
 -0.00000002,0.,0.00007383,-0.00000012,0.00000046,-0.00163729,-0.000022
 42,0.00003887,0.02044073,0.00007955,0.00015925,0.00000028,-0.00080607,
 0.00001966,-0.00000010,-0.03266099,0.02421254,0.00000781,0.00738948,-0
 .00673189,-0.00000082,-0.00013325,-0.00000031,0.00000003,-0.09074831,0
 .08629752,0.00001498,-0.00038438,-0.00156996,-0.00000013,-0.00007905,0
 .00001567,0.00000026,-0.00003053,0.00001153,-0.00000006,0.00014378,0.0
 0006908,0.00000047,0.00004795,0.00000238,0.00000029,0.00002049,-0.0000
 2434,0.,-0.00040313,0.00030259,-0.00000163,0.00000293,-0.00002748,-0.0
 0000012,0.00001713,-0.00000435,0.00000003,-0.00001322,-0.00006697,0.00
 000005,0.00003354,-0.00005164,0.00000111,0.00001845,-0.00001870,0.0000
 0027,0.00019320,-0.00018567,-0.00000006,0.00000784,0.00001860,-0.00000
 037,0.00000959,-0.00002070,0.00000021,-0.00259685,-0.00038230,0.000000
 11,-0.00000151,0.00000561,0.00000023,-0.00088960,-0.00119992,0.0000007
 5,0.00001197,0.00006032,-0.00000091,-0.00002312,0.00002448,0.00000061,
 -0.00004342,0.00000390,0.,-0.00006614,-0.00011038,0.00000006,-0.000000
 36,-0.00001906,-0.00000003,0.00001184,0.00003003,0.,0.00002498,0.00000
 405,0.,0.00000791,0.00001264,0.,-0.00000689,0.00001590,0.,-0.00000581,
 0.00001099,0.,-0.00000807,0.00001163,0.00000002,-0.00001420,-0.0000006
 6,-0.00000001,-0.00000947,-0.00001015,0.00000002,-0.00001753,-0.000014
 89,0.,0.00001033,-0.00006951,0.,-0.00046264,-0.00056978,0.,0.12194846,
 -0.00013470,-0.00014691,-0.00000020,-0.00006247,0.00031032,0.00000017,
 0.01078378,-0.00007559,-0.00000190,0.00656162,-0.03985073,-0.00000391,
 0.00023040,0.00002164,-0.00000005,0.08648772,-0.16298615,-0.00002387,-
 0.00105307,-0.00177101,0.00000015,-0.00001266,-0.00005982,-0.00000015,
 0.00001720,-0.00002016,0.00000003,0.00002119,-0.00007414,-0.00000034,-
 0.00002704,-0.00002598,-0.00000018,-0.00003073,0.00001256,-0.00000001,
 -0.00017765,0.00012253,0.00000105,0.00000275,0.00000287,0.00000011,-0.
 00000765,0.00001352,-0.00000003,-0.00015259,0.00011407,0.00000001,-0.0
 0002478,0.00006027,-0.00000033,-0.00002425,0.00002744,-0.00000022,0.00
 024142,-0.00033224,-0.00000002,-0.00005598,-0.00000136,0.00000027,-0.0
 0002051,0.00002275,-0.00000024,-0.00027964,0.00005463,0.00000032,-0.00
 000349,-0.00000049,-0.00000019,-0.00144624,-0.00171076,0.,0.00003188,-
 0.00001069,0.00000053,0.00002924,-0.00002835,-0.00000040,0.00011534,0.
 00005304,-0.00000003,-0.00001788,-0.00005836,0.,0.00000980,0.00001691,
 0.00000002,-0.00003747,-0.00005215,0.,-0.00000427,-0.00004176,0.,-0.00
 001006,-0.00001817,0.,0.00001087,-0.00002259,0.,0.00001031,-0.00001672
 ,0.00000001,0.00001125,-0.00001612,-0.00000002,0.00002172,0.00000117,0
 .00000002,0.00001338,0.00002048,0.,0.00001834,0.00003759,0.00000002,-0
 .00001458,0.00007843,0.,-0.00044742,0.00005450,0.00000001,-0.09975719,
 0.20621706,0.00000030,-0.00000017,-0.00013269,-0.00000059,-0.00000025,
 -0.00109529,0.00000928,-0.00000382,0.00696129,0.00000097,-0.00000061,0
 .00597497,0.00000005,0.00000013,0.00000661,0.00001287,-0.00002470,-0.0
 3741860,-0.00000040,0.00000026,-0.00106029,0.00000014,-0.00000006,0.00
 003883,0.,0.,-0.00000626,-0.00000035,0.00000006,0.00000912,-0.00000002
 ,0.,0.00000141,0.,0.,-0.00000416,0.00000015,0.00000022,-0.00056302,0.0
 0000002,-0.00000003,0.00001201,0.,0.,-0.00000353,-0.00000039,-0.000000
 18,-0.00000332,-0.00000009,0.00000003,-0.00009447,-0.00000003,0.,-0.00
 000444,-0.00000004,-0.00000011,-0.00017360,0.,-0.00000003,0.00002031,0
 .00000002,0.00000003,-0.00000274,0.00000060,-0.00000015,0.00405291,-0.
 00000002,0.00000002,-0.00000018,0.00000119,-0.00000030,0.00358140,-0.0
 0000003,0.,-0.00042805,0.00000005,-0.00000003,0.00005235,0.00000004,-0
 .00000005,-0.00002998,-0.00000003,0.00000002,-0.00005861,0.,0.00000003
 ,0.00001594,0.,0.,0.00002773,0.,0.,0.00001179,0.,0.,0.00000468,0.,0.,-
 0.00000403,0.,0.,0.00000163,0.,0.,0.00000337,0.,0.,0.00000245,0.,0.,0.
 00000265,0.,0.,0.00000883,0.,-0.00000001,0.00012100,0.,0.,0.00029679,-
 0.00002387,0.00002964,0.01942323,0.00004066,0.00001900,0.00000042,-0.0
 0000038,-0.00004882,0.,0.00011931,0.00011976,-0.00000034,-0.03090374,0
 .02527349,0.00000620,0.00697480,-0.00911286,0.00000027,-0.00265507,-0.
 00008054,0.00000023,-0.08168077,0.08201579,0.00000480,-0.00000128,0.00
 001717,0.00000034,-0.00000817,0.00000853,-0.00000006,0.00001248,0.0000
 2757,0.00000069,0.00001741,0.00000461,0.00000037,0.00001792,-0.0000050
 7,0.,0.00002704,-0.00005428,-0.00000167,0.00000632,-0.00000660,-0.0000
 0015,0.00000242,-0.00000734,0.00000003,-0.00017866,0.00044340,0.000000
 08,0.00001170,0.00002736,0.00000085,0.00000680,-0.00001349,0.00000027,
 0.00000169,-0.00019034,0.00000003,0.00004055,-0.00003249,-0.00000041,0
 .00002401,-0.00000635,0.00000030,0.00001249,0.00008592,-0.00000097,0.0
 0000956,0.00000068,0.00000025,-0.00273000,-0.00050547,0.00000127,-0.00
 012622,-0.00003475,-0.00000087,-0.00000495,-0.00001359,0.00000064,-0.0
 0087875,-0.00154084,0.00000120,-0.00004146,0.00004230,-0.00000007,-0.0
 0001693,0.00001886,-0.00000004,0.00021956,-0.00015641,-0.00000008,0.00
 001183,0.00003741,0.,0.00000597,0.00001738,0.,-0.00000587,0.00001796,0
 .,-0.00000822,0.00001113,-0.00000002,-0.00000715,0.00000979,0.00000003
 ,-0.00001292,-0.00000031,-0.00000001,-0.00000751,-0.00001005,0.0000000
 4,-0.00001048,-0.00001483,-0.00000002,-0.00000494,-0.00002872,0.,0.000
 00740,-0.00003660,0.,-0.00052856,-0.00081949,0.00000008,0.11182553,-0.
 00004400,-0.00001703,0.00000011,0.00006276,-0.00000387,0.,-0.00014768,
 -0.00015549,-0.00000005,0.01157805,-0.00157330,-0.00000197,0.00477958,
 -0.04137582,0.00000133,-0.00041423,0.00038221,0.00000010,0.08164965,-0
 .17151569,-0.00001057,-0.00003233,-0.00003264,0.00000009,-0.00001003,-
 0.00001188,-0.00000003,0.00005062,0.00000645,0.00000017,-0.00000809,-0
 .00001112,0.00000010,-0.00002411,-0.00001316,-0.00000001,-0.00007349,-
 0.00008283,-0.00000023,0.00000802,-0.00001316,0.,0.00001589,0.00001259
 ,0.,-0.00000964,0.00006769,0.,-0.00005966,-0.00000811,0.00000037,-0.00
 000965,0.00002011,0.,-0.00008753,0.00029779,0.,-0.00006299,0.00004020,
 -0.00000004,-0.00003899,0.00001940,-0.00000002,0.00005488,-0.00001281,
 -0.00000014,-0.00002171,0.00001475,-0.00000002,-0.00027419,-0.00003097
 ,0.00000019,-0.00000623,0.00001187,-0.00000021,-0.00000442,0.00001065,
 0.00000008,-0.00159921,-0.00183450,0.00000065,0.00007541,-0.00002746,-
 0.00000005,0.00002876,-0.00002909,0.,0.00015566,-0.00040626,0.00000003
 ,-0.00003025,-0.00005219,0.00000002,-0.00000877,-0.00002419,0.,0.00000
 971,-0.00002955,0.,0.00001150,-0.00001585,0.,0.00000901,-0.00001123,0.
 ,0.00001696,0.00000016,0.,0.00000986,0.00001588,0.00000002,0.00001024,
 0.00002070,0.,0.00000490,0.00002989,0.,-0.00007205,0.00006000,0.000000
 01,-0.00042669,0.00007168,0.00000005,-0.09464923,0.21648267,0.,-0.0000
 0002,-0.00000808,0.,-0.00000002,0.00000860,0.00000014,-0.00000003,0.00
 005391,0.00000846,-0.00000432,0.00605030,0.,0.00000541,0.00636011,-0.0
 0000009,-0.00000033,-0.00097535,0.00000319,-0.00001149,-0.03833771,0.0
 0000001,-0.00000001,-0.00000537,0.,0.,-0.00000217,-0.00000004,-0.00000
 002,0.00000562,-0.00000001,0.,0.00000092,0.,0.,-0.00000228,0.00000006,
 0.00000004,-0.00001325,0.,0.,-0.00000383,0.,0.,-0.00000142,-0.00000005
 ,0.00000001,-0.00013976,0.00000001,-0.00000002,-0.00001516,0.,0.,-0.00
 000484,-0.00000026,-0.00000030,0.00006241,0.00000006,-0.00000002,0.000
 02082,0.,0.00000001,-0.00000250,-0.00000008,0.,0.00001425,-0.00000001,
 0.,0.00000119,0.00000125,0.00000063,0.00355370,-0.00000002,-0.00000004
 ,-0.00008788,-0.00000002,0.,0.00000076,0.00000145,0.00000013,0.0045800
 5,-0.00000018,0.,-0.00048562,0.,0.00000003,0.00003140,-0.00000010,-0.0
 0000002,-0.00037420,0.,0.,0.00002773,0.,0.,0.00000474,0.,0.,-0.0000008
 9,0.,0.,0.00000411,0.,0.,0.00000158,0.,0.,0.00000146,0.,0.,0.00000209,
 0.,0.,0.00000457,0.,0.,0.00000497,0.,0.,0.00002762,0.00000010,0.000000
 10,0.00031188,-0.00001369,0.00001015,0.02035338,0.00003236,0.00002022,
 0.00000013,-0.00002452,-0.00000322,0.,0.00005830,-0.00001373,-0.000000
 15,-0.00029922,-0.00116448,0.00000102,-0.21930261,0.00012679,0.0000344
 0,-0.00026245,-0.00003516,0.,-0.02684723,-0.01501887,0.00000713,0.0000
 2594,0.00003141,0.00000008,-0.00000470,0.00001600,-0.00000001,-0.00002
 079,-0.00000054,0.00000019,0.00002144,0.00001550,0.00000010,0.00003293
 ,0.00000008,0.00000001,0.00007107,0.00003894,-0.00000046,-0.00001156,-
 0.00000055,-0.00000007,-0.00000490,-0.00001605,0.,-0.00003480,-0.00000
 041,-0.00000006,0.00007149,-0.00003752,0.00000003,0.00002541,-0.000031
 81,0.00000009,-0.00029702,0.00116142,0.00000084,0.00005755,0.00001331,
 -0.00000019,0.00003286,-0.00002016,0.00000014,-0.00001372,-0.00000851,
 -0.00000030,0.00002177,-0.00001492,0.00000010,0.00025831,-0.00000001,-
 0.00000003,-0.00001409,0.00000899,-0.00000021,-0.00002002,-0.00000088,
 0.00000018,-0.02679244,0.01504171,0.00000506,-0.00026143,0.00003544,0.
 00000003,-0.00002476,0.00000328,-0.00000001,0.00045600,0.00048631,-0.0
 0000032,0.00004184,0.00006876,0.,0.00001818,0.00003538,0.,-0.00001204,
 0.00003471,0.,-0.00001464,0.00002291,-0.00000001,-0.00001264,0.0000177
 2,0.,-0.00002338,0.00000002,-0.00000001,-0.00001267,-0.00001772,0.,-0.
 00001464,-0.00002290,-0.00000001,-0.00001205,-0.00003466,0.,0.00001813
 ,-0.00003534,0.,0.00004176,-0.00006868,0.00000001,0.00045435,-0.000487
 22,-0.00000024,0.27268098,-0.00000836,-0.00001031,0.00000009,-0.000024
 01,0.00000806,0.00000001,-0.00001019,-0.00010528,-0.00000004,-0.000865
 26,-0.00233018,0.00000058,0.00012494,-0.03368807,-0.00000040,-0.000523
 90,-0.00005993,0.00000010,-0.02926382,-0.00737881,0.00000649,0.0000071
 1,-0.00000436,0.00000011,0.00000351,-0.00000091,-0.00000001,-0.0000025
 3,-0.00000483,0.00000013,-0.00000425,-0.00000413,0.00000009,-0.0000000
 2,0.00000441,0.,-0.00000318,0.00001313,0.,0.00000016,0.00001134,0.0000
 0001,-0.00000313,-0.00000086,-0.00000001,0.00000003,0.00001918,-0.0000
 0005,0.00000310,0.00001349,0.00000041,-0.00000723,-0.00000411,-0.00000
 008,0.00086293,-0.00233235,0.00000044,0.00000999,-0.00010518,0.0000000
 2,0.00000831,-0.00001027,-0.00000011,-0.00000490,0.00000125,0.,0.00000
 416,-0.00000263,-0.00000007,-0.00000019,-0.00005613,0.,0.00000483,0.00
 000131,-0.00000006,0.00000265,-0.00000495,-0.00000005,0.02928875,-0.00
 743181,-0.00000469,0.00052403,-0.00006058,-0.00000018,0.00002401,0.000
 00798,-0.00000003,0.00088688,-0.00033763,-0.00000022,0.00003048,0.0000
 5612,-0.00000001,0.00000460,0.00000884,0.,0.00000131,0.00000471,0.,-0.
 00000114,0.00000103,0.,-0.00000006,0.00000026,0.,0.00000002,0.00000028
 ,0.,0.00000008,0.00000030,0.,0.00000116,0.00000107,0.,-0.00000129,0.00
 000476,0.,-0.00000462,0.00000890,0.,-0.00003046,0.00005624,0.00000002,
 -0.00088842,-0.00033648,0.00000012,-0.00014583,0.05408955,0.,0.,0.0000
 0930,0.,0.,-0.00000825,-0.00000006,0.00000004,-0.00021469,0.00000121,0
 .00000045,0.00480832,0.00003421,-0.00000007,-0.03997384,0.00000012,0.0
 0000004,-0.00022055,0.00000795,0.00000354,0.00567340,0.,0.,-0.00000666
 ,0.,0.,-0.00000121,0.,0.,0.00000205,0.,0.,0.00000068,0.,0.,-0.00000172
 ,0.,-0.00000002,0.00001496,0.,0.,-0.00000206,0.,0.,-0.00000121,-0.0000
 0006,0.00000001,-0.00043301,-0.00000002,0.00000001,0.00001470,0.,0.,-0
 .00000666,0.00000097,0.00000047,0.00481207,-0.00000007,-0.00000007,-0.
 00021491,0.,0.,0.00000930,-0.00000001,-0.00000004,0.00001253,0.,0.,0.0
 0000070,-0.00000012,0.00000012,0.00002348,0.,0.,0.00001255,0.00000001,
 0.,0.00000208,0.00000417,-0.00000212,0.00567221,0.00000001,-0.00000005
 ,-0.00022048,0.,0.,-0.00000825,-0.00000040,-0.00000015,-0.00105306,0.,
 0.,0.00009361,0.,0.,0.00000692,0.,0.,0.00000301,0.,0.,0.00000289,0.,0.
 ,0.00000137,0.,0.,0.00000110,0.,0.,0.00000137,0.,0.,0.00000289,0.,0.,0
 .00000301,0.,0.,0.00000692,0.,0.,0.00009353,-0.00000025,0.00000005,-0.
 00105140,-0.00004768,-0.00000223,0.02211563,-0.00014402,-0.00056909,0.
 00000682,0.00006745,-0.00032896,-0.00000009,-0.00204922,0.00096251,-0.
 00000729,-0.00013710,0.00018639,0.00000026,0.00007536,-0.00000015,0.,0
 .00006258,0.00005484,0.00000033,0.00009955,-0.00011071,-0.00000008,-0.
 00109677,-0.00055346,0.00000702,0.00105201,-0.00100952,-0.00000180,0.0
 0693290,-0.00045612,0.00001336,-0.02643552,-0.02811036,-0.00001728,-0.
 00049197,-0.00001124,0.00000035,-0.04976440,0.11892719,-0.00001214,-0.
 24873244,-0.00023806,0.00001849,0.00106811,0.00102042,0.00000021,-0.00
 709935,0.00000282,-0.00000118,-0.05018208,-0.11919913,-0.00001095,-0.0
 0108395,0.00060565,0.00000816,-0.00013771,-0.00018544,0.00000026,-0.00
 204599,-0.00098002,-0.00000703,-0.00013008,0.00058520,0.00000747,-0.02
 444009,0.01980697,-0.00001521,-0.02648851,0.02826202,-0.00001116,-0.00
 022334,-0.00000082,0.00000034,-0.02450388,-0.01976749,-0.00000743,0.00
 695013,0.00038658,0.00002106,0.00009886,0.00010872,-0.00000002,0.00006
 153,-0.00005247,0.00000063,0.00005873,0.00033786,-0.00000095,-0.000023
 82,-0.00005953,0.00000006,-0.00008885,-0.00008145,0.00000007,-0.000081
 38,-0.00003486,0.00000017,0.00001851,-0.00011129,-0.00000002,-0.000414
 45,0.00033234,-0.00000046,-0.00021441,0.00033129,0.00000081,-0.0001452
 7,-0.00000009,-0.00000027,-0.00021305,-0.00033115,0.00000079,-0.000414
 12,-0.00033055,-0.00000037,0.00001694,0.00011076,0.00000004,-0.0000807
 4,0.00003363,0.00000012,-0.00008850,0.00008083,0.00000006,-0.00002355,
 0.00005987,0.00000005,-0.00007711,-0.00000003,0.,0.45053424,0.00164084
 ,-0.00218885,0.00000204,-0.00168359,0.00184322,0.00000045,-0.00027286,
 -0.00149360,0.00000072,-0.00029275,-0.00005201,0.00000007,0.00000040,-
 0.00035637,0.00000002,0.00076374,0.00027397,0.00000005,0.00040992,-0.0
 0019022,-0.00000010,-0.00469794,-0.00094350,0.00000582,-0.00148662,-0.
 00141547,-0.00000269,0.00365098,-0.02102790,0.00000227,-0.01126992,-0.
 00218568,-0.00000078,-0.00003089,-0.00048573,-0.00000004,0.12472460,-0
 .21285443,-0.00005734,0.00035460,0.02724632,0.00000693,0.00159404,-0.0
 0141516,0.00000088,-0.00000471,0.00939826,-0.00000182,-0.12527595,-0.2
 1230735,-0.00004082,0.00450899,-0.00117221,-0.00000706,0.00028865,-0.0
 0006177,-0.00000011,0.00028210,-0.00145493,0.00000155,-0.00162094,-0.0
 0217590,-0.00000047,0.01340381,-0.00561280,-0.00000169,0.01105848,-0.0
 0159742,-0.00000434,0.00000666,-0.00104231,-0.00000026,-0.01361281,-0.
 00564614,0.00001585,-0.00351339,-0.02115736,0.00001088,-0.00041083,-0.
 00018745,0.00000017,-0.00076841,0.00027343,-0.00000073,0.00167874,0.00
 182482,-0.00000159,-0.00002851,0.00006563,0.,-0.00003647,-0.00004371,0
 .00000003,-0.00030282,-0.00056044,0.00000040,0.00010597,-0.00046501,-0
 .00000061,0.00050401,-0.00123424,0.00000033,0.00030761,0.00010641,0.00
 000001,0.00000679,-0.00006820,0.00000004,-0.00029909,0.00010517,0.0000
 0006,-0.00050067,-0.00122555,-0.00000048,-0.00011523,-0.00046344,0.000
 00011,0.00030379,-0.00056886,-0.00000010,0.00003574,-0.00004566,-0.000
 00003,0.00003087,0.00006511,0.,0.00000054,-0.00002678,0.,0.00035761,0.
 46221476,0.00000031,-0.00000025,0.00110228,-0.00000037,0.00000009,0.00
 008313,0.00000027,-0.00000028,0.00118099,0.00000011,-0.00000036,0.0001
 0168,-0.00000014,-0.00000012,-0.00001129,0.00000006,0.00000024,-0.0002
 1682,0.00000011,0.00000021,-0.00002069,0.00000164,-0.00000164,-0.00289
 534,-0.00000181,-0.00000023,0.00110400,-0.00000012,-0.00000982,0.00155
 545,-0.00000982,0.00000057,0.00373473,0.00000058,0.00000014,0.00011904
 ,0.00002698,-0.00005814,0.01183895,-0.00000803,-0.00000258,0.00716602,
 -0.00000109,-0.00000037,0.00110078,0.00000202,-0.00000135,-0.00259916,
 -0.00001337,-0.00002591,0.01197355,0.00000047,-0.00000036,-0.00289682,
 0.00000038,0.00000036,0.00010200,0.00000112,0.00000197,0.00117897,0.00
 000069,0.00000073,0.00109659,0.00000831,-0.00000376,0.00185365,-0.0000
 0404,-0.00000137,0.00373605,-0.00000005,-0.00000029,-0.00020566,-0.000
 00284,0.00000485,0.00181805,0.00000432,-0.00000242,0.00152417,0.000000
 02,-0.00000016,-0.00002101,0.00000021,-0.00000005,-0.00021497,-0.00000
 064,-0.00000037,0.00008432,-0.00000008,0.00000007,0.00002234,-0.000000
 01,0.,0.00004033,0.00000019,-0.00000009,-0.00008796,0.00000017,0.00000
 019,-0.00005872,-0.00000016,0.00000028,0.00008417,-0.00000012,-0.00000
 002,-0.00024133,0.,-0.00000010,-0.00009607,-0.00000005,-0.00000006,-0.
 00024281,-0.00000015,-0.00000036,0.00008303,-0.00000005,-0.00000010,-0
 .00006080,0.00000006,0.00000003,-0.00008823,-0.00000002,-0.00000002,0.
 00004011,-0.00000004,-0.00000004,0.00002227,0.00000003,0.00000002,0.00
 001563,-0.00000500,0.00010058,-0.04280283||0.00012724,-0.00003214,0.00
 000096,-0.00014172,-0.00002681,0.00000122,0.00011741,0.00002021,0.0000
 0005,0.00008098,0.00004588,0.00000006,-0.00005634,0.00005308,0.0000002
 6,-0.00012505,-0.00003244,0.00000110,-0.00006695,-0.00002475,-0.000000
 07,0.00001722,-0.00014238,0.00000252,0.00002565,-0.00002976,0.00000272
 ,-0.00004718,0.00011198,0.00000399,-0.00008272,0.00007974,0.00000986,0
 .00004284,0.00010211,0.00000121,0.00002837,0.00005690,0.00000343,-0.00
 002628,-0.00007601,-0.00002353,-0.00011132,-0.00010121,0.00000221,-0.0
 0000672,-0.00001203,0.00000113,-0.00003266,-0.00005132,-0.00003082,-0.
 00005793,0.00011354,0.00000345,0.00002017,0.00000468,0.00000052,0.0000
 6497,-0.00002228,0.00000125,0.00004360,0.00002373,0.00000343,-0.000075
 40,0.00001139,0.00000437,0.00010953,-0.00002593,0.00001289,0.00010511,
 -0.00000274,-0.00000014,-0.00004808,-0.00000455,0.00001188,0.00003279,
 -0.00007616,0.00001462,-0.00000429,-0.00003796,-0.00000026,-0.00005598
 ,-0.00000911,0.00000059,-0.00005237,0.00001942,0.00000174,-0.00000906,
 -0.00000812,-0.00000023,0.00003914,-0.00000271,-0.00000015,0.00000499,
 0.00000886,-0.00000039,-0.00001980,-0.00000930,-0.00000061,0.00001758,
 -0.00004391,-0.00000178,0.00003166,0.00003041,-0.00000065,-0.00000779,
 -0.00001235,-0.00000041,0.00001770,-0.00000357,-0.00000037,0.00002372,
 0.00004320,-0.00000131,-0.00003212,0.00001133,-0.00000033,0.00001188,-
 0.00000166,-0.00000040,0.00004603,0.00000634,-0.00000049,0.00000061,0.
 00001761,-0.00000018,0.00000262,-0.00000710,-0.00000011,0.00004798,0.0
 0003589,-0.00002321|||@


 A FOOL CAN ASK MORE QUESTIONS THAN
 A WISE MAN CAN ANSWER.
 Job cpu time:       0 days  0 hours  0 minutes 10.0 seconds.
 File lengths (MBytes):  RWF=    714 Int=      0 D2E=      0 Chk=      5 Scr=      1
 Normal termination of Gaussian 09 at Wed Mar 11 11:31:09 2026.
