 Entering Link 1 = C:\Gaussian\G09W\l1.exe PID=     23976.
  
 Copyright (c) 1988,1990,1992,1993,1995,1998,2003,2009,2013,
            Gaussian, Inc.  All Rights Reserved.
  
 This is part of the Gaussian(R) 09 program.  It is based on
 the Gaussian(R) 03 system (copyright 2003, Gaussian, Inc.),
 the Gaussian(R) 98 system (copyright 1998, Gaussian, Inc.),
 the Gaussian(R) 94 system (copyright 1995, Gaussian, Inc.),
 the Gaussian 92(TM) system (copyright 1992, Gaussian, Inc.),
 the Gaussian 90(TM) system (copyright 1990, Gaussian, Inc.),
 the Gaussian 88(TM) system (copyright 1988, Gaussian, Inc.),
 the Gaussian 86(TM) system (copyright 1986, Carnegie Mellon
 University), and the Gaussian 82(TM) system (copyright 1983,
 Carnegie Mellon University). Gaussian is a federally registered
 trademark of Gaussian, Inc.
  
 This software contains proprietary and confidential information,
 including trade secrets, belonging to Gaussian, Inc.
  
 This software is provided under written license and may be
 used, copied, transmitted, or stored only in accord with that
 written license.
  
 The following legend is applicable only to US Government
 contracts under FAR:
  
                    RESTRICTED RIGHTS LEGEND
  
 Use, reproduction and disclosure by the US Government is
 subject to restrictions as set forth in subparagraphs (a)
 and (c) of the Commercial Computer Software - Restricted
 Rights clause in FAR 52.227-19.
  
 Gaussian, Inc.
 340 Quinnipiac St., Bldg. 40, Wallingford CT 06492
  
  
 ---------------------------------------------------------------
 Warning -- This program may not be used in any manner that
 competes with the business of Gaussian, Inc. or will provide
 assistance to any competitor of Gaussian, Inc.  The licensee
 of this program is prohibited from giving any competitor of
 Gaussian, Inc. access to this program.  By using this program,
 the user acknowledges that Gaussian, Inc. is engaged in the
 business of creating and licensing software in the field of
 computational chemistry and represents and warrants to the
 licensee that it is not a competitor of Gaussian, Inc. and that
 it will not use this program in any manner prohibited above.
 ---------------------------------------------------------------
  

 Cite this work as:
 Gaussian 09, Revision D.01,
 M. J. Frisch, G. W. Trucks, H. B. Schlegel, G. E. Scuseria, 
 M. A. Robb, J. R. Cheeseman, G. Scalmani, V. Barone, B. Mennucci, 
 G. A. Petersson, H. Nakatsuji, M. Caricato, X. Li, H. P. Hratchian, 
 A. F. Izmaylov, J. Bloino, G. Zheng, J. L. Sonnenberg, M. Hada, 
 M. Ehara, K. Toyota, R. Fukuda, J. Hasegawa, M. Ishida, T. Nakajima, 
 Y. Honda, O. Kitao, H. Nakai, T. Vreven, J. A. Montgomery, Jr., 
 J. E. Peralta, F. Ogliaro, M. Bearpark, J. J. Heyd, E. Brothers, 
 K. N. Kudin, V. N. Staroverov, T. Keith, R. Kobayashi, J. Normand, 
 K. Raghavachari, A. Rendell, J. C. Burant, S. S. Iyengar, J. Tomasi, 
 M. Cossi, N. Rega, J. M. Millam, M. Klene, J. E. Knox, J. B. Cross, 
 V. Bakken, C. Adamo, J. Jaramillo, R. Gomperts, R. E. Stratmann, 
 O. Yazyev, A. J. Austin, R. Cammi, C. Pomelli, J. W. Ochterski, 
 R. L. Martin, K. Morokuma, V. G. Zakrzewski, G. A. Voth, 
 P. Salvador, J. J. Dannenberg, S. Dapprich, A. D. Daniels, 
 O. Farkas, J. B. Foresman, J. V. Ortiz, J. Cioslowski, 
 and D. J. Fox, Gaussian, Inc., Wallingford CT, 2013.
 
 ******************************************
 Gaussian 09:  IA32W-G09RevD.01 24-Apr-2013
                15-Mar-2026 
 ******************************************
 %chk=C:\Users\User\Desktop\IMRG\ECE+ML\Zn_Gr_NS.chk
 ---------------------------------------
 # opt freq pm6 scf=qc geom=connectivity
 ---------------------------------------
 1/14=-1,18=20,19=15,26=1,38=1,57=2/1,3;
 2/9=110,12=2,17=6,18=5,40=1/2;
 3/5=2,16=1,25=1,41=3900000,71=1/1,2,3;
 4/35=1/1;
 5/5=2,8=3,35=1,38=5/8;
 6/7=2,8=2,9=2,10=2,28=1/1;
 7//1,2,3,16;
 1/14=-1,18=20,19=15,26=1/3(2);
 2/9=110/2;
 99//99;
 2/9=110/2;
 3/5=2,16=1,25=1,41=3900000,71=1,135=20/1,2,3;
 4/5=5,16=3,35=1/1;
 5/5=2,8=3,35=1,38=5/8;
 7//1,2,3,16;
 1/14=-1,18=20,19=15,26=1/3(-5);
 2/9=110/2;
 6/7=2,8=2,9=2,10=2,19=2,28=1/1;
 99/9=1/99;
 --------
 Zn_Gr_NS
 --------
 Symbolic Z-matrix:
 Charge =  0 Multiplicity = 1
 C                     0.17695   1.02371   2.99497 
 C                     1.43495   0.29741   2.57781 
 C                     2.69295   1.02371   2.99497 
 C                     5.20895   1.02371   2.99497 
 C                     7.72495   1.02371   2.99497 
 C                     3.95095   0.29741   2.57781 
 C                     6.46695   0.29741   2.57781 
 C                    -1.08105   3.20263   2.99497 
 C                    -2.33905   5.38155   2.99497 
 C                     0.17695   2.47633   2.57781 
 C                    -1.08105   4.65525   2.57781 
 C                    -2.33905   6.83417   2.57781 
 C                     1.43495   3.20263   2.99497 
 C                     0.17695   5.38155   2.99497 
 C                    -1.08105   7.56047   2.99497 
 C                     3.95095   3.20263   2.99497 
 C                     2.69295   5.38155   2.99497 
 C                     1.43495   7.56047   2.99497 
 C                     6.46695   3.20263   2.99497 
 C                     5.20895   5.38155   2.99497 
 C                     3.95095   7.56047   2.99497 
 C                     2.69295   2.47633   2.57781 
 C                     0.17695   6.83417   2.57781 
 C                     5.20895   2.47633   2.57781 
 C                     3.95095   4.65525   2.57781 
 C                     2.69295   6.83417   2.57781 
 C                     7.72495   2.47633   2.57781 
 C                     6.46695   4.65525   2.57781 
 C                     5.20895   6.83417   2.57781 
 H                     8.6156    2.99054   2.87315 
 H                     7.3576    5.16946   2.87315 
 H                     6.0996    7.34838   2.87315 
 H                     3.95095   8.58891   2.69962 
 H                     1.43495   8.58891   2.69962 
 H                    -1.08105   8.58891   2.69962 
 H                    -3.2297    7.34838   2.87315 
 H                    -3.2297    4.86734   2.69962 
 H                    -1.9717    2.68842   2.69962 
 H                    -0.7137    0.5095    2.69962 
 H                     1.43495  -0.73103   2.87315 
 H                     3.95095  -0.73103   2.87315 
 H                     6.49522  -0.60455   3.15277 
 H                     8.37341   0.35071   3.51599 
 Zn                    1.43495   4.65525   2.57781 
 

 GradGradGradGradGradGradGradGradGradGradGradGradGradGradGradGradGradGrad
 Berny optimization.
 Initialization pass.
                           ----------------------------
                           !    Initial Parameters    !
                           ! (Angstroms and Degrees)  !
 --------------------------                            --------------------------
 ! Name  Definition              Value          Derivative Info.                !
 --------------------------------------------------------------------------------
 ! R1    R(1,2)                  1.5113         estimate D2E/DX2                !
 ! R2    R(1,10)                 1.5113         estimate D2E/DX2                !
 ! R3    R(1,39)                 1.07           estimate D2E/DX2                !
 ! R4    R(2,3)                  1.5113         estimate D2E/DX2                !
 ! R5    R(2,40)                 1.07           estimate D2E/DX2                !
 ! R6    R(3,6)                  1.5113         estimate D2E/DX2                !
 ! R7    R(3,22)                 1.5113         estimate D2E/DX2                !
 ! R8    R(4,6)                  1.5113         estimate D2E/DX2                !
 ! R9    R(4,7)                  1.5113         estimate D2E/DX2                !
 ! R10   R(4,24)                 1.5113         estimate D2E/DX2                !
 ! R11   R(5,7)                  1.5113         estimate D2E/DX2                !
 ! R12   R(5,27)                 1.5113         estimate D2E/DX2                !
 ! R13   R(5,43)                 1.07           estimate D2E/DX2                !
 ! R14   R(6,41)                 1.07           estimate D2E/DX2                !
 ! R15   R(7,42)                 1.07           estimate D2E/DX2                !
 ! R16   R(8,10)                 1.5113         estimate D2E/DX2                !
 ! R17   R(8,11)                 1.5113         estimate D2E/DX2                !
 ! R18   R(8,38)                 1.07           estimate D2E/DX2                !
 ! R19   R(9,11)                 1.5113         estimate D2E/DX2                !
 ! R20   R(9,12)                 1.5113         estimate D2E/DX2                !
 ! R21   R(9,37)                 1.07           estimate D2E/DX2                !
 ! R22   R(10,13)                1.5113         estimate D2E/DX2                !
 ! R23   R(11,14)                1.5113         estimate D2E/DX2                !
 ! R24   R(12,15)                1.5113         estimate D2E/DX2                !
 ! R25   R(12,36)                1.07           estimate D2E/DX2                !
 ! R26   R(13,22)                1.5113         estimate D2E/DX2                !
 ! R27   R(13,44)                1.5113         estimate D2E/DX2                !
 ! R28   R(14,23)                1.5113         estimate D2E/DX2                !
 ! R29   R(14,44)                1.5113         estimate D2E/DX2                !
 ! R30   R(15,23)                1.5113         estimate D2E/DX2                !
 ! R31   R(15,35)                1.07           estimate D2E/DX2                !
 ! R32   R(16,22)                1.5113         estimate D2E/DX2                !
 ! R33   R(16,24)                1.5113         estimate D2E/DX2                !
 ! R34   R(16,25)                1.5113         estimate D2E/DX2                !
 ! R35   R(17,25)                1.5113         estimate D2E/DX2                !
 ! R36   R(17,26)                1.5113         estimate D2E/DX2                !
 ! R37   R(17,44)                1.5113         estimate D2E/DX2                !
 ! R38   R(18,23)                1.5113         estimate D2E/DX2                !
 ! R39   R(18,26)                1.5113         estimate D2E/DX2                !
 ! R40   R(18,34)                1.07           estimate D2E/DX2                !
 ! R41   R(19,24)                1.5113         estimate D2E/DX2                !
 ! R42   R(19,27)                1.5113         estimate D2E/DX2                !
 ! R43   R(19,28)                1.5113         estimate D2E/DX2                !
 ! R44   R(20,25)                1.5113         estimate D2E/DX2                !
 ! R45   R(20,28)                1.5113         estimate D2E/DX2                !
 ! R46   R(20,29)                1.5113         estimate D2E/DX2                !
 ! R47   R(21,26)                1.5113         estimate D2E/DX2                !
 ! R48   R(21,29)                1.5113         estimate D2E/DX2                !
 ! R49   R(21,33)                1.07           estimate D2E/DX2                !
 ! R50   R(27,30)                1.07           estimate D2E/DX2                !
 ! R51   R(28,31)                1.07           estimate D2E/DX2                !
 ! R52   R(29,32)                1.07           estimate D2E/DX2                !
 ! A1    A(2,1,10)             112.6884         estimate D2E/DX2                !
 ! A2    A(2,1,39)             112.6884         estimate D2E/DX2                !
 ! A3    A(10,1,39)            112.6884         estimate D2E/DX2                !
 ! A4    A(1,2,3)              112.6884         estimate D2E/DX2                !
 ! A5    A(1,2,40)             112.6884         estimate D2E/DX2                !
 ! A6    A(3,2,40)             112.6884         estimate D2E/DX2                !
 ! A7    A(2,3,6)              112.6884         estimate D2E/DX2                !
 ! A8    A(2,3,22)             112.6884         estimate D2E/DX2                !
 ! A9    A(6,3,22)             112.6884         estimate D2E/DX2                !
 ! A10   A(6,4,7)              112.6884         estimate D2E/DX2                !
 ! A11   A(6,4,24)             112.6884         estimate D2E/DX2                !
 ! A12   A(7,4,24)             112.6884         estimate D2E/DX2                !
 ! A13   A(7,5,27)             112.6884         estimate D2E/DX2                !
 ! A14   A(7,5,43)             109.6693         estimate D2E/DX2                !
 ! A15   A(27,5,43)            137.6415         estimate D2E/DX2                !
 ! A16   A(3,6,4)              112.6884         estimate D2E/DX2                !
 ! A17   A(3,6,41)             112.6884         estimate D2E/DX2                !
 ! A18   A(4,6,41)             112.6884         estimate D2E/DX2                !
 ! A19   A(4,7,5)              112.6884         estimate D2E/DX2                !
 ! A20   A(4,7,42)             106.187          estimate D2E/DX2                !
 ! A21   A(5,7,42)             103.5792         estimate D2E/DX2                !
 ! A22   A(10,8,11)            112.6884         estimate D2E/DX2                !
 ! A23   A(10,8,38)            112.6884         estimate D2E/DX2                !
 ! A24   A(11,8,38)            112.6884         estimate D2E/DX2                !
 ! A25   A(11,9,12)            112.6884         estimate D2E/DX2                !
 ! A26   A(11,9,37)            112.6884         estimate D2E/DX2                !
 ! A27   A(12,9,37)            112.6884         estimate D2E/DX2                !
 ! A28   A(1,10,8)             112.6884         estimate D2E/DX2                !
 ! A29   A(1,10,13)            112.6884         estimate D2E/DX2                !
 ! A30   A(8,10,13)            112.6884         estimate D2E/DX2                !
 ! A31   A(8,11,9)             112.6884         estimate D2E/DX2                !
 ! A32   A(8,11,14)            112.6884         estimate D2E/DX2                !
 ! A33   A(9,11,14)            112.6884         estimate D2E/DX2                !
 ! A34   A(9,12,15)            112.6884         estimate D2E/DX2                !
 ! A35   A(9,12,36)            112.6884         estimate D2E/DX2                !
 ! A36   A(15,12,36)           112.6884         estimate D2E/DX2                !
 ! A37   A(10,13,22)           112.6884         estimate D2E/DX2                !
 ! A38   A(10,13,44)           112.6884         estimate D2E/DX2                !
 ! A39   A(22,13,44)           112.6884         estimate D2E/DX2                !
 ! A40   A(11,14,23)           112.6884         estimate D2E/DX2                !
 ! A41   A(11,14,44)           112.6884         estimate D2E/DX2                !
 ! A42   A(23,14,44)           112.6884         estimate D2E/DX2                !
 ! A43   A(12,15,23)           112.6884         estimate D2E/DX2                !
 ! A44   A(12,15,35)           112.6884         estimate D2E/DX2                !
 ! A45   A(23,15,35)           112.6884         estimate D2E/DX2                !
 ! A46   A(22,16,24)           112.6884         estimate D2E/DX2                !
 ! A47   A(22,16,25)           112.6884         estimate D2E/DX2                !
 ! A48   A(24,16,25)           112.6884         estimate D2E/DX2                !
 ! A49   A(25,17,26)           112.6884         estimate D2E/DX2                !
 ! A50   A(25,17,44)           112.6884         estimate D2E/DX2                !
 ! A51   A(26,17,44)           112.6884         estimate D2E/DX2                !
 ! A52   A(23,18,26)           112.6884         estimate D2E/DX2                !
 ! A53   A(23,18,34)           112.6884         estimate D2E/DX2                !
 ! A54   A(26,18,34)           112.6884         estimate D2E/DX2                !
 ! A55   A(24,19,27)           112.6884         estimate D2E/DX2                !
 ! A56   A(24,19,28)           112.6884         estimate D2E/DX2                !
 ! A57   A(27,19,28)           112.6884         estimate D2E/DX2                !
 ! A58   A(25,20,28)           112.6884         estimate D2E/DX2                !
 ! A59   A(25,20,29)           112.6884         estimate D2E/DX2                !
 ! A60   A(28,20,29)           112.6884         estimate D2E/DX2                !
 ! A61   A(26,21,29)           112.6884         estimate D2E/DX2                !
 ! A62   A(26,21,33)           112.6884         estimate D2E/DX2                !
 ! A63   A(29,21,33)           112.6884         estimate D2E/DX2                !
 ! A64   A(3,22,13)            112.6884         estimate D2E/DX2                !
 ! A65   A(3,22,16)            112.6884         estimate D2E/DX2                !
 ! A66   A(13,22,16)           112.6884         estimate D2E/DX2                !
 ! A67   A(14,23,15)           112.6884         estimate D2E/DX2                !
 ! A68   A(14,23,18)           112.6884         estimate D2E/DX2                !
 ! A69   A(15,23,18)           112.6884         estimate D2E/DX2                !
 ! A70   A(4,24,16)            112.6884         estimate D2E/DX2                !
 ! A71   A(4,24,19)            112.6884         estimate D2E/DX2                !
 ! A72   A(16,24,19)           112.6884         estimate D2E/DX2                !
 ! A73   A(16,25,17)           112.6884         estimate D2E/DX2                !
 ! A74   A(16,25,20)           112.6884         estimate D2E/DX2                !
 ! A75   A(17,25,20)           112.6884         estimate D2E/DX2                !
 ! A76   A(17,26,18)           112.6884         estimate D2E/DX2                !
 ! A77   A(17,26,21)           112.6884         estimate D2E/DX2                !
 ! A78   A(18,26,21)           112.6884         estimate D2E/DX2                !
 ! A79   A(5,27,19)            112.6884         estimate D2E/DX2                !
 ! A80   A(5,27,30)            112.6884         estimate D2E/DX2                !
 ! A81   A(19,27,30)           112.6884         estimate D2E/DX2                !
 ! A82   A(19,28,20)           112.6884         estimate D2E/DX2                !
 ! A83   A(19,28,31)           112.6884         estimate D2E/DX2                !
 ! A84   A(20,28,31)           112.6884         estimate D2E/DX2                !
 ! A85   A(20,29,21)           112.6884         estimate D2E/DX2                !
 ! A86   A(20,29,32)           112.6884         estimate D2E/DX2                !
 ! A87   A(21,29,32)           112.6884         estimate D2E/DX2                !
 ! A88   A(13,44,14)           112.6884         estimate D2E/DX2                !
 ! A89   A(13,44,17)           112.6884         estimate D2E/DX2                !
 ! A90   A(14,44,17)           112.6884         estimate D2E/DX2                !
 ! D1    D(10,1,2,3)            51.1032         estimate D2E/DX2                !
 ! D2    D(10,1,2,40)          180.0            estimate D2E/DX2                !
 ! D3    D(39,1,2,3)           180.0            estimate D2E/DX2                !
 ! D4    D(39,1,2,40)          -51.1032         estimate D2E/DX2                !
 ! D5    D(2,1,10,8)           180.0            estimate D2E/DX2                !
 ! D6    D(2,1,10,13)          -51.1032         estimate D2E/DX2                !
 ! D7    D(39,1,10,8)           51.1032         estimate D2E/DX2                !
 ! D8    D(39,1,10,13)         180.0            estimate D2E/DX2                !
 ! D9    D(1,2,3,6)            180.0            estimate D2E/DX2                !
 ! D10   D(1,2,3,22)           -51.1032         estimate D2E/DX2                !
 ! D11   D(40,2,3,6)            51.1032         estimate D2E/DX2                !
 ! D12   D(40,2,3,22)         -180.0            estimate D2E/DX2                !
 ! D13   D(2,3,6,4)            180.0            estimate D2E/DX2                !
 ! D14   D(2,3,6,41)           -51.1032         estimate D2E/DX2                !
 ! D15   D(22,3,6,4)            51.1032         estimate D2E/DX2                !
 ! D16   D(22,3,6,41)          180.0            estimate D2E/DX2                !
 ! D17   D(2,3,22,13)           51.1032         estimate D2E/DX2                !
 ! D18   D(2,3,22,16)          180.0            estimate D2E/DX2                !
 ! D19   D(6,3,22,13)          180.0            estimate D2E/DX2                !
 ! D20   D(6,3,22,16)          -51.1032         estimate D2E/DX2                !
 ! D21   D(7,4,6,3)            180.0            estimate D2E/DX2                !
 ! D22   D(7,4,6,41)            51.1032         estimate D2E/DX2                !
 ! D23   D(24,4,6,3)           -51.1032         estimate D2E/DX2                !
 ! D24   D(24,4,6,41)          180.0            estimate D2E/DX2                !
 ! D25   D(6,4,7,5)            180.0            estimate D2E/DX2                !
 ! D26   D(6,4,7,42)           -67.2727         estimate D2E/DX2                !
 ! D27   D(24,4,7,5)            51.1032         estimate D2E/DX2                !
 ! D28   D(24,4,7,42)          163.8304         estimate D2E/DX2                !
 ! D29   D(6,4,24,16)           51.1032         estimate D2E/DX2                !
 ! D30   D(6,4,24,19)          180.0            estimate D2E/DX2                !
 ! D31   D(7,4,24,16)          180.0            estimate D2E/DX2                !
 ! D32   D(7,4,24,19)          -51.1032         estimate D2E/DX2                !
 ! D33   D(27,5,7,4)           -51.1032         estimate D2E/DX2                !
 ! D34   D(27,5,7,42)         -165.4227         estimate D2E/DX2                !
 ! D35   D(43,5,7,4)           128.6399         estimate D2E/DX2                !
 ! D36   D(43,5,7,42)           14.3203         estimate D2E/DX2                !
 ! D37   D(7,5,27,19)           51.1032         estimate D2E/DX2                !
 ! D38   D(7,5,27,30)          180.0            estimate D2E/DX2                !
 ! D39   D(43,5,27,19)        -128.5377         estimate D2E/DX2                !
 ! D40   D(43,5,27,30)           0.3591         estimate D2E/DX2                !
 ! D41   D(11,8,10,1)          180.0            estimate D2E/DX2                !
 ! D42   D(11,8,10,13)          51.1032         estimate D2E/DX2                !
 ! D43   D(38,8,10,1)          -51.1032         estimate D2E/DX2                !
 ! D44   D(38,8,10,13)        -180.0            estimate D2E/DX2                !
 ! D45   D(10,8,11,9)          180.0            estimate D2E/DX2                !
 ! D46   D(10,8,11,14)         -51.1032         estimate D2E/DX2                !
 ! D47   D(38,8,11,9)           51.1032         estimate D2E/DX2                !
 ! D48   D(38,8,11,14)         180.0            estimate D2E/DX2                !
 ! D49   D(12,9,11,8)         -180.0            estimate D2E/DX2                !
 ! D50   D(12,9,11,14)          51.1032         estimate D2E/DX2                !
 ! D51   D(37,9,11,8)          -51.1032         estimate D2E/DX2                !
 ! D52   D(37,9,11,14)         180.0            estimate D2E/DX2                !
 ! D53   D(11,9,12,15)         -51.1032         estimate D2E/DX2                !
 ! D54   D(11,9,12,36)        -180.0            estimate D2E/DX2                !
 ! D55   D(37,9,12,15)         180.0            estimate D2E/DX2                !
 ! D56   D(37,9,12,36)          51.1032         estimate D2E/DX2                !
 ! D57   D(1,10,13,22)          51.1032         estimate D2E/DX2                !
 ! D58   D(1,10,13,44)         180.0            estimate D2E/DX2                !
 ! D59   D(8,10,13,22)         180.0            estimate D2E/DX2                !
 ! D60   D(8,10,13,44)         -51.1032         estimate D2E/DX2                !
 ! D61   D(8,11,14,23)         180.0            estimate D2E/DX2                !
 ! D62   D(8,11,14,44)          51.1032         estimate D2E/DX2                !
 ! D63   D(9,11,14,23)         -51.1032         estimate D2E/DX2                !
 ! D64   D(9,11,14,44)         180.0            estimate D2E/DX2                !
 ! D65   D(9,12,15,23)          51.1032         estimate D2E/DX2                !
 ! D66   D(9,12,15,35)         180.0            estimate D2E/DX2                !
 ! D67   D(36,12,15,23)        180.0            estimate D2E/DX2                !
 ! D68   D(36,12,15,35)        -51.1032         estimate D2E/DX2                !
 ! D69   D(10,13,22,3)         -51.1032         estimate D2E/DX2                !
 ! D70   D(10,13,22,16)        180.0            estimate D2E/DX2                !
 ! D71   D(44,13,22,3)         180.0            estimate D2E/DX2                !
 ! D72   D(44,13,22,16)         51.1032         estimate D2E/DX2                !
 ! D73   D(10,13,44,14)         51.1032         estimate D2E/DX2                !
 ! D74   D(10,13,44,17)        180.0            estimate D2E/DX2                !
 ! D75   D(22,13,44,14)       -180.0            estimate D2E/DX2                !
 ! D76   D(22,13,44,17)        -51.1032         estimate D2E/DX2                !
 ! D77   D(11,14,23,15)         51.1032         estimate D2E/DX2                !
 ! D78   D(11,14,23,18)        180.0            estimate D2E/DX2                !
 ! D79   D(44,14,23,15)        180.0            estimate D2E/DX2                !
 ! D80   D(44,14,23,18)        -51.1032         estimate D2E/DX2                !
 ! D81   D(11,14,44,13)        -51.1032         estimate D2E/DX2                !
 ! D82   D(11,14,44,17)        180.0            estimate D2E/DX2                !
 ! D83   D(23,14,44,13)       -180.0            estimate D2E/DX2                !
 ! D84   D(23,14,44,17)         51.1032         estimate D2E/DX2                !
 ! D85   D(12,15,23,14)        -51.1032         estimate D2E/DX2                !
 ! D86   D(12,15,23,18)        180.0            estimate D2E/DX2                !
 ! D87   D(35,15,23,14)        180.0            estimate D2E/DX2                !
 ! D88   D(35,15,23,18)         51.1032         estimate D2E/DX2                !
 ! D89   D(24,16,22,3)          51.1032         estimate D2E/DX2                !
 ! D90   D(24,16,22,13)        180.0            estimate D2E/DX2                !
 ! D91   D(25,16,22,3)         180.0            estimate D2E/DX2                !
 ! D92   D(25,16,22,13)        -51.1032         estimate D2E/DX2                !
 ! D93   D(22,16,24,4)         -51.1032         estimate D2E/DX2                !
 ! D94   D(22,16,24,19)        180.0            estimate D2E/DX2                !
 ! D95   D(25,16,24,4)         180.0            estimate D2E/DX2                !
 ! D96   D(25,16,24,19)         51.1032         estimate D2E/DX2                !
 ! D97   D(22,16,25,17)         51.1032         estimate D2E/DX2                !
 ! D98   D(22,16,25,20)        180.0            estimate D2E/DX2                !
 ! D99   D(24,16,25,17)        180.0            estimate D2E/DX2                !
 ! D100  D(24,16,25,20)        -51.1032         estimate D2E/DX2                !
 ! D101  D(26,17,25,16)       -180.0            estimate D2E/DX2                !
 ! D102  D(26,17,25,20)         51.1032         estimate D2E/DX2                !
 ! D103  D(44,17,25,16)        -51.1032         estimate D2E/DX2                !
 ! D104  D(44,17,25,20)        180.0            estimate D2E/DX2                !
 ! D105  D(25,17,26,18)        180.0            estimate D2E/DX2                !
 ! D106  D(25,17,26,21)        -51.1032         estimate D2E/DX2                !
 ! D107  D(44,17,26,18)         51.1032         estimate D2E/DX2                !
 ! D108  D(44,17,26,21)        180.0            estimate D2E/DX2                !
 ! D109  D(25,17,44,13)         51.1032         estimate D2E/DX2                !
 ! D110  D(25,17,44,14)        180.0            estimate D2E/DX2                !
 ! D111  D(26,17,44,13)        180.0            estimate D2E/DX2                !
 ! D112  D(26,17,44,14)        -51.1032         estimate D2E/DX2                !
 ! D113  D(26,18,23,14)         51.1032         estimate D2E/DX2                !
 ! D114  D(26,18,23,15)        180.0            estimate D2E/DX2                !
 ! D115  D(34,18,23,14)        180.0            estimate D2E/DX2                !
 ! D116  D(34,18,23,15)        -51.1032         estimate D2E/DX2                !
 ! D117  D(23,18,26,17)        -51.1032         estimate D2E/DX2                !
 ! D118  D(23,18,26,21)        180.0            estimate D2E/DX2                !
 ! D119  D(34,18,26,17)        180.0            estimate D2E/DX2                !
 ! D120  D(34,18,26,21)         51.1032         estimate D2E/DX2                !
 ! D121  D(27,19,24,4)          51.1032         estimate D2E/DX2                !
 ! D122  D(27,19,24,16)        180.0            estimate D2E/DX2                !
 ! D123  D(28,19,24,4)         180.0            estimate D2E/DX2                !
 ! D124  D(28,19,24,16)        -51.1032         estimate D2E/DX2                !
 ! D125  D(24,19,27,5)         -51.1032         estimate D2E/DX2                !
 ! D126  D(24,19,27,30)        180.0            estimate D2E/DX2                !
 ! D127  D(28,19,27,5)         180.0            estimate D2E/DX2                !
 ! D128  D(28,19,27,30)         51.1032         estimate D2E/DX2                !
 ! D129  D(24,19,28,20)         51.1032         estimate D2E/DX2                !
 ! D130  D(24,19,28,31)        180.0            estimate D2E/DX2                !
 ! D131  D(27,19,28,20)        180.0            estimate D2E/DX2                !
 ! D132  D(27,19,28,31)        -51.1032         estimate D2E/DX2                !
 ! D133  D(28,20,25,16)         51.1032         estimate D2E/DX2                !
 ! D134  D(28,20,25,17)        180.0            estimate D2E/DX2                !
 ! D135  D(29,20,25,16)        180.0            estimate D2E/DX2                !
 ! D136  D(29,20,25,17)        -51.1032         estimate D2E/DX2                !
 ! D137  D(25,20,28,19)        -51.1032         estimate D2E/DX2                !
 ! D138  D(25,20,28,31)        180.0            estimate D2E/DX2                !
 ! D139  D(29,20,28,19)       -180.0            estimate D2E/DX2                !
 ! D140  D(29,20,28,31)         51.1032         estimate D2E/DX2                !
 ! D141  D(25,20,29,21)         51.1032         estimate D2E/DX2                !
 ! D142  D(25,20,29,32)        180.0            estimate D2E/DX2                !
 ! D143  D(28,20,29,21)        180.0            estimate D2E/DX2                !
 ! D144  D(28,20,29,32)        -51.1032         estimate D2E/DX2                !
 ! D145  D(29,21,26,17)         51.1032         estimate D2E/DX2                !
 ! D146  D(29,21,26,18)       -180.0            estimate D2E/DX2                !
 ! D147  D(33,21,26,17)        180.0            estimate D2E/DX2                !
 ! D148  D(33,21,26,18)        -51.1032         estimate D2E/DX2                !
 ! D149  D(26,21,29,20)        -51.1032         estimate D2E/DX2                !
 ! D150  D(26,21,29,32)        180.0            estimate D2E/DX2                !
 ! D151  D(33,21,29,20)        180.0            estimate D2E/DX2                !
 ! D152  D(33,21,29,32)         51.1032         estimate D2E/DX2                !
 --------------------------------------------------------------------------------
 Trust Radius=3.00D-01 FncErr=1.00D-07 GrdErr=1.00D-07
 Number of steps in this run=    264 maximum allowed number of steps=    264.
 GradGradGradGradGradGradGradGradGradGradGradGradGradGradGradGradGradGrad

                          Input orientation:                          
 ---------------------------------------------------------------------
 Center     Atomic      Atomic             Coordinates (Angstroms)
 Number     Number       Type             X           Y           Z
 ---------------------------------------------------------------------
      1          6           0        0.176948    1.023714    2.994967
      2          6           0        1.434948    0.297407    2.577810
      3          6           0        2.692948    1.023714    2.994967
      4          6           0        5.208948    1.023714    2.994967
      5          6           0        7.724948    1.023714    2.994967
      6          6           0        3.950948    0.297407    2.577810
      7          6           0        6.466948    0.297407    2.577810
      8          6           0       -1.081052    3.202634    2.994967
      9          6           0       -2.339052    5.381554    2.994967
     10          6           0        0.176948    2.476327    2.577810
     11          6           0       -1.081052    4.655247    2.577810
     12          6           0       -2.339052    6.834167    2.577810
     13          6           0        1.434948    3.202634    2.994967
     14          6           0        0.176948    5.381554    2.994967
     15          6           0       -1.081052    7.560474    2.994967
     16          6           0        3.950948    3.202634    2.994967
     17          6           0        2.692948    5.381554    2.994967
     18          6           0        1.434948    7.560474    2.994967
     19          6           0        6.466948    3.202634    2.994967
     20          6           0        5.208948    5.381554    2.994967
     21          6           0        3.950948    7.560474    2.994967
     22          6           0        2.692948    2.476327    2.577810
     23          6           0        0.176948    6.834167    2.577810
     24          6           0        5.208948    2.476327    2.577810
     25          6           0        3.950948    4.655247    2.577810
     26          6           0        2.692948    6.834167    2.577810
     27          6           0        7.724948    2.476327    2.577810
     28          6           0        6.466948    4.655247    2.577810
     29          6           0        5.208948    6.834167    2.577810
     30          1           0        8.615597    2.990544    2.873152
     31          1           0        7.357597    5.169464    2.873152
     32          1           0        6.099597    7.348383    2.873152
     33          1           0        3.950948    8.588906    2.699625
     34          1           0        1.434948    8.588906    2.699625
     35          1           0       -1.081052    8.588906    2.699625
     36          1           0       -3.229701    7.348383    2.873152
     37          1           0       -3.229701    4.867338    2.699625
     38          1           0       -1.971701    2.688418    2.699625
     39          1           0       -0.713701    0.509498    2.699625
     40          1           0        1.434948   -0.731025    2.873152
     41          1           0        3.950948   -0.731025    2.873152
     42          1           0        6.495217   -0.604546    3.152772
     43          1           0        8.373408    0.350713    3.515994
     44         30           0        1.434948    4.655247    2.577810
 ---------------------------------------------------------------------
                    Distance matrix (angstroms):
                    1          2          3          4          5
     1  C    0.000000
     2  C    1.511326   0.000000
     3  C    2.516000   1.511326   0.000000
     4  C    5.032000   3.865827   2.516000   0.000000
     5  C    7.548000   6.345521   5.032000   2.516000   0.000000
     6  C    3.865827   2.516000   1.511326   1.511326   3.865827
     7  C    6.345521   5.032000   3.865827   1.511326   1.511326
     8  C    2.516000   3.865827   4.357840   6.656710   9.071567
     9  C    5.032000   6.345521   6.656710   8.715680  10.966990
    10  C    1.511326   2.516000   2.935023   5.254058   7.697818
    11  C    3.865827   5.032000   5.254058   7.275036   9.534552
    12  C    6.345521   7.548000   7.697818   9.534552  11.628391
    13  C    2.516000   2.935023   2.516000   4.357840   6.656710
    14  C    4.357840   5.254058   5.032000   6.656710   8.715680
    15  C    6.656710   7.697818   7.548000   9.071567  10.966990
    16  C    4.357840   3.865827   2.516000   2.516000   4.357840
    17  C    5.032000   5.254058   4.357840   5.032000   6.656710
    18  C    6.656710   7.275036   6.656710   7.548000   9.071567
    19  C    6.656710   5.825409   4.357840   2.516000   2.516000
    20  C    6.656710   6.345521   5.032000   4.357840   5.032000
    21  C    7.548000   7.697818   6.656710   6.656710   7.548000
    22  C    2.935023   2.516000   1.511326   2.935023   5.254058
    23  C    5.825409   6.656710   6.345521   7.697818   9.534552
    24  C    5.254058   4.357840   2.935023   1.511326   2.935023
    25  C    5.254058   5.032000   3.865827   3.865827   5.254058
    26  C    6.345521   6.656710   5.825409   6.345521   7.697818
    27  C    7.697818   6.656710   5.254058   2.935023   1.511326
    28  C    7.275036   6.656710   5.254058   3.865827   3.865827
    29  C    7.697818   7.548000   6.345521   5.825409   6.345521
    30  H    8.665682   7.674759   6.241877   3.935545   2.162524
    31  H    8.292394   7.674759   6.241877   4.671056   4.163775
    32  H    8.665682   8.459458   7.184813   6.388234   6.531313
    33  H    8.459458   8.665682   7.674759   7.674759   8.459458
    34  H    7.674759   8.292394   7.674759   8.459458   9.842940
    35  H    7.674759   8.665682   8.459458   9.842940  11.613139
    36  H    7.184813   8.459458   8.665682  10.546425  12.649925
    37  H    5.144504   6.531313   7.066713   9.277471  11.613139
    38  H    2.734073   4.163775   4.961594   7.377003   9.842940
    39  H    1.070000   2.162524   3.457875   5.952261   8.459458
    40  H    2.162524   1.070000   2.162524   4.163775   6.531313
    41  H    4.163775   2.734073   2.162524   2.162524   4.163775
    42  H    6.526612   5.172082   4.139249   2.081015   2.046551
    43  H    8.240531   7.001804   5.743868   3.276920   1.070000
    44  Zn   3.865827   4.357840   3.865827   5.254058   7.275036
                    6          7          8          9         10
     6  C    0.000000
     7  C    2.516000   0.000000
     8  C    5.825409   8.098559   0.000000
     9  C    8.098559  10.176846   2.516000   0.000000
    10  C    4.357840   6.656710   1.511326   3.865827   0.000000
    11  C    6.656710   8.715680   1.511326   1.511326   2.516000
    12  C    9.071567  10.966990   3.865827   1.511326   5.032000
    13  C    3.865827   5.825409   2.516000   4.357840   1.511326
    14  C    6.345521   8.098559   2.516000   2.516000   2.935023
    15  C    8.845743  10.483246   4.357840   2.516000   5.254058
    16  C    2.935023   3.865827   5.032000   6.656710   3.865827
    17  C    5.254058   6.345521   4.357840   5.032000   3.865827
    18  C    7.697818   8.845743   5.032000   4.357840   5.254058
    19  C    3.865827   2.935023   7.548000   9.071567   6.345521
    20  C    5.254058   5.254058   6.656710   7.548000   5.825409
    21  C    7.275036   7.697818   6.656710   6.656710   6.345521
    22  C    2.516000   4.357840   3.865827   5.825409   2.516000
    23  C    7.548000   9.071567   3.865827   2.935023   4.357840
    24  C    2.516000   2.516000   6.345521   8.098559   5.032000
    25  C    4.357840   5.032000   5.254058   6.345521   4.357840
    26  C    6.656710   7.548000   5.254058   5.254058   5.032000
    27  C    4.357840   2.516000   8.845743  10.483246   7.548000
    28  C    5.032000   4.357840   7.697818   8.845743   6.656710
    29  C    6.656710   6.656710   7.275036   7.697818   6.656710
    30  H    5.394363   3.457875   9.699733  11.213211   8.459458
    31  H    5.952261   4.961594   8.665682   9.699733   7.674759
    32  H    7.377003   7.066713   8.292394   8.665682   7.674759
    33  H    8.292394   8.665682   7.377003   7.066713   7.184813
    34  H    8.665682   9.699733   5.952261   4.961594   6.241877
    35  H    9.699733  11.213211   5.394363   3.457875   6.241877
    36  H   10.068029  11.992851   4.671056   2.162524   5.952261
    37  H    8.512392  10.720266   2.734073   1.070000   4.163775
    38  H    6.388234   8.771691   1.070000   2.734073   2.162524
    39  H    4.671056   7.184813   2.734073   5.144504   2.162524
    40  H    2.734073   5.144504   4.671056   7.184813   3.457875
    41  H    1.070000   2.734073   6.388234   8.771691   4.961594
    42  H    2.759965   1.070000   8.480529  10.672516   7.052864
    43  H    4.521192   2.125469   9.888970  11.846418   8.519412
    44  Zn   5.032000   6.656710   2.935023   3.865827   2.516000
                   11         12         13         14         15
    11  C    0.000000
    12  C    2.516000   0.000000
    13  C    2.935023   5.254058   0.000000
    14  C    1.511326   2.935023   2.516000   0.000000
    15  C    2.935023   1.511326   5.032000   2.516000   0.000000
    16  C    5.254058   7.275036   2.516000   4.357840   6.656710
    17  C    3.865827   5.254058   2.516000   2.516000   4.357840
    18  C    3.865827   3.865827   4.357840   2.516000   2.516000
    19  C    7.697818   9.534552   5.032000   6.656710   8.715680
    20  C    6.345521   7.697818   4.357840   5.032000   6.656710
    21  C    5.825409   6.345521   5.032000   4.357840   5.032000
    22  C    4.357840   6.656710   1.511326   3.865827   6.345521
    23  C    2.516000   2.516000   3.865827   1.511326   1.511326
    24  C    6.656710   8.715680   3.865827   5.825409   8.098559
    25  C    5.032000   6.656710   2.935023   3.865827   5.825409
    26  C    4.357840   5.032000   3.865827   2.935023   3.865827
    27  C    9.071567  10.966990   6.345521   8.098559  10.176846
    28  C    7.548000   9.071567   5.254058   6.345521   8.098559
    29  C    6.656710   7.548000   5.254058   5.254058   6.345521
    30  H    9.842940  11.613139   7.184813   8.771691  10.720266
    31  H    8.459458   9.842940   6.241877   7.184813   8.771691
    32  H    7.674759   8.459458   6.241877   6.241877   7.184813
    33  H    6.388234   6.531313   5.952261   4.961594   5.144504
    34  H    4.671056   4.163775   5.394363   3.457875   2.734073
    35  H    3.935545   2.162524   5.952261   3.457875   1.070000
    36  H    3.457875   1.070000   6.241877   3.935545   2.162524
    37  H    2.162524   2.162524   4.961594   3.457875   3.457875
    38  H    2.162524   4.163775   3.457875   3.457875   4.961594
    39  H    4.163775   6.531313   3.457875   4.961594   7.066713
    40  H    5.952261   8.459458   3.935545   6.241877   8.665682
    41  H    7.377003   9.842940   4.671056   7.184813   9.699733
    42  H    9.240988  11.563276   6.334497   8.705103  11.139673
    43  H   10.430533  12.556757   7.519784   9.631344  11.901215
    44  Zn   2.516000   4.357840   1.511326   1.511326   3.865827
                   16         17         18         19         20
    16  C    0.000000
    17  C    2.516000   0.000000
    18  C    5.032000   2.516000   0.000000
    19  C    2.516000   4.357840   6.656710   0.000000
    20  C    2.516000   2.516000   4.357840   2.516000   0.000000
    21  C    4.357840   2.516000   2.516000   5.032000   2.516000
    22  C    1.511326   2.935023   5.254058   3.865827   3.865827
    23  C    5.254058   2.935023   1.511326   7.275036   5.254058
    24  C    1.511326   3.865827   6.345521   1.511326   2.935023
    25  C    1.511326   1.511326   3.865827   2.935023   1.511326
    26  C    3.865827   1.511326   1.511326   5.254058   2.935023
    27  C    3.865827   5.825409   8.098559   1.511326   3.865827
    28  C    2.935023   3.865827   5.825409   1.511326   1.511326
    29  C    3.865827   2.935023   3.865827   3.865827   1.511326
    30  H    4.671056   6.388234   8.512392   2.162524   4.163775
    31  H    3.935545   4.671056   6.388234   2.162524   2.162524
    32  H    4.671056   3.935545   4.671056   4.163775   2.162524
    33  H    5.394363   3.457875   2.734073   5.952261   3.457875
    34  H    5.952261   3.457875   1.070000   7.377003   4.961594
    35  H    7.377003   4.961594   2.734073   9.277471   7.066713
    36  H    8.292394   6.241877   4.671056  10.546425   8.665682
    37  H    7.377003   5.952261   5.394363   9.842940   8.459458
    38  H    5.952261   5.394363   5.952261   8.459458   7.674759
    39  H    5.394363   5.952261   7.377003   7.674759   7.674759
    40  H    4.671056   6.241877   8.292394   6.388234   7.184813
    41  H    3.935545   6.241877   8.665682   4.671056   6.241877
    42  H    4.581793   7.093345   9.607225   3.810554   6.124768
    43  H    5.288012   7.605817  10.019698   3.469800   5.966124
    44  Zn   2.935023   1.511326   2.935023   5.254058   3.865827
                   21         22         23         24         25
    21  C    0.000000
    22  C    5.254058   0.000000
    23  C    3.865827   5.032000   0.000000
    24  C    5.254058   2.516000   6.656710   0.000000
    25  C    2.935023   2.516000   4.357840   2.516000   0.000000
    26  C    1.511326   4.357840   2.516000   5.032000   2.516000
    27  C    6.345521   5.032000   8.715680   2.516000   4.357840
    28  C    3.865827   4.357840   6.656710   2.516000   2.516000
    29  C    1.511326   5.032000   5.032000   4.357840   2.516000
    30  H    6.531313   5.952261   9.277471   3.457875   4.961594
    31  H    4.163775   5.394363   7.377003   3.457875   3.457875
    32  H    2.162524   5.952261   5.952261   4.961594   3.457875
    33  H    1.070000   6.241877   4.163775   6.241877   3.935545
    34  H    2.734073   6.241877   2.162524   7.184813   4.671056
    35  H    5.144504   7.184813   2.162524   8.771691   6.388234
    36  H    7.184813   7.674759   3.457875   9.748587   7.674759
    37  H    7.674759   6.388234   3.935545   8.771691   7.184813
    38  H    7.674759   4.671056   4.671056   7.184813   6.241877
    39  H    8.459458   3.935545   6.388234   6.241877   6.241877
    40  H    8.665682   3.457875   7.674759   4.961594   5.952261
    41  H    8.292394   3.457875   8.459458   3.457875   5.394363
    42  H    8.553698   4.927435   9.776787   3.387750   5.871057
    43  H    8.474094   6.137267  10.492727   3.925841   6.242384
    44  Zn   3.865827   2.516000   2.516000   4.357840   2.516000
                   26         27         28         29         30
    26  C    0.000000
    27  C    6.656710   0.000000
    28  C    4.357840   2.516000   0.000000
    29  C    2.516000   5.032000   2.516000   0.000000
    30  H    7.066713   1.070000   2.734073   5.144504   0.000000
    31  H    4.961594   2.734073   1.070000   2.734073   2.516000
    32  H    3.457875   5.144504   2.734073   1.070000   5.032000
    33  H    2.162524   7.184813   4.671056   2.162524   7.289082
    34  H    2.162524   8.771691   6.388234   4.163775   9.106783
    35  H    4.163775  10.720266   8.512392   6.531313  11.198070
    36  H    5.952261  11.992851  10.068029   8.459458  12.621483
    37  H    6.241877  11.213211   9.699733   8.665682  11.994313
    38  H    6.241877   9.699733   8.665682   8.292394  10.593029
    39  H    7.184813   8.665682   8.292394   8.665682   9.655127
    40  H    7.674759   7.066713   7.377003   8.459458   8.087755
    41  H    7.674759   4.961594   5.952261   7.674759   5.967329
    42  H    8.373905   3.366689   5.291201   7.570966   4.183164
    43  H    8.670812   2.412245   4.800395   7.275244   2.727747
    44  Zn   2.516000   6.656710   5.032000   4.357840   7.377003
                   31         32         33         34         35
    31  H    0.000000
    32  H    2.516000   0.000000
    33  H    4.829902   2.487107   0.000000
    34  H    6.841087   4.829902   2.516000   0.000000
    35  H    9.106783   7.289082   5.032000   2.516000   0.000000
    36  H   10.809188   9.329297   7.289082   4.829902   2.487107
    37  H   10.593029   9.655127   8.087755   5.967329   4.297297
    38  H    9.655127   9.321547   8.360235   6.813297   5.967329
    39  H    9.321547   9.655127   9.329297   8.360235   8.087755
    40  H    8.360235   9.329297   9.655127   9.321547   9.655127
    41  H    6.813297   8.360235   9.321547   9.655127  10.593029
    42  H    5.844747   7.967671   9.549775  10.503867  11.921609
    43  H    4.966435   7.385855   9.385757  10.801690  12.566666
    44  Zn   5.952261   5.394363   4.671056   3.935545   4.671056
                   36         37         38         39         40
    36  H    0.000000
    37  H    2.487107   0.000000
    38  H    4.829902   2.516000   0.000000
    39  H    7.289082   5.032000   2.516000   0.000000
    40  H    9.329297   7.289082   4.829902   2.487107   0.000000
    41  H   10.809188   9.106783   6.841087   4.829902   2.516000
    42  H   12.565878  11.167850   9.096024   7.308552   5.069567
    43  H   13.565130  12.477920  10.637321   9.125087   7.051640
    44  Zn   5.394363   4.671056   3.935545   4.671056   5.394363
                   41         42         43         44
    41  H    0.000000
    42  H    2.562712   0.000000
    43  H    4.597995   2.138235   0.000000
    44  Zn   5.952261   7.321361   8.218967   0.000000
 Stoichiometry    C29H14Zn
 Framework group  C1[X(C29H14Zn)]
 Deg. of freedom   126
 Full point group                 C1      NOp   1
 Largest Abelian subgroup         C1      NOp   1
 Largest concise Abelian subgroup C1      NOp   1
                         Standard orientation:                         
 ---------------------------------------------------------------------
 Center     Atomic      Atomic             Coordinates (Angstroms)
 Number     Number       Type             X           Y           Z
 ---------------------------------------------------------------------
      1          6           0       -0.561801   -3.774051    0.224817
      2          6           0        0.889760   -3.772458   -0.195982
      3          6           0        1.616031   -2.514178    0.220390
      4          6           0        3.793864   -1.254304    0.215963
      5          6           0        5.971696    0.005570    0.211536
      6          6           0        3.067593   -2.512585   -0.200409
      7          6           0        5.245425   -1.252711   -0.204836
      8          6           0       -2.741793   -2.517927    0.231321
      9          6           0       -4.921785   -1.261802    0.237824
     10          6           0       -1.290232   -2.516334   -0.189478
     11          6           0       -3.470224   -1.260209   -0.182974
     12          6           0       -5.650216   -0.004085   -0.176470
     13          6           0       -0.563961   -1.258053    0.226894
     14          6           0       -2.743953   -0.001929    0.233397
     15          6           0       -4.923945    1.254196    0.239901
     16          6           0        1.613872    0.001820    0.222466
     17          6           0       -0.566120    1.257945    0.228970
     18          6           0       -2.746112    2.514070    0.235474
     19          6           0        3.791704    1.261694    0.218039
     20          6           0        1.611712    2.517819    0.224543
     21          6           0       -0.568279    3.773943    0.231047
     22          6           0        0.887601   -1.256460   -0.193905
     23          6           0       -3.472383    1.255789   -0.180897
     24          6           0        3.065433    0.003414   -0.198332
     25          6           0        0.885441    1.259538   -0.191828
     26          6           0       -1.294551    2.515663   -0.185325
     27          6           0        5.243266    1.263287   -0.202759
     28          6           0        3.063274    2.519412   -0.196255
     29          6           0        0.883282    3.775536   -0.189752
     30          1           0        5.757457    2.154135    0.092027
     31          1           0        3.577465    3.410259    0.098530
     32          1           0        1.397473    4.666384    0.105034
     33          1           0       -1.083999    4.664392   -0.062269
     34          1           0       -3.261832    3.404518   -0.057842
     35          1           0       -5.439664    2.144645   -0.053415
     36          1           0       -6.677903   -0.005213    0.121450
     37          1           0       -5.435976   -2.152650   -0.056961
     38          1           0       -3.255984   -3.408774   -0.063465
     39          1           0       -1.075992   -4.664899   -0.069969
     40          1           0        1.405480   -4.662907    0.097334
     41          1           0        3.583313   -3.403033    0.092907
     42          1           0        5.722983   -2.019754    0.368299
     43          1           0        6.871305   -0.252692    0.730095
     44         30           0       -1.292391   -0.000336   -0.187401
 ---------------------------------------------------------------------
 Rotational constants (GHZ):      0.2989733      0.1302299      0.0913205
 Standard basis: VSTO-6G (5D, 7F)
 There are   134 symmetry adapted cartesian basis functions of A   symmetry.
 There are   134 symmetry adapted basis functions of A   symmetry.
   134 basis functions,   804 primitive gaussians,   134 cartesian basis functions
    66 alpha electrons       66 beta electrons
       nuclear repulsion energy      1198.5047922475 Hartrees.
 Integral buffers will be    262144 words long.
 Regular integral format.
 Two-electron integral symmetry is turned off.
 Do NDO integrals.
 One-electron integrals computed using PRISM.
 NBasis=   134 RedAO= F EigKep=  0.00D+00  NBF=   134
 NBsUse=   134 1.00D-04 EigRej=  0.00D+00 NBFU=   134
 Nonelectrostatic core Hamiltonian diagonalized for initial guess.
 Keep J ints in memory in canonical form, NReq=1078926.
 Gradient too large for Newton-Raphson -- use scaled steepest descent instead.
     Accept linear search using points  5 and  6.
 Gradient too large for Newton-Raphson -- use scaled steepest descent instead.
     Accept linear search using points  2 and  3.
 Gradient too large for Newton-Raphson -- use scaled steepest descent instead.
     Minimum is close to point  3 DX=  1.30D-01 DF= -3.59D-04 DXR=  6.76D-02 DFR=  4.61D-03 which will be used.
 Gradient too large for Newton-Raphson -- use scaled steepest descent instead.
     Accept linear search using points  1 and  2.
 Gradient too large for Newton-Raphson -- use scaled steepest descent instead.
     Accept linear search using points  1 and  2.
 Gradient too large for Newton-Raphson -- use scaled steepest descent instead.
     Accept linear search using points  1 and  2.
 Gradient too large for Newton-Raphson -- use scaled steepest descent instead.
     Minimum is close to point  2 DX=  1.18D-01 DF= -3.84D-05 DXR=  8.97D-02 DFR=  8.10D-03 which will be used.
 Gradient too large for Newton-Raphson -- use scaled steepest descent instead.
 Gradient too large for Newton-Raphson -- use scaled steepest descent instead.
     Accept linear search using points  1 and  2.
 Gradient too large for Newton-Raphson -- use scaled steepest descent instead.
     Accept linear search using points  1 and  2.
     Minimum is close to point  2 DX= -1.04D-01 DF= -1.45D-05 DXR=  8.70D-02 DFR=  1.10D-02 which will be used.
 Gradient too large for Newton-Raphson -- use scaled steepest descent instead.
     Accept linear search using points  1 and  2.
 Gradient too large for Newton-Raphson -- use scaled steepest descent instead.
 Gradient too large for Newton-Raphson -- use scaled steepest descent instead.
     Accept linear search using points  1 and  2.
     Minimum is close to point  2 DX= -3.99D-02 DF= -5.94D-07 DXR=  3.44D-02 DFR=  1.60D-03 which will be used.
 LinEq1:  Iter=  0 NonCon=     1 RMS=2.67D-04 Max=5.01D-03 NDo=     1
 AX will form     1 AO Fock derivatives at one time.
 LinEq1:  Iter=  1 NonCon=     1 RMS=1.92D-04 Max=4.77D-03 NDo=     1
 LinEq1:  Iter=  2 NonCon=     1 RMS=2.58D-05 Max=5.78D-04 NDo=     1
 LinEq1:  Iter=  3 NonCon=     1 RMS=9.51D-06 Max=1.81D-04 NDo=     1
 LinEq1:  Iter=  4 NonCon=     1 RMS=4.05D-06 Max=1.23D-04 NDo=     1
 LinEq1:  Iter=  5 NonCon=     1 RMS=1.59D-06 Max=3.68D-05 NDo=     1
 LinEq1:  Iter=  6 NonCon=     1 RMS=6.18D-07 Max=1.46D-05 NDo=     1
 LinEq1:  Iter=  7 NonCon=     1 RMS=2.51D-07 Max=4.24D-06 NDo=     1
 LinEq1:  Iter=  8 NonCon=     1 RMS=1.17D-07 Max=2.25D-06 NDo=     1
 LinEq1:  Iter=  9 NonCon=     1 RMS=4.96D-08 Max=1.18D-06 NDo=     1
 LinEq1:  Iter= 10 NonCon=     1 RMS=1.88D-08 Max=2.64D-07 NDo=     1
 LinEq1:  Iter= 11 NonCon=     0 RMS=5.67D-09 Max=8.63D-08 NDo=     1
 Linear equations converged to 9.474D-09 9.474D-08 after    11 iterations.
     Accept linear search using points  1 and  2.
     Minimum is close to point  2 DX= -3.82D-02 DF= -1.07D-06 DXR=  3.97D-02 DFR=  1.63D-03 which will be used.
 LinEq1:  Iter=  0 NonCon=     1 RMS=6.81D-05 Max=1.22D-03 NDo=     1
 LinEq1:  Iter=  1 NonCon=     1 RMS=2.89D-05 Max=5.93D-04 NDo=     1
 LinEq1:  Iter=  2 NonCon=     1 RMS=1.02D-05 Max=3.30D-04 NDo=     1
 LinEq1:  Iter=  3 NonCon=     1 RMS=3.43D-06 Max=8.72D-05 NDo=     1
 LinEq1:  Iter=  4 NonCon=     1 RMS=1.48D-06 Max=3.69D-05 NDo=     1
 LinEq1:  Iter=  5 NonCon=     1 RMS=6.43D-07 Max=1.02D-05 NDo=     1
 LinEq1:  Iter=  6 NonCon=     1 RMS=2.78D-07 Max=5.37D-06 NDo=     1
 LinEq1:  Iter=  7 NonCon=     1 RMS=8.55D-08 Max=1.46D-06 NDo=     1
 LinEq1:  Iter=  8 NonCon=     1 RMS=2.95D-08 Max=6.06D-07 NDo=     1
 LinEq1:  Iter=  9 NonCon=     1 RMS=1.29D-08 Max=3.85D-07 NDo=     1
 LinEq1:  Iter= 10 NonCon=     0 RMS=4.29D-09 Max=8.03D-08 NDo=     1
 Linear equations converged to 9.474D-09 9.474D-08 after    10 iterations.
     Minimum is close to point  2 DX=  2.24D-03 DF= -1.52D-10 DXR=  2.24D-03 DFR=  5.02D-06 which will be used.
 LinEq1:  Iter=  0 NonCon=     1 RMS=2.87D-06 Max=5.14D-05 NDo=     1
 LinEq1:  Iter=  1 NonCon=     1 RMS=1.94D-06 Max=9.02D-05 NDo=     1
 LinEq1:  Iter=  2 NonCon=     1 RMS=7.07D-07 Max=1.00D-05 NDo=     1
 LinEq1:  Iter=  3 NonCon=     1 RMS=3.30D-07 Max=8.29D-06 NDo=     1
 LinEq1:  Iter=  4 NonCon=     1 RMS=1.11D-07 Max=2.42D-06 NDo=     1
 LinEq1:  Iter=  5 NonCon=     1 RMS=3.84D-08 Max=7.76D-07 NDo=     1
 LinEq1:  Iter=  6 NonCon=     1 RMS=1.34D-08 Max=2.60D-07 NDo=     1
 LinEq1:  Iter=  7 NonCon=     1 RMS=3.78D-09 Max=4.66D-08 NDo=     1
 LinEq1:  Iter=  8 NonCon=     1 RMS=1.39D-09 Max=3.05D-08 NDo=     1
 LinEq1:  Iter=  9 NonCon=     1 RMS=6.46D-10 Max=1.77D-08 NDo=     1
 LinEq1:  Iter= 10 NonCon=     0 RMS=3.01D-10 Max=7.20D-09 NDo=     1
 Linear equations converged to 1.191D-09 1.191D-08 after    10 iterations.
 Incorrect curvature in search direction -- initial direction reversed.
     Note:  rotation exceeds Pi/2.
     Note:  rotation exceeds Pi/2.
     Note:  rotation exceeds Pi/2.
     Note:  rotation exceeds Pi/2.
     Note:  rotation exceeds Pi/2.
     Note:  rotation exceeds Pi/2.
     Note:  rotation exceeds Pi/2.
     Minimum is close to point  6 DX=  0.00D+00 DF=  0.00D+00 DXR=  0.00D+00 DFR=  0.00D+00 which will be used.
 LinEq1:  Iter=  0 NonCon=     1 RMS=8.08D-05 Max=1.06D-03 NDo=     1
 LinEq1:  Iter=  1 NonCon=     1 RMS=4.12D-05 Max=1.26D-03 NDo=     1
 LinEq1:  Iter=  2 NonCon=     1 RMS=1.40D-05 Max=2.68D-04 NDo=     1
 LinEq1:  Iter=  3 NonCon=     1 RMS=8.57D-06 Max=3.30D-04 NDo=     1
 LinEq1:  Iter=  4 NonCon=     1 RMS=2.71D-06 Max=5.05D-05 NDo=     1
 LinEq1:  Iter=  5 NonCon=     1 RMS=1.05D-06 Max=1.59D-05 NDo=     1
 LinEq1:  Iter=  6 NonCon=     1 RMS=3.25D-07 Max=5.77D-06 NDo=     1
 LinEq1:  Iter=  7 NonCon=     1 RMS=1.18D-07 Max=1.80D-06 NDo=     1
 LinEq1:  Iter=  8 NonCon=     1 RMS=4.75D-08 Max=9.17D-07 NDo=     1
 LinEq1:  Iter=  9 NonCon=     1 RMS=1.95D-08 Max=4.86D-07 NDo=     1
 LinEq1:  Iter= 10 NonCon=     1 RMS=8.12D-09 Max=1.73D-07 NDo=     1
 LinEq1:  Iter= 11 NonCon=     0 RMS=3.54D-09 Max=9.40D-08 NDo=     1
 Linear equations converged to 9.474D-09 9.474D-08 after    11 iterations.
 LinEq1:  Iter=  0 NonCon=     1 RMS=8.24D-05 Max=1.37D-03 NDo=     1
 LinEq1:  Iter=  1 NonCon=     1 RMS=4.04D-05 Max=1.07D-03 NDo=     1
 LinEq1:  Iter=  2 NonCon=     1 RMS=1.31D-05 Max=2.24D-04 NDo=     1
 LinEq1:  Iter=  3 NonCon=     1 RMS=7.99D-06 Max=3.11D-04 NDo=     1
 LinEq1:  Iter=  4 NonCon=     1 RMS=2.45D-06 Max=4.64D-05 NDo=     1
 LinEq1:  Iter=  5 NonCon=     1 RMS=1.00D-06 Max=1.63D-05 NDo=     1
 LinEq1:  Iter=  6 NonCon=     1 RMS=3.54D-07 Max=5.52D-06 NDo=     1
 LinEq1:  Iter=  7 NonCon=     1 RMS=1.27D-07 Max=2.35D-06 NDo=     1
 LinEq1:  Iter=  8 NonCon=     1 RMS=4.50D-08 Max=7.89D-07 NDo=     1
 LinEq1:  Iter=  9 NonCon=     1 RMS=1.91D-08 Max=4.19D-07 NDo=     1
 LinEq1:  Iter= 10 NonCon=     1 RMS=6.47D-09 Max=1.16D-07 NDo=     1
 LinEq1:  Iter= 11 NonCon=     0 RMS=2.12D-09 Max=3.28D-08 NDo=     1
 Linear equations converged to 9.474D-09 9.474D-08 after    11 iterations.
     Minimum is close to point  2 DX=  8.86D-02 DF= -3.50D-07 DXR=  8.14D-02 DFR=  6.67D-03 which will be used.
 LinEq1:  Iter=  0 NonCon=     1 RMS=1.75D-05 Max=2.68D-04 NDo=     1
 LinEq1:  Iter=  1 NonCon=     1 RMS=8.38D-06 Max=2.13D-04 NDo=     1
 LinEq1:  Iter=  2 NonCon=     1 RMS=2.17D-06 Max=4.35D-05 NDo=     1
 LinEq1:  Iter=  3 NonCon=     1 RMS=1.07D-06 Max=3.23D-05 NDo=     1
 LinEq1:  Iter=  4 NonCon=     1 RMS=3.89D-07 Max=9.80D-06 NDo=     1
 LinEq1:  Iter=  5 NonCon=     1 RMS=2.00D-07 Max=5.35D-06 NDo=     1
 LinEq1:  Iter=  6 NonCon=     1 RMS=6.91D-08 Max=1.44D-06 NDo=     1
 LinEq1:  Iter=  7 NonCon=     1 RMS=2.66D-08 Max=7.55D-07 NDo=     1
 LinEq1:  Iter=  8 NonCon=     1 RMS=7.74D-09 Max=1.66D-07 NDo=     1
 LinEq1:  Iter=  9 NonCon=     0 RMS=3.07D-09 Max=5.55D-08 NDo=     1
 Linear equations converged to 6.805D-09 6.805D-08 after     9 iterations.
     Accept linear search using points  1 and  2.
     Minimum is close to point  2 DX= -5.82D-03 DF= -4.72D-11 DXR=  5.86D-03 DFR=  3.41D-05 which will be used.
 LinEq1:  Iter=  0 NonCon=     1 RMS=1.96D-06 Max=3.76D-05 NDo=     1
 LinEq1:  Iter=  1 NonCon=     1 RMS=1.14D-06 Max=2.81D-05 NDo=     1
 LinEq1:  Iter=  2 NonCon=     1 RMS=4.92D-07 Max=1.43D-05 NDo=     1
 LinEq1:  Iter=  3 NonCon=     1 RMS=2.12D-07 Max=4.19D-06 NDo=     1
 LinEq1:  Iter=  4 NonCon=     1 RMS=6.55D-08 Max=1.35D-06 NDo=     1
 LinEq1:  Iter=  5 NonCon=     1 RMS=2.51D-08 Max=7.47D-07 NDo=     1
 LinEq1:  Iter=  6 NonCon=     1 RMS=8.94D-09 Max=2.47D-07 NDo=     1
 LinEq1:  Iter=  7 NonCon=     1 RMS=3.87D-09 Max=9.51D-08 NDo=     1
 LinEq1:  Iter=  8 NonCon=     1 RMS=1.61D-09 Max=4.16D-08 NDo=     1
 LinEq1:  Iter=  9 NonCon=     1 RMS=6.54D-10 Max=9.55D-09 NDo=     1
 LinEq1:  Iter= 10 NonCon=     0 RMS=2.06D-10 Max=2.55D-09 NDo=     1
 Linear equations converged to 7.488D-10 7.488D-09 after    10 iterations.
 LinEq1:  Iter=  0 NonCon=     1 RMS=5.56D-07 Max=6.87D-06 NDo=     1
 LinEq1:  Iter=  1 NonCon=     1 RMS=2.78D-07 Max=6.97D-06 NDo=     1
 LinEq1:  Iter=  2 NonCon=     1 RMS=1.02D-07 Max=2.04D-06 NDo=     1
 LinEq1:  Iter=  3 NonCon=     1 RMS=3.96D-08 Max=6.90D-07 NDo=     1
 LinEq1:  Iter=  4 NonCon=     1 RMS=1.76D-08 Max=5.25D-07 NDo=     1
 LinEq1:  Iter=  5 NonCon=     1 RMS=7.28D-09 Max=2.06D-07 NDo=     1
 LinEq1:  Iter=  6 NonCon=     1 RMS=3.03D-09 Max=8.94D-08 NDo=     1
 LinEq1:  Iter=  7 NonCon=     1 RMS=1.02D-09 Max=2.23D-08 NDo=     1
 LinEq1:  Iter=  8 NonCon=     1 RMS=3.14D-10 Max=8.34D-09 NDo=     1
 LinEq1:  Iter=  9 NonCon=     1 RMS=1.22D-10 Max=2.70D-09 NDo=     1
 LinEq1:  Iter= 10 NonCon=     0 RMS=6.44D-11 Max=1.20D-09 NDo=     1
 Linear equations converged to 2.404D-10 2.404D-09 after    10 iterations.
 LinEq1:  Iter=  0 NonCon=     1 RMS=5.68D-08 Max=1.05D-06 NDo=     1
 LinEq1:  Iter=  1 NonCon=     1 RMS=3.40D-08 Max=8.90D-07 NDo=     1
 LinEq1:  Iter=  2 NonCon=     1 RMS=1.45D-08 Max=4.30D-07 NDo=     1
 LinEq1:  Iter=  3 NonCon=     1 RMS=4.78D-09 Max=9.55D-08 NDo=     1
 LinEq1:  Iter=  4 NonCon=     1 RMS=1.91D-09 Max=5.61D-08 NDo=     1
 LinEq1:  Iter=  5 NonCon=     1 RMS=7.46D-10 Max=2.06D-08 NDo=     1
 LinEq1:  Iter=  6 NonCon=     1 RMS=2.74D-10 Max=8.32D-09 NDo=     1
 LinEq1:  Iter=  7 NonCon=     1 RMS=1.13D-10 Max=2.36D-09 NDo=     1
 LinEq1:  Iter=  8 NonCon=     1 RMS=4.54D-11 Max=1.09D-09 NDo=     1
 LinEq1:  Iter=  9 NonCon=     1 RMS=1.78D-11 Max=3.43D-10 NDo=     1
 LinEq1:  Iter= 10 NonCon=     0 RMS=8.13D-12 Max=1.15D-10 NDo=     1
 Linear equations converged to 2.172D-11 2.172D-10 after    10 iterations.
 SCF Done:  E(RPM6) =   1.42080055821     a.u. after   23 cycles
            Convg  =    0.8544D-06                   152 Fock formations.
              S**2 =  0.0000                  -V/T =  1.0157

 **********************************************************************

            Population analysis using the SCF density.

 **********************************************************************

 Orbital symmetries:
       Occupied  (A) (A) (A) (A) (A) (A) (A) (A) (A) (A) (A) (A)
                 (A) (A) (A) (A) (A) (A) (A) (A) (A) (A) (A) (A)
                 (A) (A) (A) (A) (A) (A) (A) (A) (A) (A) (A) (A)
                 (A) (A) (A) (A) (A) (A) (A) (A) (A) (A) (A) (A)
                 (A) (A) (A) (A) (A) (A) (A) (A) (A) (A) (A) (A)
                 (A) (A) (A) (A) (A) (A)
       Virtual   (A) (A) (A) (A) (A) (A) (A) (A) (A) (A) (A) (A)
                 (A) (A) (A) (A) (A) (A) (A) (A) (A) (A) (A) (A)
                 (A) (A) (A) (A) (A) (A) (A) (A) (A) (A) (A) (A)
                 (A) (A) (A) (A) (A) (A) (A) (A) (A) (A) (A) (A)
                 (A) (A) (A) (A) (A) (A) (A) (A) (A) (A) (A) (A)
                 (A) (A) (A) (A) (A) (A) (A) (A)
 The electronic state is 1-A.
 Alpha  occ. eigenvalues --   -1.32010  -1.07857  -1.05267  -1.04362  -1.01639
 Alpha  occ. eigenvalues --   -1.00561  -0.98970  -0.97278  -0.94547  -0.92192
 Alpha  occ. eigenvalues --   -0.91621  -0.89959  -0.86761  -0.86341  -0.85294
 Alpha  occ. eigenvalues --   -0.80258  -0.78025  -0.77309  -0.76646  -0.74184
 Alpha  occ. eigenvalues --   -0.73244  -0.70930  -0.67875  -0.65677  -0.64814
 Alpha  occ. eigenvalues --   -0.62180  -0.61307  -0.59806  -0.58052  -0.57108
 Alpha  occ. eigenvalues --   -0.55552  -0.55219  -0.53889  -0.53123  -0.52635
 Alpha  occ. eigenvalues --   -0.52448  -0.51344  -0.50671  -0.50418  -0.48763
 Alpha  occ. eigenvalues --   -0.47997  -0.47693  -0.47380  -0.47084  -0.46744
 Alpha  occ. eigenvalues --   -0.46497  -0.45225  -0.44575  -0.43752  -0.43197
 Alpha  occ. eigenvalues --   -0.42881  -0.42735  -0.41823  -0.41139  -0.40999
 Alpha  occ. eigenvalues --   -0.40495  -0.39062  -0.38391  -0.35718  -0.35599
 Alpha  occ. eigenvalues --   -0.35387  -0.34093  -0.33971  -0.31646  -0.29856
 Alpha  occ. eigenvalues --   -0.27050
 Alpha virt. eigenvalues --   -0.13569  -0.09103  -0.05870  -0.05103  -0.03896
 Alpha virt. eigenvalues --   -0.01827  -0.01006  -0.00464   0.00228   0.00922
 Alpha virt. eigenvalues --    0.02331   0.02649   0.03989   0.06726   0.07224
 Alpha virt. eigenvalues --    0.08119   0.09192   0.09742   0.10019   0.10552
 Alpha virt. eigenvalues --    0.11406   0.11902   0.12066   0.12619   0.12911
 Alpha virt. eigenvalues --    0.13242   0.13519   0.13532   0.13749   0.13857
 Alpha virt. eigenvalues --    0.14138   0.14232   0.14463   0.14918   0.14925
 Alpha virt. eigenvalues --    0.15322   0.15562   0.15607   0.15727   0.16217
 Alpha virt. eigenvalues --    0.16437   0.16463   0.16599   0.16980   0.17469
 Alpha virt. eigenvalues --    0.17531   0.18129   0.18181   0.18526   0.18628
 Alpha virt. eigenvalues --    0.19000   0.19061   0.19120   0.19668   0.19768
 Alpha virt. eigenvalues --    0.19904   0.20062   0.20271   0.20737   0.20973
 Alpha virt. eigenvalues --    0.21719   0.21909   0.22005   0.22241   0.22443
 Alpha virt. eigenvalues --    0.22595   0.22975   0.23895
          Condensed to atoms (all electrons):
               1          2          3          4          5          6
     1  C    4.131943   0.000000   0.000000   0.000000   0.000000   0.000000
     2  C    0.000000   4.182611   0.000000   0.000000   0.000000   0.000000
     3  C    0.000000   0.000000   4.064936   0.000000   0.000000   0.000000
     4  C    0.000000   0.000000   0.000000   4.051422   0.000000   0.000000
     5  C    0.000000   0.000000   0.000000   0.000000   4.210455   0.000000
     6  C    0.000000   0.000000   0.000000   0.000000   0.000000   4.043823
     7  C    0.000000   0.000000   0.000000   0.000000   0.000000   0.000000
     8  C    0.000000   0.000000   0.000000   0.000000   0.000000   0.000000
     9  C    0.000000   0.000000   0.000000   0.000000   0.000000   0.000000
    10  C    0.000000   0.000000   0.000000   0.000000   0.000000   0.000000
    11  C    0.000000   0.000000   0.000000   0.000000   0.000000   0.000000
    12  C    0.000000   0.000000   0.000000   0.000000   0.000000   0.000000
    13  C    0.000000   0.000000   0.000000   0.000000   0.000000   0.000000
    14  C    0.000000   0.000000   0.000000   0.000000   0.000000   0.000000
    15  C    0.000000   0.000000   0.000000   0.000000   0.000000   0.000000
    16  C    0.000000   0.000000   0.000000   0.000000   0.000000   0.000000
    17  C    0.000000   0.000000   0.000000   0.000000   0.000000   0.000000
    18  C    0.000000   0.000000   0.000000   0.000000   0.000000   0.000000
    19  C    0.000000   0.000000   0.000000   0.000000   0.000000   0.000000
    20  C    0.000000   0.000000   0.000000   0.000000   0.000000   0.000000
    21  C    0.000000   0.000000   0.000000   0.000000   0.000000   0.000000
    22  C    0.000000   0.000000   0.000000   0.000000   0.000000   0.000000
    23  C    0.000000   0.000000   0.000000   0.000000   0.000000   0.000000
    24  C    0.000000   0.000000   0.000000   0.000000   0.000000   0.000000
    25  C    0.000000   0.000000   0.000000   0.000000   0.000000   0.000000
    26  C    0.000000   0.000000   0.000000   0.000000   0.000000   0.000000
    27  C    0.000000   0.000000   0.000000   0.000000   0.000000   0.000000
    28  C    0.000000   0.000000   0.000000   0.000000   0.000000   0.000000
    29  C    0.000000   0.000000   0.000000   0.000000   0.000000   0.000000
    30  H    0.000000   0.000000   0.000000   0.000000   0.000000   0.000000
    31  H    0.000000   0.000000   0.000000   0.000000   0.000000   0.000000
    32  H    0.000000   0.000000   0.000000   0.000000   0.000000   0.000000
    33  H    0.000000   0.000000   0.000000   0.000000   0.000000   0.000000
    34  H    0.000000   0.000000   0.000000   0.000000   0.000000   0.000000
    35  H    0.000000   0.000000   0.000000   0.000000   0.000000   0.000000
    36  H    0.000000   0.000000   0.000000   0.000000   0.000000   0.000000
    37  H    0.000000   0.000000   0.000000   0.000000   0.000000   0.000000
    38  H    0.000000   0.000000   0.000000   0.000000   0.000000   0.000000
    39  H    0.000000   0.000000   0.000000   0.000000   0.000000   0.000000
    40  H    0.000000   0.000000   0.000000   0.000000   0.000000   0.000000
    41  H    0.000000   0.000000   0.000000   0.000000   0.000000   0.000000
    42  H    0.000000   0.000000   0.000000   0.000000   0.000000   0.000000
    43  H    0.000000   0.000000   0.000000   0.000000   0.000000   0.000000
    44  Zn   0.000000   0.000000   0.000000   0.000000   0.000000   0.000000
               7          8          9         10         11         12
     1  C    0.000000   0.000000   0.000000   0.000000   0.000000   0.000000
     2  C    0.000000   0.000000   0.000000   0.000000   0.000000   0.000000
     3  C    0.000000   0.000000   0.000000   0.000000   0.000000   0.000000
     4  C    0.000000   0.000000   0.000000   0.000000   0.000000   0.000000
     5  C    0.000000   0.000000   0.000000   0.000000   0.000000   0.000000
     6  C    0.000000   0.000000   0.000000   0.000000   0.000000   0.000000
     7  C    4.049693   0.000000   0.000000   0.000000   0.000000   0.000000
     8  C    0.000000   4.141648   0.000000   0.000000   0.000000   0.000000
     9  C    0.000000   0.000000   4.069767   0.000000   0.000000   0.000000
    10  C    0.000000   0.000000   0.000000   3.963589   0.000000   0.000000
    11  C    0.000000   0.000000   0.000000   0.000000   3.973410   0.000000
    12  C    0.000000   0.000000   0.000000   0.000000   0.000000   4.187947
    13  C    0.000000   0.000000   0.000000   0.000000   0.000000   0.000000
    14  C    0.000000   0.000000   0.000000   0.000000   0.000000   0.000000
    15  C    0.000000   0.000000   0.000000   0.000000   0.000000   0.000000
    16  C    0.000000   0.000000   0.000000   0.000000   0.000000   0.000000
    17  C    0.000000   0.000000   0.000000   0.000000   0.000000   0.000000
    18  C    0.000000   0.000000   0.000000   0.000000   0.000000   0.000000
    19  C    0.000000   0.000000   0.000000   0.000000   0.000000   0.000000
    20  C    0.000000   0.000000   0.000000   0.000000   0.000000   0.000000
    21  C    0.000000   0.000000   0.000000   0.000000   0.000000   0.000000
    22  C    0.000000   0.000000   0.000000   0.000000   0.000000   0.000000
    23  C    0.000000   0.000000   0.000000   0.000000   0.000000   0.000000
    24  C    0.000000   0.000000   0.000000   0.000000   0.000000   0.000000
    25  C    0.000000   0.000000   0.000000   0.000000   0.000000   0.000000
    26  C    0.000000   0.000000   0.000000   0.000000   0.000000   0.000000
    27  C    0.000000   0.000000   0.000000   0.000000   0.000000   0.000000
    28  C    0.000000   0.000000   0.000000   0.000000   0.000000   0.000000
    29  C    0.000000   0.000000   0.000000   0.000000   0.000000   0.000000
    30  H    0.000000   0.000000   0.000000   0.000000   0.000000   0.000000
    31  H    0.000000   0.000000   0.000000   0.000000   0.000000   0.000000
    32  H    0.000000   0.000000   0.000000   0.000000   0.000000   0.000000
    33  H    0.000000   0.000000   0.000000   0.000000   0.000000   0.000000
    34  H    0.000000   0.000000   0.000000   0.000000   0.000000   0.000000
    35  H    0.000000   0.000000   0.000000   0.000000   0.000000   0.000000
    36  H    0.000000   0.000000   0.000000   0.000000   0.000000   0.000000
    37  H    0.000000   0.000000   0.000000   0.000000   0.000000   0.000000
    38  H    0.000000   0.000000   0.000000   0.000000   0.000000   0.000000
    39  H    0.000000   0.000000   0.000000   0.000000   0.000000   0.000000
    40  H    0.000000   0.000000   0.000000   0.000000   0.000000   0.000000
    41  H    0.000000   0.000000   0.000000   0.000000   0.000000   0.000000
    42  H    0.000000   0.000000   0.000000   0.000000   0.000000   0.000000
    43  H    0.000000   0.000000   0.000000   0.000000   0.000000   0.000000
    44  Zn   0.000000   0.000000   0.000000   0.000000   0.000000   0.000000
              13         14         15         16         17         18
     1  C    0.000000   0.000000   0.000000   0.000000   0.000000   0.000000
     2  C    0.000000   0.000000   0.000000   0.000000   0.000000   0.000000
     3  C    0.000000   0.000000   0.000000   0.000000   0.000000   0.000000
     4  C    0.000000   0.000000   0.000000   0.000000   0.000000   0.000000
     5  C    0.000000   0.000000   0.000000   0.000000   0.000000   0.000000
     6  C    0.000000   0.000000   0.000000   0.000000   0.000000   0.000000
     7  C    0.000000   0.000000   0.000000   0.000000   0.000000   0.000000
     8  C    0.000000   0.000000   0.000000   0.000000   0.000000   0.000000
     9  C    0.000000   0.000000   0.000000   0.000000   0.000000   0.000000
    10  C    0.000000   0.000000   0.000000   0.000000   0.000000   0.000000
    11  C    0.000000   0.000000   0.000000   0.000000   0.000000   0.000000
    12  C    0.000000   0.000000   0.000000   0.000000   0.000000   0.000000
    13  C    3.447506   0.000000   0.000000   0.000000   0.000000   0.000000
    14  C    0.000000   3.396919   0.000000   0.000000   0.000000   0.000000
    15  C    0.000000   0.000000   4.087811   0.000000   0.000000   0.000000
    16  C    0.000000   0.000000   0.000000   4.077744   0.000000   0.000000
    17  C    0.000000   0.000000   0.000000   0.000000   3.349295   0.000000
    18  C    0.000000   0.000000   0.000000   0.000000   0.000000   3.949462
    19  C    0.000000   0.000000   0.000000   0.000000   0.000000   0.000000
    20  C    0.000000   0.000000   0.000000   0.000000   0.000000   0.000000
    21  C    0.000000   0.000000   0.000000   0.000000   0.000000   0.000000
    22  C    0.000000   0.000000   0.000000   0.000000   0.000000   0.000000
    23  C    0.000000   0.000000   0.000000   0.000000   0.000000   0.000000
    24  C    0.000000   0.000000   0.000000   0.000000   0.000000   0.000000
    25  C    0.000000   0.000000   0.000000   0.000000   0.000000   0.000000
    26  C    0.000000   0.000000   0.000000   0.000000   0.000000   0.000000
    27  C    0.000000   0.000000   0.000000   0.000000   0.000000   0.000000
    28  C    0.000000   0.000000   0.000000   0.000000   0.000000   0.000000
    29  C    0.000000   0.000000   0.000000   0.000000   0.000000   0.000000
    30  H    0.000000   0.000000   0.000000   0.000000   0.000000   0.000000
    31  H    0.000000   0.000000   0.000000   0.000000   0.000000   0.000000
    32  H    0.000000   0.000000   0.000000   0.000000   0.000000   0.000000
    33  H    0.000000   0.000000   0.000000   0.000000   0.000000   0.000000
    34  H    0.000000   0.000000   0.000000   0.000000   0.000000   0.000000
    35  H    0.000000   0.000000   0.000000   0.000000   0.000000   0.000000
    36  H    0.000000   0.000000   0.000000   0.000000   0.000000   0.000000
    37  H    0.000000   0.000000   0.000000   0.000000   0.000000   0.000000
    38  H    0.000000   0.000000   0.000000   0.000000   0.000000   0.000000
    39  H    0.000000   0.000000   0.000000   0.000000   0.000000   0.000000
    40  H    0.000000   0.000000   0.000000   0.000000   0.000000   0.000000
    41  H    0.000000   0.000000   0.000000   0.000000   0.000000   0.000000
    42  H    0.000000   0.000000   0.000000   0.000000   0.000000   0.000000
    43  H    0.000000   0.000000   0.000000   0.000000   0.000000   0.000000
    44  Zn   0.000000   0.000000   0.000000   0.000000   0.000000   0.000000
              19         20         21         22         23         24
     1  C    0.000000   0.000000   0.000000   0.000000   0.000000   0.000000
     2  C    0.000000   0.000000   0.000000   0.000000   0.000000   0.000000
     3  C    0.000000   0.000000   0.000000   0.000000   0.000000   0.000000
     4  C    0.000000   0.000000   0.000000   0.000000   0.000000   0.000000
     5  C    0.000000   0.000000   0.000000   0.000000   0.000000   0.000000
     6  C    0.000000   0.000000   0.000000   0.000000   0.000000   0.000000
     7  C    0.000000   0.000000   0.000000   0.000000   0.000000   0.000000
     8  C    0.000000   0.000000   0.000000   0.000000   0.000000   0.000000
     9  C    0.000000   0.000000   0.000000   0.000000   0.000000   0.000000
    10  C    0.000000   0.000000   0.000000   0.000000   0.000000   0.000000
    11  C    0.000000   0.000000   0.000000   0.000000   0.000000   0.000000
    12  C    0.000000   0.000000   0.000000   0.000000   0.000000   0.000000
    13  C    0.000000   0.000000   0.000000   0.000000   0.000000   0.000000
    14  C    0.000000   0.000000   0.000000   0.000000   0.000000   0.000000
    15  C    0.000000   0.000000   0.000000   0.000000   0.000000   0.000000
    16  C    0.000000   0.000000   0.000000   0.000000   0.000000   0.000000
    17  C    0.000000   0.000000   0.000000   0.000000   0.000000   0.000000
    18  C    0.000000   0.000000   0.000000   0.000000   0.000000   0.000000
    19  C    4.050113   0.000000   0.000000   0.000000   0.000000   0.000000
    20  C    0.000000   4.066548   0.000000   0.000000   0.000000   0.000000
    21  C    0.000000   0.000000   4.149835   0.000000   0.000000   0.000000
    22  C    0.000000   0.000000   0.000000   3.817480   0.000000   0.000000
    23  C    0.000000   0.000000   0.000000   0.000000   4.042579   0.000000
    24  C    0.000000   0.000000   0.000000   0.000000   0.000000   3.969896
    25  C    0.000000   0.000000   0.000000   0.000000   0.000000   0.000000
[...]
 002385,-0.00000858,0.00001173,0.00002148,-0.00003878,0.00032331,0.0000
 4978,-0.00053693,-0.00258687,0.00446689,-0.04486102,0.03086611,-0.0000
 0631,0.00013696,0.00001898,-0.00122154,0.00076599,0.00002925,-0.006546
 20,0.02839156,-0.00794762,-0.00587579,-0.02731197,0.00417593,-0.000090
 50,-0.00036946,0.00001022,-0.03449165,0.00409179,0.00017406,-0.0016304
 1,-0.00077731,0.00006957,-0.00006496,0.00006884,0.00002906,-0.00003870
 ,0.00003879,0.00003557,0.00006509,-0.00010521,-0.00000721,0.00001873,-
 0.00006721,-0.00001853,-0.00004043,-0.00006671,0.00000356,0.00013918,0
 .00043232,-0.00022173,0.00000612,-0.00002239,-0.00002220,0.00005516,-0
 .00000862,-0.00003187,-0.00038537,-0.00003116,-0.00009957,0.00006234,-
 0.00012633,0.00000553,0.00008721,0.00000710,0.00000072,0.00038736,-0.0
 0069132,0.00010853,0.00017436,-0.00002868,0.00005009,0.00003712,0.0000
 1412,-0.00000299,-0.00198357,0.00107715,-0.00128676,-0.00003608,0.0000
 3638,0.00003570,-0.00222762,-0.00143504,-0.00039969,-0.00016519,0.0000
 6962,0.00000213,-0.00008201,0.00007226,0.00001735,-0.00025072,0.000422
 70,-0.00007201,-0.00021956,0.00016064,-0.00007555,-0.00001855,0.000024
 98,0.00000626,0.00000182,0.00000436,0.00000290,0.00000951,-0.00002273,
 -0.00000048,-0.00000005,0.00000075,-0.00000030,0.00000130,-0.00000535,
 -0.00000431,-0.00000121,-0.00001236,-0.00000395,0.00000117,0.00000348,
 -0.00000023,0.00000054,-0.00000048,-0.00000158,0.00000142,0.00000755,-
 0.00000233,-0.00001354,0.00000976,0.00000535,-0.00003181,-0.00004762,-
 0.00003691,-0.00096408,-0.00013366,-0.00016438,0.05633627,-0.00014339,
 -0.00054906,-0.00001735,0.00035477,-0.00023451,-0.00045695,0.01730036,
 -0.02610182,0.00937074,-0.01620646,-0.02471229,0.00434490,-0.00007938,
 -0.00046309,0.00001152,0.00366089,-0.21135374,0.03801861,0.00005445,-0
 .00059519,-0.00001015,0.00017520,-0.00053975,0.00003449,0.00004421,-0.
 00012619,-0.00006387,-0.00062408,0.00041240,0.00021356,-0.00005490,0.0
 0016799,0.00003348,0.00008070,0.00016488,-0.00000040,0.00074815,-0.000
 30271,-0.00001427,0.00005069,0.00007200,-0.00003169,-0.00011575,0.0000
 8147,0.00009498,-0.00072888,-0.00028919,-0.00011048,0.00020188,-0.0000
 8338,0.00000085,-0.00002128,0.00002478,0.00001734,0.00010298,-0.000210
 72,-0.00000271,-0.00012526,-0.00001330,0.00001182,-0.00005080,0.000011
 82,-0.00000257,0.00071681,0.00124537,0.00117959,0.00000399,-0.00009297
 ,-0.00005460,-0.00089534,-0.00055384,0.00038306,-0.00003945,0.00043601
 ,-0.00017158,0.00002085,0.00002867,-0.00000318,0.00001003,0.00015809,-
 0.00003825,0.00009428,0.00000113,0.00002422,0.00008009,0.00001279,0.00
 001188,-0.00004403,-0.00001715,0.00000484,-0.00004328,-0.00002837,-0.0
 0000747,-0.00002931,-0.00001621,-0.00000606,0.00000114,-0.00001612,0.0
 0000375,-0.00000180,-0.00002580,-0.00000254,-0.00000137,-0.00006339,-0
 .00002038,0.00003710,-0.00001826,-0.00002174,0.00005542,0.00001982,-0.
 00002426,0.00012099,0.00007675,-0.00004747,0.00009344,0.00015686,0.000
 01095,-0.00000109,0.00050514,0.00000663,-0.00459699,0.26236601,0.00011
 543,0.00007124,-0.00005827,0.00007051,-0.00048852,-0.00247834,-0.00625
 476,0.01140177,0.00266857,0.00062916,0.00242030,0.00641489,-0.00011222
 ,-0.00010998,-0.00002014,0.00142150,0.03801293,-0.04782832,0.00018532,
 -0.00022183,-0.00101093,-0.00005733,0.00000098,0.00005314,-0.00000703,
 0.00001046,-0.00000574,0.00008360,0.00023236,0.00009585,0.00001224,-0.
 00001986,-0.00000830,0.00000177,-0.00000850,-0.00001377,0.00019276,-0.
 00037663,-0.00018916,0.00006556,-0.00006640,0.00003405,-0.00000021,-0.
 00000666,-0.00000732,0.00090320,0.00033141,0.00043722,-0.00008222,0.00
 013572,-0.00004241,-0.00003537,-0.00000124,-0.00000206,0.00022401,-0.0
 0002062,-0.00006944,0.00003931,-0.00000243,0.00004029,0.00000887,-0.00
 001314,-0.00000189,-0.00200157,0.00112807,0.00592350,-0.00000220,0.000
 00500,-0.00003505,-0.00077696,0.00065334,0.00168741,0.00017247,-0.0002
 8870,-0.00038628,0.00000177,-0.00008178,0.00003859,-0.00005644,0.00016
 131,-0.00016615,-0.00005286,-0.00000475,-0.00002728,-0.00002045,-0.000
 01114,-0.00002743,-0.00000590,0.00000294,0.00004974,0.00000643,0.00000
 440,0.00003864,0.00000518,0.00000146,0.00000991,-0.00000390,0.00000108
 ,0.00000419,0.00000046,0.00001251,-0.00000106,0.00000412,0.00000691,0.
 00001237,-0.00000667,0.00000313,0.00001028,-0.00000841,-0.00000582,0.0
 0000876,-0.00002306,-0.00000572,-0.00002180,-0.00004575,0.00002008,0.0
 0028562,-0.00018004,-0.00004836,0.00043463,0.00572697,-0.05282272,0.03
 378722,-0.00001121,0.00008860,0.00000370,0.00008721,-0.00007998,0.0000
 0963,-0.00013431,0.00024177,-0.00007308,-0.00586416,0.02799488,-0.0053
 8944,-0.00680241,-0.02875834,0.00152253,-0.00144403,0.00069988,-0.0000
 1621,-0.03466716,-0.00021902,0.00108618,-0.00003842,0.00008783,0.00000
 588,-0.00001986,0.00002975,0.00002155,0.00007951,-0.00007632,-0.000035
 42,0.00001695,-0.00004036,-0.00001078,-0.00002565,-0.00004562,0.000001
 80,0.00001017,-0.00003200,0.00003994,-0.00001731,-0.00002117,-0.000001
 91,0.00003530,-0.00001459,-0.00002391,0.00045477,0.00044319,0.00002512
 ,0.00002835,-0.00003284,-0.00000449,0.00004709,0.00000314,-0.00000083,
 -0.00013028,0.00000120,-0.00005916,-0.00000187,-0.00002893,-0.00000287
 ,0.00002185,0.00000769,-0.00000224,-0.00021657,-0.00020401,-0.00000764
 ,-0.00001538,0.00001705,0.00001816,-0.00227804,0.00118225,-0.00131943,
 -0.00014338,0.00006846,-0.00003313,-0.00005284,0.00003022,0.00001749,-
 0.00228304,-0.00137877,-0.00107447,-0.00003281,0.00001441,0.00011901,-
 0.00001584,0.00001579,-0.00001535,0.00005129,-0.00041656,0.00002104,0.
 00000465,0.00000598,-0.00000542,0.00000519,0.00000307,0.00000128,-0.00
 000031,-0.00000034,0.00000117,-0.00000095,-0.00000029,-0.00000311,0.00
 000088,0.00000967,0.00000276,-0.00000451,0.00000232,0.00000191,-0.0000
 0600,0.00000068,0.00000184,-0.00001882,-0.00000713,0.00000556,-0.00002
 319,-0.00001899,0.00000707,-0.00002990,0.00001876,-0.00001361,-0.00101
 865,-0.00009900,-0.00012010,0.05480168,-0.00002824,-0.00011188,-0.0000
 0441,-0.00008215,-0.00009353,0.00001616,0.00035402,-0.00056942,0.00024
 955,0.01629019,-0.02439238,0.00638419,-0.01632674,-0.02891190,0.001355
 21,-0.00045845,-0.00062075,-0.00028511,-0.00024353,-0.21740733,0.02208
 754,0.00004469,-0.00016776,0.00002355,-0.00005152,-0.00000564,0.000030
 59,-0.00024449,0.00008771,0.00005166,0.00001617,0.00005567,-0.00001183
 ,-0.00003525,-0.00002988,0.00000285,0.00041660,-0.00008680,0.00000782,
 -0.00001497,-0.00001490,-0.00004446,0.00003710,0.00003279,-0.00000683,
 -0.00016208,0.00012925,-0.00004991,0.00023436,-0.00032460,-0.00003378,
 0.00027270,0.00004705,0.00001048,0.00063378,-0.00110609,0.00015277,0.0
 0085763,-0.00021862,0.00025114,0.00016340,0.00008643,-0.00001023,-0.00
 039907,0.00033902,-0.00022078,-0.00009306,-0.00003612,0.00001461,0.001
 42196,-0.00072691,0.00102020,-0.00053082,-0.00011659,-0.00017445,-0.00
 030379,0.00019920,0.00008639,-0.00216622,0.00128870,0.00011129,-0.0004
 7460,0.00113938,-0.00028072,-0.00007040,0.00013402,0.00000828,-0.00005
 154,-0.00021721,0.00000007,-0.00004234,-0.00002000,0.00000395,-0.00003
 894,-0.00002000,-0.00000274,-0.00000790,-0.00006691,-0.00001647,-0.000
 00060,-0.00007056,-0.00001759,0.00000594,-0.00004520,-0.00001706,0.000
 03100,-0.00001752,-0.00001893,0.00004624,0.00002477,-0.00001911,0.0000
 5242,0.00003603,-0.00001375,0.00004092,0.00003833,-0.00001348,-0.00004
 088,0.00012523,-0.00001804,0.00004215,0.00052329,-0.00001130,0.0013208
 6,0.27062778,-0.00001426,0.00007416,0.00000932,0.00006830,0.00002117,0
 .00004958,-0.00028417,0.00030064,-0.00001780,-0.00516482,0.00904415,0.
 00388471,-0.00088013,-0.00154467,0.00539836,0.00049441,-0.00010934,-0.
 00179762,0.00263688,0.02206693,-0.04178960,-0.00004477,0.00011183,-0.0
 0000293,-0.00001008,0.00001827,0.00000936,0.00014475,-0.00007944,-0.00
 004904,0.00000162,-0.00003163,-0.00000800,-0.00001388,-0.00002727,-0.0
 0000493,-0.00024164,0.00003990,0.00001945,0.00001098,-0.00002806,-0.00
 001055,0.00001667,-0.00001442,-0.00001657,0.00004722,-0.00001448,0.000
 02864,0.00002094,-0.00008804,0.00006491,0.00003138,-0.00000348,-0.0000
 0109,0.00069345,-0.00013846,0.00047346,0.00009932,0.00001335,0.0000395
 4,0.00000238,-0.00000193,0.00000131,0.00022182,-0.00025346,0.00000239,
 -0.00000178,0.00001055,-0.00000344,-0.00161262,0.00030382,0.00411065,-
 0.00010006,0.00004328,-0.00020739,-0.00001654,0.00003958,-0.00002780,-
 0.00127782,0.00096228,0.00451089,0.00010620,0.00007469,-0.00081029,-0.
 00003153,-0.00000191,0.00007451,0.00001040,-0.00001708,-0.00007599,-0.
 00000256,-0.00000470,0.00004975,0.00000549,0.00000211,0.00000682,0.000
 00336,0.00000605,-0.00000881,0.00000086,-0.00000189,0.00000878,0.00000
 177,0.00000949,0.00000561,-0.00000538,0.00000249,0.00000628,-0.0000070
 7,-0.00000341,0.00000686,-0.00001837,-0.00001359,0.00001370,-0.0000134
 4,-0.00001190,0.00000370,-0.00000079,-0.00001117,0.00003953,-0.0001386
 9,-0.00000881,0.00044340,0.00506645,-0.03049754,0.02675138,0.00001214,
 0.00005256,0.00000994,0.00005585,0.00005260,-0.00001807,-0.00027179,0.
 00006469,-0.00006074,-0.00265612,-0.00122487,-0.00122559,-0.16731745,0
 .07696197,-0.02808480,0.00004475,0.00033172,0.00006483,-0.03849264,0.0
 0439701,-0.00785438,-0.00006806,0.00016436,-0.00001830,0.00001776,0.00
 001638,-0.00000939,0.00027781,-0.00004711,-0.00004791,-0.00000537,-0.0
 0004625,-0.00000293,0.00001869,-0.00000275,-0.00000623,-0.00052702,0.0
 0004441,-0.00003594,0.00000765,-0.00000023,0.00006435,-0.00001471,-0.0
 0002137,-0.00000339,-0.00110487,0.00062354,-0.00017396,-0.00032384,0.0
 0047458,-0.00003675,-0.00020567,-0.00002387,-0.00001777,-0.00074784,0.
 00039956,-0.00116287,-0.00032092,0.00015042,-0.00009995,-0.00006155,-0
 .00005127,0.00000992,0.00073476,-0.00011463,0.00020325,0.00004613,0.00
 002734,-0.00000600,0.00127659,-0.00068232,0.00042542,0.00052743,-0.000
 56538,0.00021902,0.00021044,-0.00023874,-0.00005566,-0.00173364,0.0104
 6879,-0.00231646,0.00025128,-0.00058974,0.00019859,0.00002040,-0.00011
 296,-0.00000846,0.00082041,-0.00014183,0.00035140,0.00007110,0.0000484
 0,-0.00000362,0.00003029,0.00001711,0.00000190,0.00000234,0.00002842,0
 .00000447,0.00000329,0.00004355,0.00001116,-0.00000259,0.00002970,0.00
 001019,-0.00002064,0.00001214,0.00001310,-0.00002682,-0.00001293,0.000
 01016,-0.00003242,-0.00002221,0.00000983,-0.00002075,-0.00001132,0.000
 00327,0.00000142,-0.00002666,0.00000147,0.00000800,-0.00002836,-0.0000
 1325,-0.00038957,-0.00044903,0.00017336,0.20997971,-0.00000888,-0.0000
 6115,-0.00000544,-0.00009307,-0.00001414,-0.00000014,0.00018000,-0.000
 19835,0.00008046,-0.00069272,-0.00121834,0.00065234,0.07696743,-0.0787
 9493,0.01622438,-0.00071073,0.00010257,-0.00019180,-0.01064445,0.00680
 728,-0.00186283,0.00005585,-0.00012618,0.00001034,-0.00000250,-0.00001
 778,-0.00000152,-0.00020166,0.00004698,0.00003751,-0.00000218,0.000035
 92,0.00000504,-0.00000253,0.00001591,0.00000357,0.00036016,-0.00002589
 ,0.00002080,-0.00000045,0.00000693,-0.00003724,-0.00000253,0.00001499,
 0.00000892,0.00062405,-0.00038748,0.00009926,0.00015960,-0.00022678,0.
 00002133,0.00008397,0.00001263,0.00001057,-0.00013532,-0.00312222,0.00
 076543,0.00003491,-0.00014745,0.00001217,0.00000989,0.00001277,-0.0000
 0590,-0.00044859,0.00013764,-0.00013551,-0.00001619,-0.00001589,0.0000
 0009,-0.00068063,0.00049428,-0.00024653,-0.00023170,0.00034203,-0.0001
 0891,-0.00008435,0.00011252,0.00002236,0.02550458,-0.02993618,0.007808
 25,0.00045172,-0.00010584,0.00003670,0.00003253,0.00002081,0.00001579,
 0.00024598,-0.00073070,0.00000255,0.00000785,0.00001969,0.00001345,-0.
 00001008,-0.00000403,-0.00000051,0.00000192,-0.00001092,-0.00000112,-0
 .00000173,-0.00002011,-0.00000473,0.00000094,-0.00001724,-0.00000575,0
 .00001210,-0.00000676,-0.00000758,0.00001575,0.00000697,-0.00000602,0.
 00002310,0.00001553,-0.00000740,0.00001517,0.00001213,-0.00000341,0.00
 000056,0.00002481,-0.00000144,0.00001232,0.00008269,-0.00000349,-0.000
 83470,0.00047940,-0.00030990,-0.09002835,0.10641983,-0.00000218,0.0000
 1553,0.00001153,0.00001635,0.00002737,0.00005389,-0.00005482,-0.000038
 46,-0.00021634,-0.00132799,0.00078176,0.00558425,-0.02798783,0.0161696
 1,-0.05064206,0.00013187,-0.00005122,-0.00065494,-0.00626481,0.0007413
 4,0.00545263,-0.00001680,0.00004361,-0.00000580,0.00000300,0.00000508,
 -0.00000256,0.00006805,-0.00002729,-0.00003327,-0.00000334,-0.00001222
 ,-0.00000595,0.00000348,-0.00000205,-0.00000409,-0.00016642,0.00004159
 ,0.00003228,0.00001932,-0.00001113,0.00001111,-0.00000288,-0.00000516,
 -0.00000255,-0.00017180,0.00009785,-0.00072086,-0.00011857,0.00012335,
 0.00003202,-0.00004593,-0.00000718,-0.00000573,-0.00132514,0.00079053,
 0.00557469,0.00000590,0.00006608,-0.00021583,-0.00001447,-0.00000577,0
 .00001153,0.00023211,-0.00000083,0.00007679,0.00000883,0.00000888,-0.0
 0000600,0.00038545,-0.00022332,0.00000930,0.00011602,-0.00020035,0.000
 07721,0.00005727,-0.00004525,-0.00003314,-0.00383205,0.00515967,0.0054
 2620,0.00010696,-0.00008986,-0.00065538,-0.00001562,-0.00002745,0.0000
 5396,0.00035337,-0.00007934,-0.00119988,-0.00000780,0.00000219,0.00009
 702,0.00000506,0.00000398,0.00000608,0.00000158,0.00000609,-0.00000470
 ,0.00000203,0.00000785,0.00000796,0.00000020,0.00000669,0.00000375,-0.
 00000460,0.00000268,0.00000464,-0.00000570,-0.00000349,0.00000377,-0.0
 0000579,-0.00000565,0.00000799,-0.00000451,-0.00000442,-0.00000468,-0.
 00000093,-0.00000638,0.00000610,-0.00000569,0.00000578,0.00009719,0.00
 024644,-0.00027224,-0.00120184,0.03964313,-0.02300045,0.03299401,-0.00
 051600,-0.00270839,0.00011548,-0.00175306,0.00009028,0.00001645,0.0029
 2411,-0.00234995,0.00121466,0.00587318,0.00108010,0.00045847,0.0025745
 8,0.00438885,-0.00001848,-0.00579850,-0.00030559,-0.00068218,-0.005020
 51,-0.00014271,-0.00081717,-0.00234223,-0.01237595,0.00326212,-0.00156
 054,-0.00096252,0.00124881,-0.01073754,-0.00998254,0.00715578,-0.01875
 454,0.00378350,0.01271854,0.00110502,-0.00062622,-0.00089193,0.0087477
 0,0.00391909,0.00043555,-0.07522132,0.04263678,0.03847496,0.00021468,0
 .00095445,0.00080450,-0.00258071,0.01797318,-0.00425948,-0.08738954,-0
 .04052000,-0.03339367,0.00939774,0.00041093,-0.00073612,-0.00457703,0.
 00262857,-0.00109353,-0.00517828,-0.00271598,-0.00301635,0.00177590,0.
 00101460,-0.00068829,-0.01441486,0.01507805,-0.00997601,-0.00378075,0.
 00601555,0.00523339,0.00377611,-0.00090705,0.00145963,-0.01384310,-0.0
 1100641,-0.00523130,-0.00735879,-0.00683484,-0.00089734,0.00265033,-0.
 00471300,0.00100679,0.00160997,-0.00251938,0.00064018,-0.00079335,0.00
 166544,-0.00003668,-0.00001049,-0.00001020,-0.00005110,-0.00005883,-0.
 00007123,-0.00000377,0.00003548,0.00011013,0.00009935,0.00007547,-0.00
 002989,-0.00003237,-0.00005942,-0.00013416,-0.00022286,0.00003759,-0.0
 0014231,-0.00005416,-0.00035601,0.00021180,0.00031354,0.00005371,0.000
 10160,0.00004106,0.00020741,0.00018836,-0.00013723,0.00010240,-0.00021
 112,-0.00009988,-0.00004509,-0.00012463,0.00005153,0.00001298,-0.00007
 611,-0.00000364,0.00003997,0.00003583,0.00002180,-0.00007170,0.0000322
 9,-0.00002025,0.22100956,-0.00030211,0.00081162,0.00085193,0.00112119,
 0.00021359,0.00004716,0.00193130,-0.00806911,0.00419838,0.00861440,-0.
 00244089,0.00152205,0.00438066,0.00760035,-0.00001173,-0.00676296,-0.0
 0001480,-0.00112323,-0.00910114,-0.00013917,-0.00161546,-0.00633321,0.
 00257879,0.00269992,-0.00007278,0.00022816,-0.00020294,-0.00872723,-0.
 01698713,0.00517391,-0.00253822,0.00179716,0.00122902,-0.00063840,0.00
 036829,0.00051734,0.01468688,-0.10848100,0.03918305,0.04259560,-0.0265
 0000,-0.02233931,0.00007816,-0.00157333,-0.00097665,0.01795416,0.01805
 591,0.00239827,-0.05124615,-0.01234447,-0.01974306,-0.00561595,-0.0092
 2186,-0.00413993,-0.00491354,0.00798174,-0.00117150,-0.00699030,0.0000
 0553,-0.00311916,-0.00138637,-0.00148808,-0.00051689,-0.01131582,-0.01
 145729,0.00038263,0.01233212,-0.01321147,-0.01163024,-0.00089685,0.002
 72407,-0.00084531,0.01537937,-0.01203765,0.00846757,-0.00809264,-0.020
 40208,-0.00869088,0.00425434,-0.00779376,0.00152891,0.00393785,-0.0073
 9851,0.00116398,0.00063733,-0.00073874,-0.00003746,0.00000602,0.000054
 28,-0.00005461,-0.00011798,-0.00007213,0.00000198,-0.00007858,-0.00005
 365,-0.00000157,-0.00022662,-0.00003588,0.00009695,0.00003549,0.000237
 99,0.00002967,0.00009244,0.00003000,-0.00007899,0.00021137,-0.00011434
 ,-0.00018269,-0.00013271,0.00001469,0.00008542,0.00001952,-0.00002753,
 0.00017932,-0.00001431,-0.00006230,-0.00001910,0.00006364,0.00002665,-
 0.00008522,-0.00002977,-0.00014250,0.00000237,0.00001870,0.00000527,0.
 00007143,0.00003223,-0.00003449,0.00001173,-0.00286028,0.21809679,0.00
 032039,0.00013839,0.00000748,-0.00022026,-0.00039041,-0.00021691,-0.00
 096153,0.00293736,0.00189385,-0.00082884,0.00080876,0.00010869,-0.0000
 5878,0.00001594,0.00004052,0.00098200,-0.00036930,-0.00028929,0.000732
 71,-0.00023343,0.00000976,0.00329153,0.00438296,-0.00121275,0.00146050
 ,0.00017059,0.00153013,0.00641388,0.01181627,0.00102596,0.01545848,-0.
 00007518,-0.00433156,-0.00054458,0.00030806,0.00035121,-0.00225680,0.0
 1210604,-0.01825581,0.01880099,-0.01094703,-0.02337086,0.00059367,-0.0
 0134187,0.00152949,-0.00592148,0.00336649,-0.00165033,-0.01123222,-0.0
 0396240,-0.01807435,-0.00216331,-0.00500606,-0.00117917,-0.00109212,0.
 00029192,0.00011473,-0.00299277,-0.00061354,0.00191863,0.00003976,-0.0
 0034232,0.00001014,-0.00169859,0.01055276,0.00081769,0.00770274,-0.013
 34409,-0.00426347,0.00195763,-0.00113817,0.00064828,-0.01002123,-0.003
 71615,0.00082681,-0.00700626,-0.01135962,0.00110257,0.00055162,-0.0004
 9109,0.00000463,0.00079495,-0.00064463,-0.00029253,0.00022878,0.000382
 19,-0.00021826,-0.00015569,-0.00007392,0.00002051,-0.00011682,-0.00011
 062,-0.00017648,-0.00008381,-0.00003724,0.00004869,-0.00013448,-0.0001
 7689,0.00015128,0.00000908,-0.00036795,0.00006572,-0.00001763,-0.00017
 733,-0.00022399,0.00016900,-0.00009901,-0.00048367,0.00014498,0.000102
 45,-0.00022505,0.00032406,0.00017538,0.00006415,0.00008663,0.00020609,
 0.00015067,-0.00000940,0.00009158,0.00004846,0.00003753,0.00015632,-0.
 00017669,-0.00001338,0.00017178,0.00001976,-0.00016855,0.00009761,-0.0
 0001192,-0.01240353,0.00673998,0.06214589||-0.00001165,-0.00004313,-0.
 00007879,-0.00001602,-0.00001586,-0.00001093,0.00002121,0.00005455,0.0
 0009779,-0.00009962,-0.00002377,-0.00009045,-0.00008826,0.00008183,-0.
 00003751,0.00004507,-0.00000123,0.00003311,0.00010817,-0.00006627,0.00
 003381,-0.00007319,0.00003508,-0.00004931,-0.00009162,-0.00001912,-0.0
 0003851,0.00005497,-0.00007494,0.00004280,0.00007090,-0.00000882,0.000
 04652,-0.00001732,-0.00000326,0.00012325,-0.00008157,0.00004546,-0.000
 02960,-0.00007771,0.00003855,0.00001410,-0.00000614,0.00005418,-0.0000
 2139,0.00009451,-0.00009476,0.00002122,0.00011130,0.00010241,0.0000310
 4,-0.00000045,-0.00003205,0.00009234,0.00011563,0.00004241,-0.00002514
 ,0.00002620,-0.00005646,0.00017471,0.00002347,0.00008612,-0.00006190,-
 0.00000518,-0.00009085,-0.00003954,0.00000864,0.00001025,-0.00005287,-
 0.00005640,-0.00002770,0.00006278,-0.00002379,0.00011874,-0.00007635,0
 .00004068,-0.00001275,0.00001173,-0.00000007,-0.00004098,0.00003112,-0
 .00002223,0.00001691,-0.00004081,0.00003869,0.00002346,-0.00009157,-0.
 00002375,-0.00003407,-0.00000652,-0.00003325,-0.00003184,-0.00000706,-
 0.00004937,-0.00001837,0.00001422,-0.00000772,-0.00004712,0.00003778,-
 0.00000282,0.00001901,-0.00003026,-0.00000136,-0.00000642,-0.00000473,
 -0.00000089,0.00000446,-0.00003073,0.00001941,0.00000738,-0.00000204,0
 .00001814,-0.00000514,0.00001302,0.00001393,0.00001680,0.00002977,-0.0
 0000499,0.00003382,-0.00000935,0.00001070,0.00004700,-0.00002491,-0.00
 002337,0.00004621,-0.00000149,-0.00000160,0.00001948,0.00000223,-0.000
 00128,-0.00014919,-0.00005159|||@


 SCIENCE AND PEACE WILL TRIUMPH OVER IGNORANCE AND WAR

                          -- PASTEUR
 Job cpu time:       0 days  0 hours  0 minutes  7.0 seconds.
 File lengths (MBytes):  RWF=    335 Int=      0 D2E=      0 Chk=      4 Scr=      1
 Normal termination of Gaussian 09 at Sun Mar 15 20:47:44 2026.
