 Entering Link 1 = C:\G09W\l1.exe PID=     22568.
  
 Copyright (c) 1988,1990,1992,1993,1995,1998,2003,2009,2013,
            Gaussian, Inc.  All Rights Reserved.
  
 This is part of the Gaussian(R) 09 program.  It is based on
 the Gaussian(R) 03 system (copyright 2003, Gaussian, Inc.),
 the Gaussian(R) 98 system (copyright 1998, Gaussian, Inc.),
 the Gaussian(R) 94 system (copyright 1995, Gaussian, Inc.),
 the Gaussian 92(TM) system (copyright 1992, Gaussian, Inc.),
 the Gaussian 90(TM) system (copyright 1990, Gaussian, Inc.),
 the Gaussian 88(TM) system (copyright 1988, Gaussian, Inc.),
 the Gaussian 86(TM) system (copyright 1986, Carnegie Mellon
 University), and the Gaussian 82(TM) system (copyright 1983,
 Carnegie Mellon University). Gaussian is a federally registered
 trademark of Gaussian, Inc.
  
 This software contains proprietary and confidential information,
 including trade secrets, belonging to Gaussian, Inc.
  
 This software is provided under written license and may be
 used, copied, transmitted, or stored only in accord with that
 written license.
  
 The following legend is applicable only to US Government
 contracts under FAR:
  
                    RESTRICTED RIGHTS LEGEND
  
 Use, reproduction and disclosure by the US Government is
 subject to restrictions as set forth in subparagraphs (a)
 and (c) of the Commercial Computer Software - Restricted
 Rights clause in FAR 52.227-19.
  
 Gaussian, Inc.
 340 Quinnipiac St., Bldg. 40, Wallingford CT 06492
  
  
 ---------------------------------------------------------------
 Warning -- This program may not be used in any manner that
 competes with the business of Gaussian, Inc. or will provide
 assistance to any competitor of Gaussian, Inc.  The licensee
 of this program is prohibited from giving any competitor of
 Gaussian, Inc. access to this program.  By using this program,
 the user acknowledges that Gaussian, Inc. is engaged in the
 business of creating and licensing software in the field of
 computational chemistry and represents and warrants to the
 licensee that it is not a competitor of Gaussian, Inc. and that
 it will not use this program in any manner prohibited above.
 ---------------------------------------------------------------
  

 Cite this work as:
 Gaussian 09, Revision D.01,
 M. J. Frisch, G. W. Trucks, H. B. Schlegel, G. E. Scuseria, 
 M. A. Robb, J. R. Cheeseman, G. Scalmani, V. Barone, B. Mennucci, 
 G. A. Petersson, H. Nakatsuji, M. Caricato, X. Li, H. P. Hratchian, 
 A. F. Izmaylov, J. Bloino, G. Zheng, J. L. Sonnenberg, M. Hada, 
 M. Ehara, K. Toyota, R. Fukuda, J. Hasegawa, M. Ishida, T. Nakajima, 
 Y. Honda, O. Kitao, H. Nakai, T. Vreven, J. A. Montgomery, Jr., 
 J. E. Peralta, F. Ogliaro, M. Bearpark, J. J. Heyd, E. Brothers, 
 K. N. Kudin, V. N. Staroverov, T. Keith, R. Kobayashi, J. Normand, 
 K. Raghavachari, A. Rendell, J. C. Burant, S. S. Iyengar, J. Tomasi, 
 M. Cossi, N. Rega, J. M. Millam, M. Klene, J. E. Knox, J. B. Cross, 
 V. Bakken, C. Adamo, J. Jaramillo, R. Gomperts, R. E. Stratmann, 
 O. Yazyev, A. J. Austin, R. Cammi, C. Pomelli, J. W. Ochterski, 
 R. L. Martin, K. Morokuma, V. G. Zakrzewski, G. A. Voth, 
 P. Salvador, J. J. Dannenberg, S. Dapprich, A. D. Daniels, 
 O. Farkas, J. B. Foresman, J. V. Ortiz, J. Cioslowski, 
 and D. J. Fox, Gaussian, Inc., Wallingford CT, 2013.
 
 ******************************************
 Gaussian 09:  IA32W-G09RevD.01 24-Apr-2013
                25-Apr-2025 
 ******************************************
 %chk=C:\Users\bsidd\Desktop\Microsystem journel\simulation\ZnO_nanotube_larger_N
 EW_NH3_final_vib.chk
 ----------------------------------
 # freq=raman pm6 geom=connectivity
 ----------------------------------
 1/10=4,30=1,38=1,57=2/1,3;
 2/12=2,17=6,18=5,40=1/2;
 3/5=2,16=1,25=1,41=3900000,71=2,140=1/1,2,3;
 4/35=1/1;
 5/5=2,35=1,38=5,98=1/2;
 8/6=4,10=90,11=11/1;
 10/13=10,15=4/2;
 11/6=3,8=1,9=11,15=111,16=1/1,2,10;
 10/6=1/2;
 6/7=2,8=2,9=2,10=2,18=1,28=1/1;
 7/8=1,10=1,25=1/1,2,3,16;
 1/10=4,30=1/3;
 99//99;
 ------------------------
 Zno_NANOTUBE_1D_with NH3
 ------------------------
 Symbolic Z-matrix:
 Charge =  0 Multiplicity = 1
 O(Fragment=2)        -1    12.66684   0.02365   5.2045 
 O(Fragment=2)        -1    10.8379   1.29101   3.91705 
 Zn(Fragment=2)       -1    12.55738   1.03527   3.14492 
 O(Fragment=2)        -1    12.66646   3.07689   4.19236 
 O(Fragment=2)        -1    10.83762   3.34539   2.40574 
 Zn(Fragment=2)       -1    12.55715   2.68471   1.9315 
 O(Fragment=2)        -1    12.66617   4.95209   1.57887 
 O(Fragment=2)        -1    10.83746   4.11909  -0.02448 
 Zn(Fragment=2)       -1    12.55702   3.30591  -0.01969 
 O(Fragment=2)        -1    12.66608   4.93299  -1.6377 
 O(Fragment=2)        -1    10.83749   3.31658  -2.44533 
 Zn(Fragment=2)       -1    12.55705   2.66158  -1.96337 
 O(Fragment=2)        -1    12.66623   3.02688  -4.22874 
 O(Fragment=2)        -1    10.83769   1.2444   -3.93214 
 Zn(Fragment=2)       -1    12.55721   0.99785  -3.15712 
 O(Fragment=2)        -1    12.66657  -0.03816  -5.20455 
 O(Fragment=2)        -1    10.83799  -1.30595  -3.91699 
 Zn(Fragment=2)       -1    12.55745  -1.04981  -3.14496 
 O(Fragment=2)        -1    12.66695  -3.0914   -4.19241 
 O(Fragment=2)        -1    10.83827  -3.36033  -2.40568 
 Zn(Fragment=2)       -1    12.55768  -2.69925  -1.93154 
 O(Fragment=2)        -1    12.66724  -4.9666   -1.57892 
 O(Fragment=2)        -1    10.83843  -4.13403   0.02453 
 Zn(Fragment=2)       -1    12.5578  -3.32045   0.01966 
 O(Fragment=2)        -1    12.66733  -4.9475    1.63766 
 O(Fragment=2)        -1    10.8384  -3.33153   2.44538 
 Zn(Fragment=2)       -1    12.55778  -2.67612   1.96334 
 O(Fragment=2)        -1    12.66718  -3.0414    4.22869 
 O(Fragment=2)        -1    10.8382  -1.25935   3.93219 
 Zn(Fragment=2)       -1    12.55762  -1.01239   3.15708 
 O(Fragment=2)        -1    7.51684   0.018     4.35519 
 Zn(Fragment=2)       -1    9.33217   0.01485   3.78956 
 O(Fragment=2)        -1    4.32024   1.3419    4.07306 
 Zn(Fragment=2)       -1    6.14148   1.1651    3.53902 
 O(Fragment=2)        -1    7.51651   2.5729    3.50824 
 Zn(Fragment=2)       -1    9.33189   2.23796   3.0526 
 O(Fragment=2)        -1    4.31991   3.47786   2.50165 
 Zn(Fragment=2)       -1    6.14123   3.02114   2.17361 
 O(Fragment=2)        -1    7.51627   4.14204   1.32131 
 Zn(Fragment=2)       -1    9.33168   3.60332   1.14968 
 O(Fragment=2)        -1    4.31963   4.28264  -0.02523 
 Zn(Fragment=2)       -1    6.1411    3.72018  -0.02203 
 O(Fragment=2)        -1    7.5162    4.12606  -1.37027 
 Zn(Fragment=2)       -1    9.33162   3.58941  -1.19235 
 O(Fragment=2)        -1    4.31969   3.44816  -2.54256 
 Zn(Fragment=2)       -1    6.14112   2.99516  -2.20911 
 O(Fragment=2)        -1    7.51633   2.53106  -3.5384 
 Zn(Fragment=2)       -1    9.33173   2.20155  -3.07892 
 O(Fragment=2)        -1    4.32003   1.29344  -4.08839 
 Zn(Fragment=2)       -1    6.1413    1.12299  -3.55239 
 O(Fragment=2)        -1    7.51661  -0.03372  -4.35495 
 Zn(Fragment=2)       -1    9.33197  -0.03015  -3.78942 
 O(Fragment=2)        -1    4.32034  -1.35838  -4.07265 
 Zn(Fragment=2)       -1    6.14157  -1.18115  -3.53871 
 O(Fragment=2)        -1    7.51693  -2.58863  -3.508 
 Zn(Fragment=2)       -1    9.33225  -2.25326  -3.05246 
 O(Fragment=2)        -1    4.32063  -3.49449  -2.50121 
 Zn(Fragment=2)       -1    6.14182  -3.03719  -2.1733 
 O(Fragment=2)        -1    7.51717  -4.15777  -1.32108 
 Zn(Fragment=2)       -1    9.33247  -3.61862  -1.14955 
 O(Fragment=2)        -1    4.3208   -4.29897   0.02568 
 Zn(Fragment=2)       -1    6.14196  -3.7362    0.02229 
 O(Fragment=2)        -1    7.51724  -4.14179   1.3705 
 Zn(Fragment=2)       -1    9.33253  -3.60471   1.19249 
 O(Fragment=2)        -1    4.32077  -3.46453   2.54285 
 Zn(Fragment=2)       -1    6.14194  -3.01117   2.20943 
 O(Fragment=2)        -1    7.51712  -2.54679   3.53864 
 Zn(Fragment=2)       -1    9.33242  -2.21685   3.07905 
 O(Fragment=2)        -1    4.32055  -1.30991   4.0888 
 Zn(Fragment=2)       -1    6.14176  -1.13904   3.5527 
 O(Fragment=2)        -1    1.09555   0.01674   4.27068 
 Zn(Fragment=2)       -1    2.90621   0.01354   3.69584 
 O(Fragment=2)        -1   -2.14548   1.32731   4.03152 
 Zn(Fragment=2)       -1   -0.33548   1.1529    3.5047 
 O(Fragment=2)        -1    1.09524   2.52197   3.4402 
 Zn(Fragment=2)       -1    2.90592   2.18159   2.97716 
 O(Fragment=2)        -1   -2.14574   3.44169   2.47618 
 Zn(Fragment=2)       -1   -0.33583   2.99077   2.15257 
 O(Fragment=2)        0     1.05753   4.20305   1.27611 
 Zn(Fragment=2)       -1    2.90593   3.51334   1.12134 
 O(Fragment=2)        0    -2.1527    2.55484   0.00221 
 Zn(Fragment=2)       0    -0.37998   3.55057  -0.05697 
 O(Fragment=2)        0     1.24832   2.52584  -0.83175 
 Zn(Fragment=2)       -1    2.90596   3.49865  -1.16246 
 O(Fragment=2)        -1   -2.14611   3.41095  -2.51645 
 Zn(Fragment=2)       -1   -0.33565   2.96657  -2.18741 
 O(Fragment=2)        -1    1.09504   2.48086  -3.46942 
 Zn(Fragment=2)       -1    2.90581   2.14605  -3.00244 
 O(Fragment=2)        -1   -2.1457    1.27935  -4.04634 
 Zn(Fragment=2)       -1   -0.33566   1.1112   -3.51758 
 O(Fragment=2)        -1    1.09533  -0.03397  -4.2701 
 Zn(Fragment=2)       -1    2.90602  -0.03035  -3.69535 
 O(Fragment=2)        -1   -2.14539  -1.34531  -4.03076 
 Zn(Fragment=2)       -1   -0.33539  -1.17047  -3.50403 
 O(Fragment=2)        -1    1.09564  -2.5392   -3.43962 
 Zn(Fragment=2)       -1    2.90629  -2.19838  -2.97666 
 O(Fragment=2)        -1   -2.1451   -3.45954  -2.47541 
 Zn(Fragment=2)       -1   -0.33514  -3.00842  -2.15194 
 O(Fragment=2)        -1    1.09588  -4.07783  -1.29521 
 Zn(Fragment=2)       -1    2.9065   -3.52991  -1.12089 
 O(Fragment=2)        -1   -2.14494  -4.25578   0.0256 
 Zn(Fragment=2)       -1   -0.335    -3.70061   0.02225 
 O(Fragment=2)        -1    1.09595  -4.06216   1.34403 
 Zn(Fragment=2)       -1    2.90656  -3.51634   1.16312 
 O(Fragment=2)        -1   -2.14497  -3.42989   2.51698 
 Zn(Fragment=2)       -1   -0.33503  -2.98265   2.18807 
 O(Fragment=2)        -1    1.09583  -2.49817   3.47002 
 Zn(Fragment=2)       -1    2.90645  -2.16287   3.00294 
 O(Fragment=2)        -1   -2.14518  -1.29734   4.04711 
 Zn(Fragment=2)       -1   -0.33521  -1.12877   3.51825 
 O(Fragment=2)        -1   -5.38837   0.01599   4.27263 
 Zn(Fragment=2)       -1   -3.58541   0.0127    3.68308 
 O(Fragment=2)        -1   -8.62948   1.28868   3.91746 
 Zn(Fragment=2)       -1   -6.83406   1.14242   3.47554 
 O(Fragment=2)        -1   -5.38868   2.52226   3.44181 
 Zn(Fragment=2)       -1   -3.58568   2.17313   2.96691 
 O(Fragment=2)        -1   -8.62976   3.343     2.4062 
 Zn(Fragment=2)       -1   -6.8343    2.965     2.13479 
 O(Fragment=2)        -1   -5.38886   4.06179   1.29629 
 Zn(Fragment=2)       -1   -3.58605   3.49952   1.11795 
 O(Fragment=2)        -1   -8.62992   4.11668  -0.02394 
 Zn(Fragment=2)       -1   -6.83447   3.6513   -0.02121 
 O(Fragment=2)        -1   -5.38897   4.04596  -1.34372 
 Zn(Fragment=2)       -1   -3.58598   3.48662  -1.15853 
 O(Fragment=2)        -1   -8.62989   3.3142   -2.44473 
 Zn(Fragment=2)       -1   -6.83442   2.93943  -2.16893 
 O(Fragment=2)        -1   -5.38887   2.48121  -3.47069 
 Zn(Fragment=2)       -1   -3.58586   2.13774  -2.99168 
 O(Fragment=2)        -1   -8.62969   1.24208  -3.93149 
 Zn(Fragment=2)       -1   -6.83425   1.10107  -3.48796 
 O(Fragment=2)        -1   -5.38859  -0.03475  -4.27169 
 Zn(Fragment=2)       -1   -3.58561  -0.03103  -3.68224 
 O(Fragment=2)        -1   -8.62939  -1.3082   -3.91635 
 Zn(Fragment=2)       -1   -6.83398  -1.16151  -3.47452 
 O(Fragment=2)        -1   -5.38828  -2.54101  -3.44087 
 Zn(Fragment=2)       -1   -3.58533  -2.19147  -2.96606 
 O(Fragment=2)        -1   -8.62911  -3.36252  -2.40508 
 Zn(Fragment=2)       -1   -6.83373  -2.98408  -2.13374 
 O(Fragment=2)        -1   -5.38804  -4.08028  -1.29557 
 Zn(Fragment=2)       -1   -3.58513  -3.51834  -1.11679 
 O(Fragment=2)        -1   -8.62895  -4.1362    0.02506 
 Zn(Fragment=2)       -1   -6.83359  -3.67048   0.02225 
 O(Fragment=2)        -1   -5.38797  -4.0646    1.34477 
 Zn(Fragment=2)       -1   -3.58507  -3.50483   1.15922 
 O(Fragment=2)        -1   -8.62898  -3.33372   2.44584 
 Zn(Fragment=2)       -1   -6.83362  -2.95852   2.16994 
 O(Fragment=2)        -1   -5.38809  -2.49997   3.47163 
 Zn(Fragment=2)       -1   -3.58518  -2.15609   2.99261 
 O(Fragment=2)        -1   -8.62918  -1.2616    3.93261 
 Zn(Fragment=2)       -1   -6.8338   -1.12016   3.48898 
 O(Fragment=2)        -1   -11.89393   0.0169    4.55417 
 Zn(Fragment=2)       -1   -10.12158   0.0122    3.72834 
 Zn(Fragment=2)       -1   -12.64425   1.5963    4.84695 
 O(Fragment=2)        -1   -11.89427   2.68822   3.66863 
 Zn(Fragment=2)       -1   -10.12185   2.19908   3.00339 
 Zn(Fragment=2)       -1   -12.64459   4.13805   2.9771 
 O(Fragment=2)        -1   -11.89453   4.32887   1.38205 
 Zn(Fragment=2)       -1   -10.12206   3.54219   1.13148 
 Zn(Fragment=2)       -1   -12.64479   5.09531  -0.02965 
 O(Fragment=2)        -1   -11.8946   4.31216  -1.43218 
 Zn(Fragment=2)       -1   -10.12212   3.52851  -1.17239 
 Zn(Fragment=2)       -1   -12.64475   4.10241  -3.02482 
 O(Fragment=2)        -1   -11.89447   2.64447  -3.69912 
 Zn(Fragment=2)       -1   -10.12201   2.16327  -3.02821 
 Zn(Fragment=2)       -1   -12.6445   1.53863  -4.86435 
 O(Fragment=2)        -1   -11.89418  -0.03718  -4.55287 
 Zn(Fragment=2)       -1   -10.12178  -0.03207  -3.72714 
 Zn(Fragment=2)       -1   -12.64413  -1.61676  -4.84562 
 O(Fragment=2)        -1   -11.89384  -2.70851  -3.66734 
 Zn(Fragment=2)       -1   -10.1215  -2.21895  -3.00219 
 Zn(Fragment=2)       -1   -12.64378  -4.15852  -2.97576 
 O(Fragment=2)        -1   -11.89358  -4.34915  -1.38075 
 Zn(Fragment=2)       -1   -10.12129  -3.56206  -1.13028 
 Zn(Fragment=2)       -1   -12.64359  -5.11577   0.03098 
 O(Fragment=2)        -1   -11.89351  -4.33244   1.43348 
 Zn(Fragment=2)       -1   -10.12123  -3.54838   1.17358 
 Zn(Fragment=2)       -1   -12.64362  -4.12288   3.02615 
 O(Fragment=2)        -1   -11.89364  -2.66476   3.70042 
 Zn(Fragment=2)       -1   -10.12134  -2.18314   3.02941 
 Zn(Fragment=2)       -1   -12.64387  -1.5591    4.86569 
 H(Fragment=1)        -1   -13.76128  -1.94233   6.06906 
 H(Fragment=1)        -1   -13.76097  -5.14025   3.77452 
 H(Fragment=1)        -1   -13.76093  -6.37873   0.03851 
 H(Fragment=1)        -1   -13.76117  -5.18471  -3.71194 
 H(Fragment=1)        -1   -13.7616  -2.01426  -6.04429 
 H(Fragment=1)        -1   -13.76207   1.92161  -6.06766 
 H(Fragment=1)        -1   -13.76238   5.11953  -3.77313 
 H(Fragment=1)        -1   -13.76242   6.358    -0.03712 
 H(Fragment=1)        -1   -13.76218   5.16398   3.71334 
 H(Fragment=1)        -1   -13.76175   1.99354   6.04569 
 H(Fragment=1)        -1    11.70483   3.23674  -4.52135 
 H(Fragment=1)        -1    13.25355   3.47258  -4.84983 
 H(Fragment=1)        -1    11.70518  -0.04041  -5.56469 
 H(Fragment=1)        -1    13.25393  -0.04263  -5.96896 
 H(Fragment=1)        -1    11.7056  -3.30495  -4.48251 
 H(Fragment=1)        -1    13.25437  -3.54431  -4.80817 
 H(Fragment=1)        -1    11.70591  -5.30992  -1.68815 
 H(Fragment=1)        -1    13.25471  -5.69493  -1.81083 
 H(Fragment=1)        -1    11.706   -5.2895    1.75102 
 H(Fragment=1)        -1    13.2548  -5.67302   1.87817 
 H(Fragment=1)        -1    11.70584  -3.25148   4.52136 
 H(Fragment=1)        -1    13.25463  -3.48696   4.84976 
 H(Fragment=1)        -1    13.25424   0.02826   5.96889 
 H(Fragment=1)        -1    11.70548   0.02567   5.5647 
 H(Fragment=1)        -1    11.70507   3.29021   4.48251 
 H(Fragment=1)        -1    13.2538   3.52993   4.80809 
 H(Fragment=1)        -1    11.70475   5.29518   1.68816 
 H(Fragment=1)        -1    13.25347   5.68055   1.81075 
 H(Fragment=1)        -1    11.70466   5.27476  -1.75101 
 H(Fragment=1)        -1    13.25337   5.65865  -1.87825 
 N(Fragment=1)        0    -0.66927   5.74699  -0.41606 
 H(Fragment=1)        0     0.21736   6.22296  -0.23269 
 H(Fragment=1)        0    -1.33728   6.11515   0.26591 
 H(Fragment=1)        0    -0.99583   6.04662  -1.33578 
 

 GradGradGradGradGradGradGradGradGradGradGradGradGradGradGradGradGradGrad
 Berny optimization.
 Initialization pass.
 Trust Radius=3.00D-01 FncErr=1.00D-07 GrdErr=1.00D-07
 Number of steps in this run=      2 maximum allowed number of steps=      2.
 GradGradGradGradGradGradGradGradGradGradGradGradGradGradGradGradGradGrad

 Stoichiometry    H33NO90Zn90
 Framework group  C1[X(H33NO90Zn90)]
 Deg. of freedom   636
 Full point group                 C1      NOp   1
 Largest Abelian subgroup         C1      NOp   1
 Largest concise Abelian subgroup C1      NOp   1
                         Standard orientation:                         
 ---------------------------------------------------------------------
 Center     Atomic      Atomic             Coordinates (Angstroms)
 Number     Number       Type             X           Y           Z
 ---------------------------------------------------------------------
      1          8           0       12.666843    0.023647    5.204503
      2          8           0       10.837900    1.291009    3.917048
      3         30           0       12.557376    1.035269    3.144922
      4          8           0       12.666457    3.076888    4.192362
      5          8           0       10.837618    3.345388    2.405736
      6         30           0       12.557149    2.684712    1.931503
      7          8           0       12.666165    4.952090    1.578873
      8          8           0       10.837461    4.119088   -0.024475
      9         30           0       12.557023    3.305908   -0.019692
     10          8           0       12.666080    4.932990   -1.637700
     11          8           0       10.837489    3.316582   -2.445327
     12         30           0       12.557046    2.661584   -1.963372
     13          8           0       12.666234    3.026883   -4.228736
     14          8           0       10.837692    1.244401   -3.932135
     15         30           0       12.557209    0.997847   -3.157118
     16          8           0       12.666567   -0.038162   -5.204546
     17          8           0       10.837992   -1.305954   -3.916991
     18         30           0       12.557449   -1.049810   -3.144959
     19          8           0       12.666953   -3.091403   -4.192405
     20          8           0       10.838275   -3.360332   -2.405679
     21         30           0       12.557676   -2.699252   -1.931540
     22          8           0       12.667245   -4.966605   -1.578916
     23          8           0       10.838432   -4.134032    0.024532
     24         30           0       12.557802   -3.320449    0.019655
     25          8           0       12.667330   -4.947505    1.637657
     26          8           0       10.838403   -3.331527    2.445383
     27         30           0       12.557780   -2.676124    1.963336
     28          8           0       12.667177   -3.041398    4.228693
     29          8           0       10.838200   -1.259345    3.932192
     30         30           0       12.557617   -1.012388    3.157081
     31          8           0        7.516836    0.017998    4.355186
     32         30           0        9.332173    0.014853    3.789555
     33          8           0        4.320243    1.341901    4.073058
     34         30           0        6.141485    1.165100    3.539020
     35          8           0        7.516513    2.572903    3.508242
     36         30           0        9.331892    2.237959    3.052602
     37          8           0        4.319913    3.477860    2.501653
     38         30           0        6.141228    3.021137    2.173614
     39          8           0        7.516269    4.142044    1.321314
     40         30           0        9.331680    3.603320    1.149684
     41          8           0        4.319628    4.282642   -0.025232
     42         30           0        6.141097    3.720180   -0.022029
     43          8           0        7.516198    4.126061   -1.370266
     44         30           0        9.331618    3.589413   -1.192347
     45          8           0        4.319692    3.448162   -2.542564
     46         30           0        6.141123    2.995164   -2.209112
     47          8           0        7.516326    2.531060   -3.538405
     48         30           0        9.331729    2.201550   -3.078916
     49          8           0        4.320026    1.293439   -4.088393
     50         30           0        6.141297    1.122991   -3.552390
     51          8           0        7.516605   -0.033723   -4.354948
     52         30           0        9.331972   -0.030151   -3.789417
     53          8           0        4.320338   -1.358377   -4.072646
     54         30           0        6.141568   -1.181148   -3.538708
     55          8           0        7.516929   -2.588628   -3.508004
     56         30           0        9.332253   -2.253258   -3.052463
     57          8           0        4.320632   -3.494486   -2.501209
     58         30           0        6.141823   -3.037193   -2.173300
     59          8           0        7.517172   -4.157769   -1.321076
     60         30           0        9.332466   -3.618618   -1.149546
     61          8           0        4.320795   -4.298966    0.025684
     62         30           0        6.141965   -3.736199    0.022294
     63          8           0        7.517244   -4.141786    1.370503
     64         30           0        9.332528   -3.604711    1.192486
     65          8           0        4.320766   -3.464534    2.542845
     66         30           0        6.141939   -3.011168    2.209432
     67          8           0        7.517115   -2.546785    3.538642
     68         30           0        9.332416   -2.216849    3.079054
     69          8           0        4.320555   -1.309915    4.088804
     70         30           0        6.141756   -1.139039    3.552702
     71          8           0        1.095553    0.016741    4.270683
     72         30           0        2.906212    0.013540    3.695841
     73          8           0       -2.145484    1.327314    4.031520
     74         30           0       -0.335477    1.152904    3.504698
     75          8           0        1.095242    2.521975    3.440201
     76         30           0        2.905920    2.181587    2.977164
     77          8           0       -2.145739    3.441688    2.476183
     78         30           0       -0.335830    2.990768    2.152568
     79          8           0        1.057531    4.203054    1.276115
     80         30           0        2.905930    3.513339    1.121335
     81          8           0       -2.152703    2.554839    0.002213
     82         30           0       -0.379977    3.550571   -0.056970
     83          8           0        1.248323    2.525845   -0.831753
     84         30           0        2.905957    3.498651   -1.162461
     85          8           0       -2.146106    3.410946   -2.516448
     86         30           0       -0.335652    2.966570   -2.187408
     87          8           0        1.095037    2.480862   -3.469417
     88         30           0        2.905805    2.146052   -3.002436
     89          8           0       -2.145699    1.279347   -4.046342
     90         30           0       -0.335660    1.111201   -3.517577
     91          8           0        1.095327   -0.033975   -4.270096
     92         30           0        2.906016   -0.030349   -3.695353
     93          8           0       -2.145390   -1.345309   -4.030756
     94         30           0       -0.335394   -1.170472   -3.504032
     95          8           0        1.095644   -2.539203   -3.439619
     96         30           0        2.906291   -2.198375   -2.976658
     97          8           0       -2.145099   -3.459540   -2.475413
     98         30           0       -0.335141   -3.008423   -2.151935
     99          8           0        1.095883   -4.077834   -1.295213
    100         30           0        2.906498   -3.529907   -1.120888
    101          8           0       -2.144937   -4.255781    0.025599
    102         30           0       -0.335001   -3.700615    0.022255
    103          8           0        1.095953   -4.062162    1.344033
    104         30           0        2.906558   -3.516345    1.163117
    105          8           0       -2.144967   -3.429895    2.516980
    106         30           0       -0.335026   -2.982652    2.188071
    107          8           0        1.095827   -2.498174    3.470016
    108         30           0        2.906449   -2.162868    3.002944
    109          8           0       -2.145176   -1.297343    4.047105
    110         30           0       -0.335208   -1.128774    3.518245
    111          8           0       -5.388367    0.015989    4.272626
    112         30           0       -3.585412    0.012701    3.683083
    113          8           0       -8.629482    1.288685    3.917465
    114         30           0       -6.834062    1.142415    3.475541
    115          8           0       -5.388684    2.522255    3.441806
    116         30           0       -3.585680    2.173133    2.966905
    117          8           0       -8.629764    3.343004    2.406196
    118         30           0       -6.834304    2.964996    2.134794
    119          8           0       -5.388861    4.061790    1.296291
    120         30           0       -3.586045    3.499521    1.117950
    121          8           0       -8.629921    4.116681   -0.023945
    122         30           0       -6.834471    3.651304   -0.021214
    123          8           0       -5.388967    4.045962   -1.343724
    124         30           0       -3.585981    3.486618   -1.158531
    125          8           0       -8.629893    3.314199   -2.444726
    126         30           0       -6.834424    2.939431   -2.168928
    127          8           0       -5.388867    2.481209   -3.470688
    128         30           0       -3.585859    2.137741   -2.991680
    129          8           0       -8.629690    1.242077   -3.931492
    130         30           0       -6.834246    1.101066   -3.487957
    131          8           0       -5.388593   -0.034747   -4.271686
    132         30           0       -3.585607   -0.031035   -3.682241
    133          8           0       -8.629390   -1.308203   -3.916349
    134         30           0       -6.833980   -1.161512   -3.474522
    135          8           0       -5.388276   -2.541012   -3.440866
    136         30           0       -3.585334   -2.191473   -2.966062
    137          8           0       -8.629107   -3.362523   -2.405080
    138         30           0       -6.833730   -2.984079   -2.133743
    139          8           0       -5.388037   -4.080280   -1.295572
    140         30           0       -3.585128   -3.518344   -1.116787
    141          8           0       -8.628950   -4.136200    0.025061
    142         30           0       -6.833590   -3.670476    0.022248
    143          8           0       -5.387967   -4.064601    1.344765
    144         30           0       -3.585067   -3.504829    1.159224
    145          8           0       -8.628979   -3.333718    2.445842
    146         30           0       -6.833615   -2.958523    2.169935
    147          8           0       -5.388093   -2.499966    3.471628
    148         30           0       -3.585176   -2.156090    2.992611
    149          8           0       -8.629182   -1.261596    3.932608
    150         30           0       -6.833796   -1.120163    3.488976
    151          8           0      -11.893934    0.016896    4.554168
    152         30           0      -10.121577    0.012201    3.728335
    153         30           0      -12.644245    1.596299    4.846952
    154          8           0      -11.894272    2.688224    3.668629
    155         30           0      -10.121854    2.199082    3.003390
    156         30           0      -12.644595    4.138054    2.977100
    157          8           0      -11.894527    4.328868    1.382047
    158         30           0      -10.122063    3.542194    1.131481
    159         30           0      -12.644789    5.095305   -0.029649
    160          8           0      -11.894601    4.312157   -1.432184
    161         30           0      -10.122124    3.528513   -1.172387
    162         30           0      -12.644754    4.102415   -3.024818
    163          8           0      -11.894467    2.644474   -3.699122
    164         30           0      -10.122014    2.163266   -3.028214
    165         30           0      -12.644503    1.538633   -4.864355
    166          8           0      -11.894175   -0.037182   -4.552874
    167         30           0      -10.121775   -0.032070   -3.727138
    168         30           0      -12.644131   -1.616761   -4.845618
    169          8           0      -11.893837   -2.708510   -3.667336
    170         30           0      -10.121498   -2.218951   -3.002193
    171         30           0      -12.643782   -4.158516   -2.975765
    172          8           0      -11.893582   -4.349154   -1.380753
    173         30           0      -10.121290   -3.562063   -1.130283
    174         30           0      -12.643588   -5.115767    0.030984
    175          8           0      -11.893508   -4.332443    1.433478
    176         30           0      -10.121229   -3.548383    1.173585
    177         30           0      -12.643623   -4.122877    3.026153
    178          8           0      -11.893642   -2.664760    3.700416
    179         30           0      -10.121338   -2.183136    3.029412
    180         30           0      -12.643874   -1.559096    4.865689
    181          1           0      -13.761283   -1.942331    6.069059
    182          1           0      -13.760969   -5.140251    3.774523
    183          1           0      -13.760925   -6.378728    0.038513
    184          1           0      -13.761168   -5.184706   -3.711940
    185          1           0      -13.761604   -2.014260   -6.044293
    186          1           0      -13.762067    1.921606   -6.067664
    187          1           0      -13.762380    5.119527   -3.773127
    188          1           0      -13.762424    6.358004   -0.037118
    189          1           0      -13.762182    5.163981    3.713336
    190          1           0      -13.761746    1.993536    6.045688
    191          1           0       11.704827    3.236742   -4.521350
    192          1           0       13.253546    3.472584   -4.849834
    193          1           0       11.705183   -0.040414   -5.564690
    194          1           0       13.253928   -0.042632   -5.968964
    195          1           0       11.705596   -3.304948   -4.482505
    196          1           0       13.254371   -3.544310   -4.808167
    197          1           0       11.705908   -5.309920   -1.688154
    198          1           0       13.254705   -5.694928   -1.810828
    199          1           0       11.705999   -5.289498    1.751016
    200          1           0       13.254803   -5.673022    1.878171
    201          1           0       11.705835   -3.251483    4.521359
    202          1           0       13.254627   -3.486961    4.849759
    203          1           0       13.254245    0.028255    5.968889
    204          1           0       11.705479    0.025673    5.564699
    205          1           0       11.705066    3.290207    4.482515
    206          1           0       13.253802    3.529933    4.808092
    207          1           0       11.704754    5.295179    1.688164
    208          1           0       13.253467    5.680551    1.810754
    209          1           0       11.704663    5.274758   -1.751006
    210          1           0       13.253370    5.658645   -1.878246
    211          7           0       -0.669272    5.746986   -0.416057
    212          1           0        0.217357    6.222957   -0.232687
    213          1           0       -1.337282    6.115149    0.265913
    214          1           0       -0.995826    6.046619   -1.335784
 ---------------------------------------------------------------------
 Rotational constants (GHZ):      0.0044188      0.0009179      0.0009176
 Standard basis: VSTO-6G (5D, 7F)
 There are   757 symmetry adapted cartesian basis functions of A   symmetry.
 There are   757 symmetry adapted basis functions of A   symmetry.
   757 basis functions,  4542 primitive gaussians,   757 cartesian basis functions
   379 alpha electrons      379 beta electrons
       nuclear repulsion energy     17603.5208646638 Hartrees.
 Integral buffers will be    262144 words long.
 Regular integral format.
 Two-electron integral symmetry is turned off.
 Do NDO integrals.
 One-electron integrals computed using PRISM.
 NBasis=   757 RedAO= F EigKep=  0.00D+00  NBF=   757
 NBsUse=   757 1.00D-04 EigRej=  0.00D+00 NBFU=   757
 Nonelectrostatic core Hamiltonian diagonalized for initial guess.
 Overlap will be assumed to be unity.
 Keep J ints in memory in canonical form, NReq=4463520.
 Requested convergence on RMS density matrix=1.00D-08 within 128 cycles.
 Requested convergence on MAX density matrix=1.00D-06.
 Requested convergence on             energy=1.00D-06.
 No special actions if energy rises.
 EnCoef did   100 forward-backward iterations
 EnCoef did     2 forward-backward iterations
 EnCoef did     7 forward-backward iterations
 EnCoef did     5 forward-backward iterations
 EnCoef did     2 forward-backward iterations
 EnCoef did     4 forward-backward iterations
 EnCoef did   100 forward-backward iterations
 EnCoef did   100 forward-backward iterations
 EnCoef did     2 forward-backward iterations
 EnCoef did     4 forward-backward iterations
 EnCoef did     2 forward-backward iterations
 SCF Done:  E(RPM6) =  -10.3408417516     A.U. after   41 cycles
            NFock= 40  Conv=0.81D-08     -V/T= 0.9840
 Range of M.O.s used for correlation:     1   757
 NBasis=   757 NAE=   379 NBE=   379 NFC=     0 NFV=     0
 NROrb=    757 NOA=   379 NOB=   379 NVA=   378 NVB=   378

 **** Warning!!: The smallest alpha delta epsilon is  0.99394577D-01

          Differentiating once with respect to electric field.
                with respect to dipole field.
          Electric field/nuclear overlap derivatives assumed to be zero.
 Keep J ints in memory in canonical form, NReq=2792790.
          There are     3 degrees of freedom in the 1st order CPHF.  IDoFFX=0 NUNeed=     3.
 LinEq1:  Iter=  0 NonCon=     3 RMS=1.41D-01 Max=1.27D+01 NDo=     3
 AX will form     3 AO Fock derivatives at one time.
 LinEq1:  Iter=  1 NonCon=     3 RMS=3.23D-02 Max=1.90D+00 NDo=     3
 LinEq1:  Iter=  2 NonCon=     3 RMS=1.18D-02 Max=6.14D-01 NDo=     3
 LinEq1:  Iter=  3 NonCon=     3 RMS=4.22D-03 Max=3.29D-01 NDo=     3
 LinEq1:  Iter=  4 NonCon=     3 RMS=1.48D-03 Max=6.01D-02 NDo=     3
 LinEq1:  Iter=  5 NonCon=     3 RMS=5.34D-04 Max=1.66D-02 NDo=     3
 LinEq1:  Iter=  6 NonCon=     3 RMS=2.09D-04 Max=7.92D-03 NDo=     3
 LinEq1:  Iter=  7 NonCon=     3 RMS=7.20D-05 Max=4.15D-03 NDo=     3
 LinEq1:  Iter=  8 NonCon=     3 RMS=2.56D-05 Max=1.34D-03 NDo=     3
 LinEq1:  Iter=  9 NonCon=     3 RMS=1.03D-05 Max=5.16D-04 NDo=     3
 LinEq1:  Iter= 10 NonCon=     3 RMS=3.38D-06 Max=1.63D-04 NDo=     3
 LinEq1:  Iter= 11 NonCon=     3 RMS=1.45D-06 Max=7.41D-05 NDo=     3
 LinEq1:  Iter= 12 NonCon=     3 RMS=5.22D-07 Max=2.21D-05 NDo=     3
 LinEq1:  Iter= 13 NonCon=     3 RMS=1.58D-07 Max=7.41D-06 NDo=     3
 LinEq1:  Iter= 14 NonCon=     3 RMS=7.18D-08 Max=4.09D-06 NDo=     3
 LinEq1:  Iter= 15 NonCon=     3 RMS=2.66D-08 Max=1.80D-06 NDo=     3
 LinEq1:  Iter= 16 NonCon=     3 RMS=1.03D-08 Max=5.82D-07 NDo=     3
 LinEq1:  Iter= 17 NonCon=     3 RMS=3.98D-09 Max=2.11D-07 NDo=     3
 LinEq1:  Iter= 18 NonCon=     0 RMS=1.27D-09 Max=4.91D-08 NDo=     3
 Linear equations converged to 1.000D-08 1.000D-07 after    18 iterations.
 End of Minotr F.D. properties file   721 does not exist.
 End of Minotr F.D. properties file   722 does not exist.
 End of Minotr F.D. properties file   788 does not exist.
 Symmetrizing basis deriv contribution to polar:
 IMax=3 JMax=2 DiffMx= 0.00D+00
 G2DrvN: will do    16 centers at a time, making   14 passes.
 PxScal for G2LodP:  IOpCl= 0 ISclPx=1 IMOff=     1 NMtTot=     4 NTT=  286903 ScalPx= 4.13D+00
 Calling FoFCou, ICntrl=  3107 FMM=F I1Cent=   0 AccDes= 0.00D+00.
 PxScal for G2LodP:  IOpCl= 0 ISclPx=1 IMOff=     1 NMtTot=     4 NTT=  286903 ScalPx= 4.13D+00
 Calling FoFCou, ICntrl=  3107 FMM=F I1Cent=   0 AccDes= 0.00D+00.
 PxScal for G2LodP:  IOpCl= 0 ISclPx=1 IMOff=     1 NMtTot=     4 NTT=  286903 ScalPx= 4.13D+00
 Calling FoFCou, ICntrl=  3107 FMM=F I1Cent=   0 AccDes= 0.00D+00.
 PxScal for G2LodP:  IOpCl= 0 ISclPx=1 IMOff=     1 NMtTot=     4 NTT=  286903 ScalPx= 4.13D+00
 Calling FoFCou, ICntrl=  3107 FMM=F I1Cent=   0 AccDes= 0.00D+00.
 PxScal for G2LodP:  IOpCl= 0 ISclPx=1 IMOff=     1 NMtTot=     4 NTT=  286903 ScalPx= 4.13D+00
 Calling FoFCou, ICntrl=  3107 FMM=F I1Cent=   0 AccDes= 0.00D+00.
 PxScal for G2LodP:  IOpCl= 0 ISclPx=1 IMOff=     1 NMtTot=     4 NTT=  286903 ScalPx= 4.13D+00
 Calling FoFCou, ICntrl=  3107 FMM=F I1Cent=   0 AccDes= 0.00D+00.
 PxScal for G2LodP:  IOpCl= 0 ISclPx=1 IMOff=     1 NMtTot=     4 NTT=  286903 ScalPx= 4.13D+00
 Calling FoFCou, ICntrl=  3107 FMM=F I1Cent=   0 AccDes= 0.00D+00.
 PxScal for G2LodP:  IOpCl= 0 ISclPx=1 IMOff=     1 NMtTot=     4 NTT=  286903 ScalPx= 4.13D+00
 Calling FoFCou, ICntrl=  3107 FMM=F I1Cent=   0 AccDes= 0.00D+00.
 PxScal for G2LodP:  IOpCl= 0 ISclPx=1 IMOff=     1 NMtTot=     4 NTT=  286903 ScalPx= 4.13D+00
 Calling FoFCou, ICntrl=  3107 FMM=F I1Cent=   0 AccDes= 0.00D+00.
 PxScal for G2LodP:  IOpCl= 0 ISclPx=1 IMOff=     1 NMtTot=     4 NTT=  286903 ScalPx= 4.13D+00
 Calling FoFCou, ICntrl=  3107 FMM=F I1Cent=   0 AccDes= 0.00D+00.
 PxScal for G2LodP:  IOpCl= 0 ISclPx=1 IMOff=     1 NMtTot=     4 NTT=  286903 ScalPx= 4.13D+00
 Calling FoFCou, ICntrl=  3107 FMM=F I1Cent=   0 AccDes= 0.00D+00.
 PxScal for G2LodP:  IOpCl= 0 ISclPx=1 IMOff=     1 NMtTot=     4 NTT=  286903 ScalPx= 4.13D+00
 Calling FoFCou, ICntrl=  3107 FMM=F I1Cent=   0 AccDes= 0.00D+00.
 PxScal for G2LodP:  IOpCl= 0 ISclPx=1 IMOff=     1 NMtTot=     4 NTT=  286903 ScalPx= 4.13D+00
 Calling FoFCou, ICntrl=  3107 FMM=F I1Cent=   0 AccDes= 0.00D+00.
 PxScal for G2LodP:  IOpCl= 0 ISclPx=1 IMOff=     1 NMtTot=     4 NTT=  286903 ScalPx= 4.13D+00
 Calling FoFCou, ICntrl=  3107 FMM=F I1Cent=   0 AccDes= 0.00D+00.
 End of G2Drv F.D. properties file   721 does not exist.
 End of G2Drv F.D. properties file   722 does not exist.
 End of G2Drv F.D. properties file   788 does not exist.
          IDoAtm=00000000000000000000000000000000000000000000000000
          IDoAtm=00000000000000000000000000001011100000000000000000
          IDoAtm=00000000000000000000000000000000000000000000000000
          IDoAtm=00000000000000000000000000000000000000000000000000
          IDoAtm=00000000001111
          Differentiating once with respect to electric field.
                with respect to dipole field.
          Differentiating once with respect to nuclear coordinates.
          Electric field/nuclear overlap derivatives assumed to be zero.
 Keep J ints in memory in canonical form, NReq=2795572.
          There are    27 degrees of freedom in the 1st order CPHF.  IDoFFX=5 NUNeed=    27.
 Recover   3 previous solutions.
 LinEq1:  Iter=  0 NonCon=    24 RMS=6.24D-04 Max=5.03D-02 NDo=    24
 AX will form    24 AO Fock derivatives at one time.
 LinEq1:  Iter=  1 NonCon=    24 RMS=1.56D-04 Max=1.22D-02 NDo=    24
 LinEq1:  Iter=  2 NonCon=    24 RMS=5.44D-05 Max=1.87D-03 NDo=    24
 LinEq1:  Iter=  3 NonCon=    24 RMS=1.83D-05 Max=1.07D-03 NDo=    24
 LinEq1:  Iter=  4 NonCon=    24 RMS=8.41D-06 Max=4.82D-04 NDo=    24
 LinEq1:  Iter=  5 NonCon=    24 RMS=2.65D-06 Max=1.49D-04 NDo=    24
 LinEq1:  Iter=  6 NonCon=    24 RMS=1.09D-06 Max=5.70D-05 NDo=    24
 LinEq1:  Iter=  7 NonCon=    24 RMS=3.82D-07 Max=1.68D-05 NDo=    24
 LinEq1:  Iter=  8 NonCon=    24 RMS=1.33D-07 Max=5.61D-06 NDo=    24
 LinEq1:  Iter=  9 NonCon=    24 RMS=5.33D-08 Max=2.51D-06 NDo=    24
 LinEq1:  Iter= 10 NonCon=    19 RMS=1.95D-08 Max=8.61D-07 NDo=    24
 LinEq1:  Iter= 11 NonCon=    12 RMS=8.95D-09 Max=4.57D-07 NDo=    24
 LinEq1:  Iter= 12 NonCon=     5 RMS=3.23D-09 Max=1.33D-07 NDo=    24
 LinEq1:  Iter= 13 NonCon=     0 RMS=1.35D-09 Max=5.17D-08 NDo=    24
 Linear equations converged to 1.000D-08 1.000D-07 after    13 iterations.
 Isotropic polarizability for W=    0.000000     3278.65 Bohr**3.
 End of Minotr F.D. properties file   721 does not exist.
 End of Minotr F.D. properties file   722 does not exist.
 End of Minotr F.D. properties file   788 does not exist.

 **********************************************************************

            Population analysis using the SCF density.

 **********************************************************************

 Orbital symmetries:
       Occupied  (A) (A) (A) (A) (A) (A) (A) (A) (A) (A) (A) (A)
                 (A) (A) (A) (A) (A) (A) (A) (A) (A) (A) (A) (A)
                 (A) (A) (A) (A) (A) (A) (A) (A) (A) (A) (A) (A)
                 (A) (A) (A) (A) (A) (A) (A) (A) (A) (A) (A) (A)
                 (A) (A) (A) (A) (A) (A) (A) (A) (A) (A) (A) (A)
                 (A) (A) (A) (A) (A) (A) (A) (A) (A) (A) (A) (A)
                 (A) (A) (A) (A) (A) (A) (A) (A) (A) (A) (A) (A)
                 (A) (A) (A) (A) (A) (A) (A) (A) (A) (A) (A) (A)
                 (A) (A) (A) (A) (A) (A) (A) (A) (A) (A) (A) (A)
                 (A) (A) (A) (A) (A) (A) (A) (A) (A) (A) (A) (A)
                 (A) (A) (A) (A) (A) (A) (A) (A) (A) (A) (A) (A)
                 (A) (A) (A) (A) (A) (A) (A) (A) (A) (A) (A) (A)
                 (A) (A) (A) (A) (A) (A) (A) (A) (A) (A) (A) (A)
                 (A) (A) (A) (A) (A) (A) (A) (A) (A) (A) (A) (A)
                 (A) (A) (A) (A) (A) (A) (A) (A) (A) (A) (A) (A)
                 (A) (A) (A) (A) (A) (A) (A) (A) (A) (A) (A) (A)
                 (A) (A) (A) (A) (A) (A) (A) (A) (A) (A) (A) (A)
                 (A) (A) (A) (A) (A) (A) (A) (A) (A) (A) (A) (A)
                 (A) (A) (A) (A) (A) (A) (A) (A) (A) (A) (A) (A)
                 (A) (A) (A) (A) (A) (A) (A) (A) (A) (A) (A) (A)
                 (A) (A) (A) (A) (A) (A) (A) (A) (A) (A) (A) (A)
                 (A) (A) (A) (A) (A) (A) (A) (A) (A) (A) (A) (A)
                 (A) (A) (A) (A) (A) (A) (A) (A) (A) (A) (A) (A)
                 (A) (A) (A) (A) (A) (A) (A) (A) (A) (A) (A) (A)
                 (A) (A) (A) (A) (A) (A) (A) (A) (A) (A) (A) (A)
                 (A) (A) (A) (A) (A) (A) (A) (A) (A) (A) (A) (A)
                 (A) (A) (A) (A) (A) (A) (A) (A) (A) (A) (A) (A)
                 (A) (A) (A) (A) (A) (A) (A) (A) (A) (A) (A) (A)
                 (A) (A) (A) (A) (A) (A) (A) (A) (A) (A) (A) (A)
                 (A) (A) (A) (A) (A) (A) (A) (A) (A) (A) (A) (A)
                 (A) (A) (A) (A) (A) (A) (A) (A) (A) (A) (A) (A)
                 (A) (A) (A) (A) (A) (A) (A)
       Virtual   (A) (A) (A) (A) (A) (A) (A) (A) (A) (A) (A) (A)
                 (A) (A) (A) (A) (A) (A) (A) (A) (A) (A) (A) (A)
                 (A) (A) (A) (A) (A) (A) (A) (A) (A) (A) (A) (A)
                 (A) (A) (A) (A) (A) (A) (A) (A) (A) (A) (A) (A)
                 (A) (A) (A) (A) (A) (A) (A) (A) (A) (A) (A) (A)
                 (A) (A) (A) (A) (A) (A) (A) (A) (A) (A) (A) (A)
                 (A) (A) (A) (A) (A) (A) (A) (A) (A) (A) (A) (A)
                 (A) (A) (A) (A) (A) (A) (A) (A) (A) (A) (A) (A)
                 (A) (A) (A) (A) (A) (A) (A) (A) (A) (A) (A) (A)
                 (A) (A) (A) (A) (A) (A) (A) (A) (A) (A) (A) (A)
                 (A) (A) (A) (A) (A) (A) (A) (A) (A) (A) (A) (A)
                 (A) (A) (A) (A) (A) (A) (A) (A) (A) (A) (A) (A)
                 (A) (A) (A) (A) (A) (A) (A) (A) (A) (A) (A) (A)
                 (A) (A) (A) (A) (A) (A) (A) (A) (A) (A) (A) (A)
                 (A) (A) (A) (A) (A) (A) (A) (A) (A) (A) (A) (A)
                 (A) (A) (A) (A) (A) (A) (A) (A) (A) (A) (A) (A)
                 (A) (A) (A) (A) (A) (A) (A) (A) (A) (A) (A) (A)
                 (A) (A) (A) (A) (A) (A) (A) (A) (A) (A) (A) (A)
                 (A) (A) (A) (A) (A) (A) (A) (A) (A) (A) (A) (A)
                 (A) (A) (A) (A) (A) (A) (A) (A) (A) (A) (A) (A)
                 (A) (A) (A) (A) (A) (A) (A) (A) (A) (A) (A) (A)
                 (A) (A) (A) (A) (A) (A) (A) (A) (A) (A) (A) (A)
                 (A) (A) (A) (A) (A) (A) (A) (A) (A) (A) (A) (A)
                 (A) (A) (A) (A) (A) (A) (A) (A) (A) (A) (A) (A)
                 (A) (A) (A) (A) (A) (A) (A) (A) (A) (A) (A) (A)
                 (A) (A) (A) (A) (A) (A) (A) (A) (A) (A) (A) (A)
                 (A) (A) (A) (A) (A) (A) (A) (A) (A) (A) (A) (A)
                 (A) (A) (A) (A) (A) (A) (A) (A) (A) (A) (A) (A)
                 (A) (A) (A) (A) (A) (A) (A) (A) (A) (A) (A) (A)
                 (A) (A) (A) (A) (A) (A) (A) (A) (A) (A) (A) (A)
                 (A) (A) (A) (A) (A) (A) (A) (A) (A) (A) (A) (A)
                 (A) (A) (A) (A) (A) (A)
 The electronic state is 1-A.
 Alpha  occ. eigenvalues --   -1.66450  -1.59940  -1.51530  -1.51420  -1.51344
 Alpha  occ. eigenvalues --   -1.45900  -1.45473  -1.41155  -1.38972  -1.38929
 Alpha  occ. eigenvalues --   -1.31580  -1.31108  -1.29817  -1.26615  -1.26595
 Alpha  occ. eigenvalues --   -1.23251  -1.22822  -1.22608  -1.21609  -1.20604
 Alpha  occ. eigenvalues --   -1.20603  -1.20353  -1.19261  -1.19246  -1.19061
 Alpha  occ. eigenvalues --   -1.18889  -1.17843  -1.17175  -1.16013  -1.15524
 Alpha  occ. eigenvalues --   -1.14423  -1.14245  -1.13795  -1.10742  -1.10724
 Alpha  occ. eigenvalues --   -1.10576  -1.10354  -1.07311  -1.06653  -1.06559
 Alpha  occ. eigenvalues --   -1.05658  -1.05639  -1.04720  -1.04353  -1.03370
 Alpha  occ. eigenvalues --   -1.03307  -1.02465  -1.02344  -1.00681  -1.00535
 Alpha  occ. eigenvalues --   -1.00245  -1.00096  -0.99972  -0.99730  -0.99709
 Alpha  occ. eigenvalues --   -0.99159  -0.99100  -0.98962  -0.98826  -0.98732
 Alpha  occ. eigenvalues --   -0.98695  -0.97741  -0.97637  -0.97020  -0.96980
 Alpha  occ. eigenvalues --   -0.96836  -0.96099  -0.96081  -0.95999  -0.95675
 Alpha  occ. eigenvalues --   -0.95595  -0.95498  -0.95373  -0.95369  -0.95117
 Alpha  occ. eigenvalues --   -0.95042  -0.93876  -0.93764  -0.93477  -0.93208
 Alpha  occ. eigenvalues --   -0.92782  -0.92770  -0.92453  -0.92425  -0.92413
 Alpha  occ. eigenvalues --   -0.92259  -0.91590  -0.91126  -0.90744  -0.90600
 Alpha  occ. eigenvalues --   -0.90597  -0.89127  -0.89105  -0.87784  -0.80492
 Alpha  occ. eigenvalues --   -0.80492  -0.78359  -0.78358  -0.78298  -0.78080
 Alpha  occ. eigenvalues --   -0.78049  -0.78007  -0.77498  -0.77141  -0.77133
 Alpha  occ. eigenvalues --   -0.76420  -0.74535  -0.74515  -0.74515  -0.74230
 Alpha  occ. eigenvalues --   -0.74173  -0.73500  -0.72972  -0.72519  -0.72380
 Alpha  occ. eigenvalues --   -0.71328  -0.71250  -0.70434  -0.70357  -0.70015
 Alpha  occ. eigenvalues --   -0.69480  -0.69352  -0.69352  -0.69230  -0.67480
 Alpha  occ. eigenvalues --   -0.67197  -0.66780  -0.66770  -0.65960  -0.65842
 Alpha  occ. eigenvalues --   -0.65825  -0.65621  -0.65511  -0.65074  -0.64339
 Alpha  occ. eigenvalues --   -0.64292  -0.63408  -0.63295  -0.63138  -0.62823
 Alpha  occ. eigenvalues --   -0.62775  -0.62329  -0.62226  -0.62117  -0.62109
 Alpha  occ. eigenvalues --   -0.61356  -0.60978  -0.59951  -0.59808  -0.59094
 Alpha  occ. eigenvalues --   -0.59094  -0.58559  -0.58340  -0.58335  -0.58090
 Alpha  occ. eigenvalues --   -0.58083  -0.57288  -0.57288  -0.56539  -0.56510
 Alpha  occ. eigenvalues --   -0.56488  -0.56360  -0.56008  -0.55300  -0.55297
 Alpha  occ. eigenvalues --   -0.55229  -0.55124  -0.55112  -0.54974  -0.54848
 Alpha  occ. eigenvalues --   -0.54838  -0.54777  -0.54465  -0.54464  -0.54344
 Alpha  occ. eigenvalues --   -0.54331  -0.54243  -0.54230  -0.54146  -0.54137
 Alpha  occ. eigenvalues --   -0.54117  -0.54023  -0.53756  -0.53647  -0.53606
 Alpha  occ. eigenvalues --   -0.53543  -0.53540  -0.53531  -0.53385  -0.53299
 Alpha  occ. eigenvalues --   -0.53130  -0.53088  -0.52177  -0.52177  -0.52154
 Alpha  occ. eigenvalues --   -0.51899  -0.51862  -0.51777  -0.51698  -0.51697
 Alpha  occ. eigenvalues --   -0.51534  -0.50711  -0.50462  -0.50352  -0.50301
 Alpha  occ. eigenvalues --   -0.50220  -0.50166  -0.50164  -0.50035  -0.49897
 Alpha  occ. eigenvalues --   -0.49662  -0.49531  -0.49344  -0.49268  -0.49260
 Alpha  occ. eigenvalues --   -0.49256  -0.49112  -0.49056  -0.48960  -0.48878
 Alpha  occ. eigenvalues --   -0.48831  -0.48741  -0.48648  -0.48396  -0.48221
 Alpha  occ. eigenvalues --   -0.48130  -0.47990  -0.47871  -0.47861  -0.47861
 Alpha  occ. eigenvalues --   -0.47837  -0.47803  -0.47541  -0.47426  -0.47323
 Alpha  occ. eigenvalues --   -0.47234  -0.47134  -0.46832  -0.46651  -0.46631
 Alpha  occ. eigenvalues --   -0.46589  -0.46532  -0.46370  -0.46170  -0.46025
 Alpha  occ. eigenvalues --   -0.45841  -0.45753  -0.45553  -0.45528  -0.45521
 Alpha  occ. eigenvalues --   -0.45461  -0.45459  -0.45452  -0.45447  -0.45335
 Alpha  occ. eigenvalues --   -0.45242  -0.45148  -0.45143  -0.45086  -0.45081
 Alpha  occ. eigenvalues --   -0.44983  -0.44927  -0.44785  -0.44778  -0.44766
 Alpha  occ. eigenvalues --   -0.44743  -0.44694  -0.44617  -0.44460  -0.44382
 Alpha  occ. eigenvalues --   -0.44171  -0.44167  -0.43946  -0.43868  -0.43830
 Alpha  occ. eigenvalues --   -0.43796  -0.43792  -0.43712  -0.43701  -0.43685
 Alpha  occ. eigenvalues --   -0.43679  -0.43570  -0.43518  -0.43463  -0.43439
 Alpha  occ. eigenvalues --   -0.43394  -0.43238  -0.43203  -0.43148  -0.43106
 Alpha  occ. eigenvalues --   -0.42868  -0.42572  -0.42518  -0.42493  -0.42431
 Alpha  occ. eigenvalues --   -0.42367  -0.42275  -0.42238  -0.42142  -0.42060
 Alpha  occ. eigenvalues --   -0.42048  -0.42030  -0.42014  -0.41987  -0.41838
 Alpha  occ. eigenvalues --   -0.41771  -0.41743  -0.41681  -0.41552  -0.41315
 Alpha  occ. eigenvalues --   -0.41122  -0.40960  -0.40946  -0.40898  -0.40868
 Alpha  occ. eigenvalues --   -0.40820  -0.40682  -0.40611  -0.40570  -0.40438
 Alpha  occ. eigenvalues --   -0.40411  -0.40300  -0.40209  -0.40161  -0.40113
 Alpha  occ. eigenvalues --   -0.40015  -0.40014  -0.39825  -0.39810  -0.39799
 Alpha  occ. eigenvalues --   -0.39676  -0.39424  -0.39301  -0.39228  -0.39178
 Alpha  occ. eigenvalues --   -0.39028  -0.38967  -0.38857  -0.38790  -0.38751
 Alpha  occ. eigenvalues --   -0.38663  -0.38307  -0.38194  -0.37932  -0.37854
 Alpha  occ. eigenvalues --   -0.37714  -0.37633  -0.37566  -0.37543  -0.37486
 Alpha  occ. eigenvalues --   -0.37436  -0.37230  -0.37225  -0.37179  -0.36861
 Alpha  occ. eigenvalues --   -0.36850  -0.36144  -0.36097  -0.35910  -0.35897
 Alpha  occ. eigenvalues --   -0.35874  -0.35851  -0.35768  -0.35768  -0.35512
 Alpha  occ. eigenvalues --   -0.35392  -0.34945  -0.34941  -0.34924  -0.34923
 Alpha  occ. eigenvalues --   -0.34052  -0.34043  -0.34012  -0.33332  -0.33331
 Alpha  occ. eigenvalues --   -0.33053  -0.32897  -0.32837  -0.32828
 Alpha virt. eigenvalues --   -0.22888  -0.21583  -0.21495  -0.19793  -0.18610
 Alpha virt. eigenvalues --   -0.18609  -0.18462  -0.18285  -0.17456  -0.17339
 Alpha virt. eigenvalues --   -0.17101  -0.15793  -0.15701  -0.14919  -0.13988
 Alpha virt. eigenvalues --   -0.13814  -0.13550  -0.13419  -0.13089  -0.11865
 Alpha virt. eigenvalues --   -0.11622  -0.11281  -0.11101  -0.10677  -0.09549
 Alpha virt. eigenvalues --   -0.09548  -0.09075  -0.08930  -0.08448  -0.08054
 Alpha virt. eigenvalues --   -0.07948  -0.07593  -0.07343  -0.07027  -0.06626
 Alpha virt. eigenvalues --   -0.06527  -0.06523  -0.06278  -0.05973  -0.05970
 Alpha virt. eigenvalues --   -0.05790  -0.05224  -0.05222  -0.05068  -0.04969
 Alpha virt. eigenvalues --   -0.04861  -0.04470  -0.04271  -0.03986  -0.03123
 Alpha virt. eigenvalues --   -0.02952  -0.02951  -0.02752  -0.02688  -0.02393
 Alpha virt. eigenvalues --   -0.02304  -0.02105  -0.01739  -0.01729  -0.01713
 Alpha virt. eigenvalues --   -0.01615  -0.01609  -0.01159  -0.00874  -0.00853
 Alpha virt. eigenvalues --   -0.00669  -0.00631  -0.00432  -0.00297   0.00068
 Alpha virt. eigenvalues --    0.00433   0.00786   0.00903   0.00985   0.01176
 Alpha virt. eigenvalues --    0.01180   0.01184   0.01209   0.01213   0.01472
 Alpha virt. eigenvalues --    0.01497   0.01517   0.01732   0.01978   0.01978
 Alpha virt. eigenvalues --    0.02033   0.02315   0.02420   0.02670   0.02759
 Alpha virt. eigenvalues --    0.02949   0.03131   0.03303   0.03329   0.03348
 Alpha virt. eigenvalues --    0.03605   0.03678   0.03963   0.04165   0.04206
 Alpha virt. eigenvalues --    0.04211   0.04214   0.04290   0.04413   0.04520
 Alpha virt. eigenvalues --    0.04549   0.04578   0.04581   0.04752   0.05030
 Alpha virt. eigenvalues --    0.05064   0.05402   0.05405   0.05418   0.05458
 Alpha virt. eigenvalues --    0.05493   0.05617   0.05679   0.05730   0.05788
 Alpha virt. eigenvalues --    0.05939   0.05978   0.06123   0.06197   0.06267
 Alpha virt. eigenvalues --    0.06309   0.06349   0.06410   0.06524   0.06527
 Alpha virt. eigenvalues --    0.06528   0.06532   0.06556   0.06570   0.06584
 Alpha virt. eigenvalues --    0.06668   0.06852   0.06888   0.07008   0.07078
 Alpha virt. eigenvalues --    0.07237   0.07246   0.07400   0.07498   0.07607
 Alpha virt. eigenvalues --    0.07615   0.07686   0.07916   0.08043   0.08138
 Alpha virt. eigenvalues --    0.08176   0.08284   0.08386   0.08398   0.08460
 Alpha virt. eigenvalues --    0.08494   0.08513   0.08590   0.08675   0.08751
 Alpha virt. eigenvalues --    0.08816   0.08857   0.08930   0.09037   0.09210
 Alpha virt. eigenvalues --    0.09377   0.09633   0.09669   0.09717   0.09876
 Alpha virt. eigenvalues --    0.10072   0.10130   0.10264   0.10515   0.10850
 Alpha virt. eigenvalues --    0.10949   0.10981   0.11003   0.11011   0.11032
 Alpha virt. eigenvalues --    0.11049   0.11088   0.11296   0.11410   0.11518
 Alpha virt. eigenvalues --    0.11586   0.11604   0.11642   0.11684   0.11728
 Alpha virt. eigenvalues --    0.11729   0.11799   0.11803   0.11861   0.11881
 Alpha virt. eigenvalues --    0.11920   0.12013   0.12050   0.12099   0.12151
 Alpha virt. eigenvalues --    0.12239   0.12272   0.12311   0.12336   0.12343
 Alpha virt. eigenvalues --    0.12582   0.12642   0.12650   0.12803   0.12854
 Alpha virt. eigenvalues --    0.13054   0.13328   0.13353   0.13403   0.13454
 Alpha virt. eigenvalues --    0.13557   0.13621   0.13666   0.13685   0.13712
 Alpha virt. eigenvalues --    0.13738   0.13884   0.13923   0.13970   0.14242
 Alpha virt. eigenvalues --    0.14668   0.14725   0.14778   0.14788   0.14993
 Alpha virt. eigenvalues --    0.15008   0.15056   0.15111   0.15152   0.15181
 Alpha virt. eigenvalues --    0.15192   0.15313   0.15388   0.15397   0.15547
 Alpha virt. eigenvalues --    0.15737   0.15887   0.15952   0.16097   0.16304
 Alpha virt. eigenvalues --    0.16329   0.16484   0.16533   0.16621   0.16721
 Alpha virt. eigenvalues --    0.16789   0.16883   0.16977   0.17033   0.17138
 Alpha virt. eigenvalues --    0.17226   0.17422   0.17486   0.17613   0.17689
 Alpha virt. eigenvalues --    0.17748   0.17839   0.17947   0.17957   0.18138
 Alpha virt. eigenvalues --    0.18284   0.18313   0.18403   0.18503   0.18564
 Alpha virt. eigenvalues --    0.18586   0.18677   0.18686   0.18765   0.18797
 Alpha virt. eigenvalues --    0.18868   0.18973   0.19020   0.19054   0.19058
 Alpha virt. eigenvalues --    0.19112   0.19170   0.19237   0.19300   0.19320
 Alpha virt. eigenvalues --    0.19533   0.19587   0.19746   0.19757   0.20134
 Alpha virt. eigenvalues --    0.20269   0.20360   0.20406   0.20426   0.20494
 Alpha virt. eigenvalues --    0.20590   0.20638   0.20690   0.20712   0.20815
 Alpha virt. eigenvalues --    0.20964   0.21445   0.21529   0.21568   0.21639
 Alpha virt. eigenvalues --    0.21654   0.21714   0.21917   0.22180   0.22215
 Alpha virt. eigenvalues --    0.22218   0.22234   0.22294   0.22316   0.22375
 Alpha virt. eigenvalues --    0.22385   0.22426   0.22442   0.22586   0.22621
 Alpha virt. eigenvalues --    0.22669   0.22820   0.22841   0.22931   0.23011
 Alpha virt. eigenvalues --    0.23069   0.23327   0.23511   0.23786   0.23816
 Alpha virt. eigenvalues --    0.24071   0.24272   0.24299   0.24444   0.24502
 Alpha virt. eigenvalues --    0.24620   0.24651   0.24786   0.24834   0.24868
 Alpha virt. eigenvalues --    0.25114   0.25290   0.25295   0.25394   0.25457
 Alpha virt. eigenvalues --    0.25468   0.26115   0.26171   0.26325   0.26417
 Alpha virt. eigenvalues --    0.26449   0.26499   0.26507   0.26627   0.26723
 Alpha virt. eigenvalues --    0.27211   0.27965   0.27979   0.28225   0.28225
 Alpha virt. eigenvalues --    0.28289   0.28458   0.28744   0.28867   0.28994
 Alpha virt. eigenvalues --    0.29019   0.29222   0.29243   0.29411   0.29412
 Alpha virt. eigenvalues --    0.30860   0.30896   0.31738   0.32188   0.32189
 Alpha virt. eigenvalues --    0.34498   0.34516   0.35394
          Condensed to atoms (all electrons):
 Mulliken charges:
               1
     1  O   -0.513675
     2  O   -0.649348
     3  Zn   0.368550
     4  O   -0.513631
     5  O   -0.649833
     6  Zn   0.368455
     7  O   -0.513555
     8  O   -0.650168
     9  Zn   0.368503
    10  O   -0.513528
    11  O   -0.650020
    12  Zn   0.368493
    13  O   -0.513594
    14  O   -0.649596
    15  Zn   0.368476
    16  O   -0.513654
    17  O   -0.649194
    18  Zn   0.368620
    19  O   -0.513682
    20  O   -0.649015
    21  Zn   0.368714
    22  O   -0.513691
    23  O   -0.648955
    24  Zn   0.368753
    25  O   -0.513693
    26  O   -0.648983
    27  Zn   0.368733
    28  O   -0.513690
    29  O   -0.649097
    30  Zn   0.368650
    31  O   -0.409877
    32  Zn   0.425190
    33  O   -0.378099
    34  Zn   0.363813
    35  O   -0.411338
    36  Zn   0.425185
    37  O   -0.380872
    38  Zn   0.363595
    39  O   -0.412610
    40  Zn   0.424695
    41  O   -0.457623
    42  Zn   0.371074
    43  O   -0.412166
    44  Zn   0.424842
    45  O   -0.448692
    46  Zn   0.371557
    47  O   -0.411564
    48  Zn   0.424684
    49  O   -0.372461
    50  Zn   0.363812
    51  O   -0.410997
    52  Zn   0.425344
    53  O   -0.375965
    54  Zn   0.364027
    55  O   -0.409710
    56  Zn   0.425364
    57  O   -0.374761
    58  Zn   0.363197
    59  O   -0.409284
    60  Zn   0.425336
    61  O   -0.374384
    62  Zn   0.363042
    63  O   -0.409247
    64  Zn   0.425306
    65  O   -0.374504
    66  Zn   0.363033
    67  O   -0.409376
    68  Zn   0.425267
    69  O   -0.375189
    70  Zn   0.363062
    71  O   -0.381049
    72  Zn   0.369627
    73  O   -0.380580
    74  Zn   0.388411
    75  O   -0.388465
    76  Zn   0.371694
    77  O   -0.465173
    78  Zn   0.431861
    79  O   -0.459182
    80  Zn   0.409388
    81  O   -0.573268
    82  Zn   0.428599
    83  O   -0.590689
    84  Zn   0.484722
    85  O   -0.515454
    86  Zn   0.509905
    87  O   -0.447849
    88  Zn   0.401378
    89  O   -0.387621
    90  Zn   0.403914
    91  O   -0.370549
    92  Zn   0.375571
    93  O   -0.387324
    94  Zn   0.381582
    95  O   -0.379832
    96  Zn   0.369241
    97  O   -0.388894
    98  Zn   0.378542
    99  O   -0.379557
   100  Zn   0.366783
   101  O   -0.388568
   102  Zn   0.376727
   103  O   -0.379602
   104  Zn   0.366288
   105  O   -0.388798
   106  Zn   0.377248
   107  O   -0.380187
   108  Zn   0.366789
   109  O   -0.388755
   110  Zn   0.380301
   111  O   -0.372334
   112  Zn   0.374287
   113  O   -0.460377
   114  Zn   0.380384
   115  O   -0.382240
   116  Zn   0.399629
   117  O   -0.463248
   118  Zn   0.388385
   119  O   -0.425910
   120  Zn   0.429153
   121  O   -0.461591
   122  Zn   0.383241
   123  O   -0.432562
   124  Zn   0.438713
   125  O   -0.463941
   126  Zn   0.389255
   127  O   -0.385484
   128  Zn   0.407167
   129  O   -0.461036
   130  Zn   0.381169
   131  O   -0.372580
   132  Zn   0.375089
   133  O   -0.460296
   134  Zn   0.380400
   135  O   -0.373823
   136  Zn   0.373351
   137  O   -0.459912
   138  Zn   0.379825
   139  O   -0.373240
   140  Zn   0.371431
   141  O   -0.459840
   142  Zn   0.379645
   143  O   -0.373247
   144  Zn   0.371364
   145  O   -0.459832
   146  Zn   0.379643
   147  O   -0.373651
   148  Zn   0.372952
   149  O   -0.460054
   150  Zn   0.380042
   151  O   -0.285374
   152  Zn   0.439976
   153  Zn  -0.260125
   154  O   -0.285631
   155  Zn   0.440192
   156  Zn  -0.260704
   157  O   -0.285943
   158  Zn   0.440110
   159  Zn  -0.261353
   160  O   -0.285981
   161  Zn   0.440153
   162  Zn  -0.260887
   163  O   -0.285685
   164  Zn   0.440398
   165  Zn  -0.260237
   166  O   -0.285371
   167  Zn   0.440209
   168  Zn  -0.259946
   169  O   -0.285324
   170  Zn   0.440047
   171  Zn  -0.259876
   172  O   -0.285317
   173  Zn   0.439894
   174  Zn  -0.259873
   175  O   -0.285327
   176  Zn   0.439841
   177  Zn  -0.259885
   178  O   -0.285348
   179  Zn   0.439887
   180  Zn  -0.259927
   181  H    0.299578
   182  H    0.299618
   183  H    0.299635
   184  H    0.299635
   185  H    0.299588
   186  H    0.299401
   187  H    0.299024
   188  H    0.298913
   189  H    0.299097
   190  H    0.299441
   191  H    0.394689
   192  H    0.310323
   193  H    0.394866
   194  H    0.310539
   195  H    0.394951
   196  H    0.310691
   197  H    0.394986
   198  H    0.310764
   199  H    0.395000
   200  H    0.310778
   201  H    0.394993
   202  H    0.310736
   203  H    0.310627
   204  H    0.394943
   205  H    0.394804
   206  H    0.310436
   207  H    0.394591
   208  H    0.310224
   209  H    0.394506
   210  H    0.310167
   211  N   -0.388985
   212  H    0.228919
   213  H    0.229857
   214  H    0.224915
 Sum of Mulliken charges =   0.00000
 Mulliken charges with hydrogens summed into heavy atoms:
               1
     1  O    0.191895
     2  O   -0.649348
     3  Zn   0.368550
     4  O    0.191610
     5  O   -0.649833
     6  Zn   0.368455
     7  O    0.191259
     8  O   -0.650168
     9  Zn   0.368503
    10  O    0.191145
    11  O   -0.650020
    12  Zn   0.368493
    13  O    0.191417
    14  O   -0.649596
    15  Zn   0.368476
    16  O    0.191751
    17  O   -0.649194
    18  Zn   0.368620
    19  O    0.191960
    20  O   -0.649015
    21  Zn   0.368714
    22  O    0.192058
    23  O   -0.648955
    24  Zn   0.368753
    25  O    0.192085
    26  O   -0.648983
    27  Zn   0.368733
    28  O    0.192039
    29  O   -0.649097
    30  Zn   0.368650
    31  O   -0.409877
    32  Zn   0.425190
    33  O   -0.378099
    34  Zn   0.363813
    35  O   -0.411338
    36  Zn   0.425185
    37  O   -0.380872
    38  Zn   0.363595
    39  O   -0.412610
    40  Zn   0.424695
    41  O   -0.457623
    42  Zn   0.371074
    43  O   -0.412166
    44  Zn   0.424842
    45  O   -0.448692
    46  Zn   0.371557
    47  O   -0.411564
    48  Zn   0.424684
    49  O   -0.372461
    50  Zn   0.363812
    51  O   -0.410997
    52  Zn   0.425344
    53  O   -0.375965
    54  Zn   0.364027
    55  O   -0.409710
    56  Zn   0.425364
    57  O   -0.374761
    58  Zn   0.363197
    59  O   -0.409284
    60  Zn   0.425336
    61  O   -0.374384
    62  Zn   0.363042
    63  O   -0.409247
    64  Zn   0.425306
    65  O   -0.374504
    66  Zn   0.363033
    67  O   -0.409376
    68  Zn   0.425267
    69  O   -0.375189
    70  Zn   0.363062
    71  O   -0.381049
    72  Zn   0.369627
    73  O   -0.380580
    74  Zn   0.388411
    75  O   -0.388465
    76  Zn   0.371694
    77  O   -0.465173
    78  Zn   0.431861
    79  O   -0.459182
    80  Zn   0.409388
    81  O   -0.573268
    82  Zn   0.428599
    83  O   -0.590689
    84  Zn   0.484722
    85  O   -0.515454
    86  Zn   0.509905
    87  O   -0.447849
    88  Zn   0.401378
    89  O   -0.387621
    90  Zn   0.403914
    91  O   -0.370549
    92  Zn   0.375571
    93  O   -0.387324
    94  Zn   0.381582
    95  O   -0.379832
    96  Zn   0.369241
    97  O   -0.388894
    98  Zn   0.378542
    99  O   -0.379557
   100  Zn   0.366783
   101  O   -0.388568
   102  Zn   0.376727
   103  O   -0.379602
   104  Zn   0.366288
   105  O   -0.388798
   106  Zn   0.377248
   107  O   -0.380187
   108  Zn   0.366789
   109  O   -0.388755
   110  Zn   0.380301
   111  O   -0.372334
   112  Zn   0.374287
   113  O   -0.460377
   114  Zn   0.380384
   115  O   -0.382240
   116  Zn   0.399629
   117  O   -0.463248
   118  Zn   0.388385
   119  O   -0.425910
   120  Zn   0.429153
   121  O   -0.461591
   122  Zn   0.383241
   123  O   -0.432562
   124  Zn   0.438713
   125  O   -0.463941
   126  Zn   0.389255
   127  O   -0.385484
   128  Zn   0.407167
   129  O   -0.461036
   130  Zn   0.381169
   131  O   -0.372580
   132  Zn   0.375089
   133  O   -0.460296
   134  Zn   0.380400
   135  O   -0.373823
   136  Zn   0.373351
   137  O   -0.459912
   138  Zn   0.379825
   139  O   -0.373240
   140  Zn   0.371431
   141  O   -0.459840
   142  Zn   0.379645
   143  O   -0.373247
   144  Zn   0.371364
   145  O   -0.459832
   146  Zn   0.379643
   147  O   -0.373651
   148  Zn   0.372952
   149  O   -0.460054
   150  Zn   0.380042
   151  O   -0.285374
   152  Zn   0.439976
   153  Zn   0.039317
   154  O   -0.285631
   155  Zn   0.440192
   156  Zn   0.038393
   157  O   -0.285943
   158  Zn   0.440110
   159  Zn   0.037559
   160  O   -0.285981
   161  Zn   0.440153
   162  Zn   0.038138
   163  O   -0.285685
   164  Zn   0.440398
   165  Zn   0.039165
   166  O   -0.285371
   167  Zn   0.440209
   168  Zn   0.039642
   169  O   -0.285324
   170  Zn   0.440047
   171  Zn   0.039759
   172  O   -0.285317
   173  Zn   0.439894
   174  Zn   0.039762
   175  O   -0.285327
   176  Zn   0.439841
   177  Zn   0.039733
   178  O   -0.285348
   179  Zn   0.439887
   180  Zn   0.039651
   211  N    0.294705
         Mulliken charges condensed to fragments:
      1     10.342249
      2    -10.342249
 Charge=              0.0000 electrons
 Dipole moment (field-independent basis, Debye):
    X=            143.2666    Y=             10.2957    Z=             -1.5421  Tot=            143.6444
 N-N= 1.760352086466D+04 E-N=-3.409007018180D+04  KE=-6.475695828737D+02
  Exact polarizability:5203.858   2.4202317.455  -0.380   2.8802314.638
 Approx polarizability:3990.744  -3.7282504.161   0.843   4.9252511.060
 Calling FoFJK, ICntrl=    100127 FMM=F ISym2X=0 I1Cent= 0 IOpClX= 0 NMat=1 NMatS=1 NMatT=0.
  206 atoms frozen in the vibrational analysis.
 Diagonal vibrational polarizability:
       71.5089042      18.8540637      34.4486474
 Diagonal vibrational hyperpolarizability:
      139.7586999     -32.8582931      30.0320765
 Harmonic frequencies (cm**-1), IR intensities (KM/Mole), Raman scattering
 activities (A**4/AMU), depolarization ratios for plane and unpolarized
 incident light, reduced masses (AMU), force constants (mDyne/A),
 and normal coordinates:
                      1                      2                      3
                      A                      A                      A
 Frequencies --     58.4757                72.6743                80.8707
 Red. masses --      1.5473                 4.2634                11.9254
 Frc consts  --      0.0031                 0.0133                 0.0460
 IR Inten    --      2.4021                 1.1285                 1.3289
 Raman Activ --      0.1653                 0.4798                 1.6711
 Depolar (P) --      0.6708                 0.3225                 0.0703
 Depolar (U) --      0.8029                 0.4877                 0.1313
  Atom  AN      X      Y      Z        X      Y      Z        X      Y      Z
    79   8     0.00  -0.01  -0.02     0.01   0.02   0.02     0.05   0.10   0.17
    81   8    -0.02  -0.03   0.00     0.09   0.11   0.00     0.12   0.18   0.00
    82  30    -0.02  -0.04   0.00     0.12   0.03  -0.05     0.02   0.33   0.08
    83   8     0.00  -0.01  -0.01     0.05  -0.08  -0.02    -0.07   0.23   0.07
   211   7     0.08   0.00   0.15     0.27   0.01  -0.23    -0.03   0.26   0.22
   212   1     0.01  -0.06   0.70     0.22  -0.01   0.10    -0.11   0.29   0.51
   213   1    -0.27  -0.06  -0.16     0.01   0.04  -0.50    -0.26   0.20   0.04
   214   1     0.59   0.14   0.02     0.62   0.01  -0.36     0.23   0.29   0.14
                      4                      5                      6
                      A                      A                      A
 Frequencies --    103.7505               114.1662               126.0250
 Red. masses --      2.8994                 7.0549                 4.1422
 Frc consts  --      0.0184                 0.0542                 0.0388
 IR Inten    --      2.4296                 2.9982                 4.4843
 Raman Activ --      0.2954                 0.8051                 0.3662
 Depolar (P) --      0.5406                 0.7482                 0.7368
 Depolar (U) --      0.7018                 0.8560                 0.8484
  Atom  AN      X      Y      Z        X      Y      Z        X      Y      Z
    79   8     0.02  -0.02   0.01     0.05   0.08   0.17    -0.04  -0.06  -0.08
    81   8     0.06   0.06   0.00    -0.03  -0.05  -0.01    -0.06  -0.05   0.00
    82  30     0.10  -0.02  -0.03     0.00  -0.06   0.24    -0.12   0.05  -0.10
    83   8     0.05  -0.09  -0.03    -0.04   0.11   0.06    -0.03   0.05   0.00
   211   7     0.07   0.01   0.25     0.31  -0.07  -0.01     0.27   0.11   0.00
   212   1     0.16  -0.01  -0.14     0.44  -0.19  -0.36     0.44  -0.09  -0.34
   213   1     0.40  -0.04   0.61     0.59   0.13   0.17     0.61   0.24   0.27
   214   1    -0.37   0.08   0.43     0.05  -0.13   0.06    -0.03   0.17   0.13
                      7                      8                      9
                      A                      A                      A
 Frequencies --    254.1351               263.3496               295.9827
 Red. masses --     14.4943                16.3850                10.8082
 Frc consts  --      0.5515                 0.6695                 0.5579
 IR Inten    --      6.0878                 9.1761                10.9708
 Raman Activ --     17.5664                10.1456                13.8283
 Depolar (P) --      0.6713                 0.3072                 0.5515
 Depolar (U) --      0.8033                 0.4700                 0.7109
  Atom  AN      X      Y      Z        X      Y      Z        X      Y      Z
    79   8    -0.16   0.50   0.04    -0.20   0.24   0.32     0.02  -0.38   0.26
    81   8    -0.04  -0.03  -0.05     0.05  -0.18  -0.18    -0.03   0.41  -0.04
    82  30    -0.04  -0.01  -0.03     0.07  -0.08  -0.18    -0.08   0.02  -0.04
    83   8     0.04  -0.42   0.63     0.22   0.68   0.18    -0.01  -0.06   0.34
   211   7    -0.01   0.17   0.01     0.01  -0.17   0.02     0.02  -0.37   0.03
   212   1     0.02   0.11   0.01     0.00  -0.17   0.07    -0.01  -0.30   0.05
   213   1     0.05   0.11   0.09     0.01  -0.26   0.08    -0.02  -0.37   0.01
   214   1    -0.05   0.25   0.06    -0.01  -0.06   0.07     0.02  -0.35   0.02
                     10                     11                     12
                      A                      A                      A
 Frequencies --    304.3016               319.0458               326.9874
 Red. masses --     11.7648                11.7991                10.6573
 Frc consts  --      0.6419                 0.7076                 0.6714
 IR Inten    --      9.9160                14.4157                15.5616
 Raman Activ --      3.0836                 6.0494                13.6541
 Depolar (P) --      0.7184                 0.3116                 0.0510
 Depolar (U) --      0.8361                 0.4752                 0.0970
  Atom  AN      X      Y      Z        X      Y      Z        X      Y      Z
    79   8    -0.06   0.42  -0.34     0.08  -0.06  -0.04    -0.04  -0.12   0.22
    81   8     0.03   0.44   0.29     0.14  -0.47   0.49     0.00   0.15   0.58
    82  30    -0.06  -0.01   0.00     0.04   0.13  -0.02    -0.01  -0.13  -0.02
    83   8    -0.07   0.16  -0.11    -0.04  -0.06   0.18     0.05   0.11   0.07
   211   7     0.04  -0.30   0.05     0.04  -0.36   0.04    -0.05   0.39  -0.06
   212   1     0.08  -0.36   0.04     0.05  -0.32   0.05    -0.05   0.35  -0.04
   213   1     0.08  -0.26   0.09     0.04  -0.32   0.05    -0.04   0.30  -0.03
   214   1     0.02  -0.23   0.07     0.04  -0.32   0.04    -0.05   0.40  -0.04
                     13                     14                     15
                      A                      A                      A
 Frequencies --    343.7873               415.7293               425.3420
 Red. masses --     15.7527                16.9796                16.7657
 Frc consts  --      1.0969                 1.7290                 1.7871
 IR Inten    --     23.6473               131.1180                 3.4901
 Raman Activ --     12.1934                 9.3490                 2.7526
 Depolar (P) --      0.7499                 0.7406                 0.3918
 Depolar (U) --      0.8571                 0.8510                 0.5630
  Atom  AN      X      Y      Z        X      Y      Z        X      Y      Z
    79   8    -0.19   0.28   0.63    -0.25  -0.06   0.02    -0.30  -0.06  -0.06
    81   8    -0.11  -0.04   0.09     0.85  -0.01  -0.06    -0.42   0.02   0.11
    82  30    -0.08   0.04  -0.07    -0.17  -0.03   0.06     0.00   0.11   0.09
    83   8    -0.16  -0.31  -0.50     0.32  -0.09  -0.10     0.81  -0.08  -0.10
   211   7     0.02  -0.16   0.01    -0.02   0.01   0.00     0.02  -0.07   0.02
   212   1     0.01  -0.13   0.03     0.06  -0.13  -0.01     0.03  -0.07   0.02
   213   1     0.03  -0.16   0.04     0.04   0.13  -0.01     0.02  -0.03   0.02
   214   1     0.00  -0.09   0.03     0.04   0.03  -0.01     0.02  -0.07   0.02
                     16                     17                     18
                      A                      A                      A
 Frequencies --    465.6934               720.6212               722.1302
 Red. masses --     16.4715                 1.1247                 1.1383
 Frc consts  --      2.1047                 0.3441                 0.3497
 IR Inten    --    164.9990                23.4016                78.3142
 Raman Activ --      9.7343                 8.6357                 3.3585
 Depolar (P) --      0.5805                 0.6114                 0.7245
 Depolar (U) --      0.7346                 0.7589                 0.8402
  Atom  AN      X      Y      Z        X      Y      Z        X      Y      Z
    79   8     0.86   0.22   0.13     0.01   0.00   0.00     0.00   0.00  -0.01
    81   8     0.03   0.02  -0.01     0.00   0.00   0.00     0.01  -0.01   0.00
    82  30    -0.11  -0.02  -0.07     0.00   0.00   0.01    -0.01   0.00   0.00
    83   8     0.39  -0.03  -0.05     0.00   0.00   0.00     0.01   0.00   0.00
   211   7    -0.03   0.00  -0.01    -0.01  -0.01  -0.09     0.10   0.01   0.00
   212   1     0.02  -0.06  -0.04     0.02  -0.16   0.24    -0.30   0.70  -0.02
   213   1     0.01   0.12  -0.04     0.06  -0.51   0.27    -0.19  -0.53   0.03
   214   1     0.01   0.00  -0.03    -0.07   0.73   0.19    -0.20  -0.22   0.03
                     19                     20                     21
                      A                      A                      A
 Frequencies --   1368.7697              1597.1258              1609.6633
 Red. masses --      1.1574                 1.0650                 1.0668
 Frc consts  --      1.2776                 1.6006                 1.6285
 IR Inten    --    119.2649                10.6808                11.3052
 Raman Activ --     15.5443                 9.6493                 8.5588
 Depolar (P) --      0.7356                 0.7191                 0.6984
 Depolar (U) --      0.8477                 0.8366                 0.8224
  Atom  AN      X      Y      Z        X      Y      Z        X      Y      Z
    79   8     0.00   0.00   0.00     0.00   0.00   0.00     0.00   0.00   0.00
    81   8     0.00   0.00   0.00     0.00   0.00   0.00     0.00   0.00   0.00
    82  30     0.00   0.00   0.00     0.00   0.00   0.00     0.00   0.00   0.00
    83   8     0.00   0.00   0.00     0.00   0.00   0.00     0.00   0.00   0.00
   211   7     0.01  -0.11   0.01    -0.05   0.00   0.04    -0.04  -0.01  -0.05
   212   1    -0.25   0.51  -0.10     0.02   0.14  -0.57    -0.22   0.22   0.47
   213   1     0.09   0.54  -0.18     0.06  -0.27   0.22     0.55   0.14   0.47
   214   1     0.04   0.55   0.15     0.69   0.12  -0.19     0.21  -0.25  -0.17
                     22                     23                     24
                      A                      A                      A
 Frequencies --   2758.3592              2766.1188              2829.1492
 Red. masses --      1.0826                 1.0827                 1.0235
 Frc consts  --      4.8530                 4.8809                 4.8266
 IR Inten    --     62.8382                64.1129                91.9486
 Raman Activ --     16.5044                28.0309                36.8106
 Depolar (P) --      0.6623                 0.7496                 0.0675
 Depolar (U) --      0.7969                 0.8569                 0.1264
  Atom  AN      X      Y      Z        X      Y      Z        X      Y      Z
    79   8     0.00   0.00   0.00     0.00   0.00   0.00     0.00   0.00   0.00
    81   8     0.00   0.00   0.00     0.00   0.00   0.00     0.00   0.00   0.00
    82  30     0.00   0.00   0.00     0.00   0.00   0.00     0.00   0.00   0.00
    83   8     0.00   0.00   0.00     0.00   0.00   0.00     0.00   0.00   0.00
   211   7     0.05   0.00  -0.05    -0.05  -0.01  -0.05     0.00  -0.03   0.00
   212   1    -0.37  -0.21  -0.11     0.59   0.32   0.09     0.53   0.24   0.10
   213   1    -0.52   0.29   0.53    -0.04   0.00  -0.03    -0.40   0.17   0.41
   214   1     0.16  -0.11   0.35     0.21  -0.21   0.67    -0.17   0.12  -0.50

 -------------------
 - Thermochemistry -
 -------------------
 Temperature   298.150 Kelvin.  Pressure   1.00000 Atm.
 Atom     1 has atomic number  8 and mass  15.99491
 Atom     2 has atomic number  8 and mass  15.99491
 Atom     3 has atomic number 30 and mass  63.92915
 Atom     4 has atomic number  8 and mass  15.99491
 Atom     5 has atomic number  8 and mass  15.99491
 Atom     6 has atomic number 30 and mass  63.92915
 Atom     7 has atomic number  8 and mass  15.99491
 Atom     8 has atomic number  8 and mass  15.99491
 Atom     9 has atomic number 30 and mass  63.92915
 Atom    10 has atomic number  8 and mass  15.99491
 Atom    11 has atomic number  8 and mass  15.99491
 Atom    12 has atomic number 30 and mass  63.92915
 Atom    13 has atomic number  8 and mass  15.99491
 Atom    14 has atomic number  8 and mass  15.99491
 Atom    15 has atomic number 30 and mass  63.92915
 Atom    16 has atomic number  8 and mass  15.99491
 Atom    17 has atomic number  8 and mass  15.99491
 Atom    18 has atomic number 30 and mass  63.92915
 Atom    19 has atomic number  8 and mass  15.99491
 Atom    20 has atomic number  8 and mass  15.99491
 Atom    21 has atomic number 30 and mass  63.92915
 Atom    22 has atomic number  8 and mass  15.99491
 Atom    23 has atomic number  8 and mass  15.99491
 Atom    24 has atomic number 30 and mass  63.92915
 Atom    25 has atomic number  8 and mass  15.99491
 Atom    26 has atomic number  8 and mass  15.99491
[...]
 .,0.,0.,0.,0.,0.,0.,0.,0.,0.,0.,0.,0.,0.,0.,0.,0.,0.,0.,0.,0.,0.,0.,0.
 ,0.,0.,0.,0.,0.,0.,0.,0.,-0.18675140,-0.07127547,-0.02595661,0.2251012
 7,0.,0.,0.,0.,0.,0.,0.,0.,0.,0.,0.,0.,0.,0.,0.,0.,0.,0.,0.,0.,0.,0.,0.
 ,0.,0.,0.,0.,0.,0.,0.,0.,0.,0.,0.,0.,0.,0.,0.,0.,0.,0.,0.,0.,0.,0.,0.,
 0.,0.,0.,0.,0.,0.,0.,0.,0.,0.,0.,0.,0.,0.,0.,0.,0.,0.,0.,0.,0.,0.,0.,0
 .,0.,0.,0.,0.,0.,0.,0.,0.,0.,0.,0.,0.,0.,0.,0.,0.,0.,0.,0.,0.,0.,0.,0.
 ,0.,0.,0.,0.,0.,0.,0.,0.,0.,0.,0.,0.,0.,0.,0.,0.,0.,0.,0.,0.,0.,0.,0.,
 0.,0.,0.,0.,0.,0.,0.,0.,0.,0.,0.,0.,0.,0.,0.,0.,0.,0.,0.,0.,0.,0.,0.,0
 .,0.,0.,0.,0.,0.,0.,0.,0.,0.,0.,0.,0.,0.,0.,0.,0.,0.,0.,0.,0.,0.,0.,0.
 ,0.,0.,0.,0.,0.,0.,0.,0.,0.,0.,0.,0.,0.,0.,0.,0.,0.,0.,0.,0.,0.,0.,0.,
 0.,0.,0.,0.,0.,0.,0.,0.,0.,0.,0.,0.,0.,0.,0.,0.,0.,0.,0.,0.,0.,0.,0.,0
 .,0.,0.,0.,0.,0.,0.,0.,0.,0.,0.,0.,0.,0.,0.,0.,0.,0.,0.,0.,0.,0.,0.,0.
 ,0.,-0.00123400,0.00022238,-0.00204012,0.,0.,0.,0.00084711,-0.00025263
 ,0.00034090,-0.00755203,-0.01120622,-0.00001785,-0.00024212,0.00098687
 ,0.00025611,0.,0.,0.,0.,0.,0.,0.,0.,0.,0.,0.,0.,0.,0.,0.,0.,0.,0.,0.,0
 .,0.,0.,0.,0.,0.,0.,0.,0.,0.,0.,0.,0.,0.,0.,0.,0.,0.,0.,0.,0.,0.,0.,0.
 ,0.,0.,0.,0.,0.,0.,0.,0.,0.,0.,0.,0.,0.,0.,0.,0.,0.,0.,0.,0.,0.,0.,0.,
 0.,0.,0.,0.,0.,0.,0.,0.,0.,0.,0.,0.,0.,0.,0.,0.,0.,0.,0.,0.,0.,0.,0.,0
 .,0.,0.,0.,0.,0.,0.,0.,0.,0.,0.,0.,0.,0.,0.,0.,0.,0.,0.,0.,0.,0.,0.,0.
 ,0.,0.,0.,0.,0.,0.,0.,0.,0.,0.,0.,0.,0.,0.,0.,0.,0.,0.,0.,0.,0.,0.,0.,
 0.,0.,0.,0.,0.,0.,0.,0.,0.,0.,0.,0.,0.,0.,0.,0.,0.,0.,0.,0.,0.,0.,0.,0
 .,0.,0.,0.,0.,0.,0.,0.,0.,0.,0.,0.,0.,0.,0.,0.,0.,0.,0.,0.,0.,0.,0.,0.
 ,0.,0.,0.,0.,0.,0.,0.,0.,0.,0.,0.,0.,0.,0.,0.,0.,0.,0.,0.,0.,0.,0.,0.,
 0.,0.,0.,0.,0.,0.,0.,0.,0.,0.,0.,0.,0.,0.,0.,0.,0.,0.,0.,0.,0.,0.,0.,0
 .,0.,0.,0.,0.,0.,0.,0.,0.,0.,0.,0.,0.,0.,0.,0.,0.,0.,0.,0.,0.,0.,0.,0.
 ,0.,0.,0.,0.,0.,0.,0.,0.,0.,0.,0.,0.,0.,0.,0.,0.,0.,0.,0.,0.,0.,0.,0.,
 0.,0.,0.,0.,0.,0.,0.,0.,0.,0.,0.,0.,0.,0.,0.,0.,0.,0.,0.,0.,0.,0.,0.,0
 .,0.,0.,0.,0.,0.,0.,0.,0.,0.,0.,0.,0.,0.,0.,0.,0.,0.,0.,0.,0.,0.,0.,0.
 ,0.,0.,0.,0.,0.,0.,0.,0.,0.,0.,0.,0.,0.,0.,0.,0.,0.,0.,0.,0.,0.,0.,0.,
 0.,0.,0.,0.,0.,0.,0.,0.,0.,0.,0.,0.,0.,0.,0.,0.,0.,0.,0.,0.,0.,0.,0.,0
 .,0.,0.,0.,0.,0.,0.,0.,0.,0.,0.,0.,-0.10362794,-0.08948716,-0.02110482
 ,0.09403050,0.08803840,0.,0.,0.,0.,0.,0.,0.,0.,0.,0.,0.,0.,0.,0.,0.,0.
 ,0.,0.,0.,0.,0.,0.,0.,0.,0.,0.,0.,0.,0.,0.,0.,0.,0.,0.,0.,0.,0.,0.,0.,
 0.,0.,0.,0.,0.,0.,0.,0.,0.,0.,0.,0.,0.,0.,0.,0.,0.,0.,0.,0.,0.,0.,0.,0
 .,0.,0.,0.,0.,0.,0.,0.,0.,0.,0.,0.,0.,0.,0.,0.,0.,0.,0.,0.,0.,0.,0.,0.
 ,0.,0.,0.,0.,0.,0.,0.,0.,0.,0.,0.,0.,0.,0.,0.,0.,0.,0.,0.,0.,0.,0.,0.,
 0.,0.,0.,0.,0.,0.,0.,0.,0.,0.,0.,0.,0.,0.,0.,0.,0.,0.,0.,0.,0.,0.,0.,0
 .,0.,0.,0.,0.,0.,0.,0.,0.,0.,0.,0.,0.,0.,0.,0.,0.,0.,0.,0.,0.,0.,0.,0.
 ,0.,0.,0.,0.,0.,0.,0.,0.,0.,0.,0.,0.,0.,0.,0.,0.,0.,0.,0.,0.,0.,0.,0.,
 0.,0.,0.,0.,0.,0.,0.,0.,0.,0.,0.,0.,0.,0.,0.,0.,0.,0.,0.,0.,0.,0.,0.,0
 .,0.,0.,0.,0.,0.,0.,0.,0.,0.,0.,0.,0.,0.,0.,0.,0.,0.,0.,0.,0.,0.,0.,0.
 ,0.,0.,0.,0.,0.,0.,0.,0.,0.00044444,-0.00075077,0.00008469,0.,0.,0.,0.
 00006269,0.00029489,-0.00019671,0.00046921,-0.00016367,0.00225444,-0.0
 0024172,0.00043884,-0.00020636,0.,0.,0.,0.,0.,0.,0.,0.,0.,0.,0.,0.,0.,
 0.,0.,0.,0.,0.,0.,0.,0.,0.,0.,0.,0.,0.,0.,0.,0.,0.,0.,0.,0.,0.,0.,0.,0
 .,0.,0.,0.,0.,0.,0.,0.,0.,0.,0.,0.,0.,0.,0.,0.,0.,0.,0.,0.,0.,0.,0.,0.
 ,0.,0.,0.,0.,0.,0.,0.,0.,0.,0.,0.,0.,0.,0.,0.,0.,0.,0.,0.,0.,0.,0.,0.,
 0.,0.,0.,0.,0.,0.,0.,0.,0.,0.,0.,0.,0.,0.,0.,0.,0.,0.,0.,0.,0.,0.,0.,0
 .,0.,0.,0.,0.,0.,0.,0.,0.,0.,0.,0.,0.,0.,0.,0.,0.,0.,0.,0.,0.,0.,0.,0.
 ,0.,0.,0.,0.,0.,0.,0.,0.,0.,0.,0.,0.,0.,0.,0.,0.,0.,0.,0.,0.,0.,0.,0.,
 0.,0.,0.,0.,0.,0.,0.,0.,0.,0.,0.,0.,0.,0.,0.,0.,0.,0.,0.,0.,0.,0.,0.,0
 .,0.,0.,0.,0.,0.,0.,0.,0.,0.,0.,0.,0.,0.,0.,0.,0.,0.,0.,0.,0.,0.,0.,0.
 ,0.,0.,0.,0.,0.,0.,0.,0.,0.,0.,0.,0.,0.,0.,0.,0.,0.,0.,0.,0.,0.,0.,0.,
 0.,0.,0.,0.,0.,0.,0.,0.,0.,0.,0.,0.,0.,0.,0.,0.,0.,0.,0.,0.,0.,0.,0.,0
 .,0.,0.,0.,0.,0.,0.,0.,0.,0.,0.,0.,0.,0.,0.,0.,0.,0.,0.,0.,0.,0.,0.,0.
 ,0.,0.,0.,0.,0.,0.,0.,0.,0.,0.,0.,0.,0.,0.,0.,0.,0.,0.,0.,0.,0.,0.,0.,
 0.,0.,0.,0.,0.,0.,0.,0.,0.,0.,0.,0.,0.,0.,0.,0.,0.,0.,0.,0.,0.,0.,0.,0
 .,0.,0.,0.,0.,0.,0.,0.,0.,0.,0.,0.,0.,0.,0.,0.,0.,0.,0.,0.,0.,0.,0.,0.
 ,0.,0.,0.,0.,0.,0.,0.,0.,0.,0.,0.,0.,0.,0.,0.,0.,0.,0.,0.,0.,0.,0.,0.,
 0.,0.,0.,0.,0.,0.,0.,0.,0.,0.,0.,0.,0.,0.,0.,0.,0.,0.,-0.02488245,-0.0
 1402119,-0.06250396,0.03237782,0.01959749,0.06064542,0.,0.,0.,0.,0.,0.
 ,0.,0.,0.,0.,0.,0.,0.,0.,0.,0.,0.,0.,0.,0.,0.,0.,0.,0.,0.,0.,0.,0.,0.,
 0.,0.,0.,0.,0.,0.,0.,0.,0.,0.,0.,0.,0.,0.,0.,0.,0.,0.,0.,0.,0.,0.,0.,0
 .,0.,0.,0.,0.,0.,0.,0.,0.,0.,0.,0.,0.,0.,0.,0.,0.,0.,0.,0.,0.,0.,0.,0.
 ,0.,0.,0.,0.,0.,0.,0.,0.,0.,0.,0.,0.,0.,0.,0.,0.,0.,0.,0.,0.,0.,0.,0.,
 0.,0.,0.,0.,0.,0.,0.,0.,0.,0.,0.,0.,0.,0.,0.,0.,0.,0.,0.,0.,0.,0.,0.,0
 .,0.,0.,0.,0.,0.,0.,0.,0.,0.,0.,0.,0.,0.,0.,0.,0.,0.,0.,0.,0.,0.,0.,0.
 ,0.,0.,0.,0.,0.,0.,0.,0.,0.,0.,0.,0.,0.,0.,0.,0.,0.,0.,0.,0.,0.,0.,0.,
 0.,0.,0.,0.,0.,0.,0.,0.,0.,0.,0.,0.,0.,0.,0.,0.,0.,0.,0.,0.,0.,0.,0.,0
 .,0.,0.,0.,0.,0.,0.,0.,0.,0.,0.,0.,0.,0.,0.,0.,0.,0.,0.,0.,0.,0.,0.,0.
 ,0.,0.,0.,0.,0.,0.,0.,0.,0.,0.,0.,0.,0.,0.,0.,0.,0.,0.,0.00049476,-0.0
 0017439,0.00050843,0.,0.,0.,-0.00074174,0.00026787,0.00017022,-0.00005
 569,0.00602781,0.00044713,0.00020471,-0.00034485,0.00000293,0.,0.,0.,0
 .,0.,0.,0.,0.,0.,0.,0.,0.,0.,0.,0.,0.,0.,0.,0.,0.,0.,0.,0.,0.,0.,0.,0.
 ,0.,0.,0.,0.,0.,0.,0.,0.,0.,0.,0.,0.,0.,0.,0.,0.,0.,0.,0.,0.,0.,0.,0.,
 0.,0.,0.,0.,0.,0.,0.,0.,0.,0.,0.,0.,0.,0.,0.,0.,0.,0.,0.,0.,0.,0.,0.,0
 .,0.,0.,0.,0.,0.,0.,0.,0.,0.,0.,0.,0.,0.,0.,0.,0.,0.,0.,0.,0.,0.,0.,0.
 ,0.,0.,0.,0.,0.,0.,0.,0.,0.,0.,0.,0.,0.,0.,0.,0.,0.,0.,0.,0.,0.,0.,0.,
 0.,0.,0.,0.,0.,0.,0.,0.,0.,0.,0.,0.,0.,0.,0.,0.,0.,0.,0.,0.,0.,0.,0.,0
 .,0.,0.,0.,0.,0.,0.,0.,0.,0.,0.,0.,0.,0.,0.,0.,0.,0.,0.,0.,0.,0.,0.,0.
 ,0.,0.,0.,0.,0.,0.,0.,0.,0.,0.,0.,0.,0.,0.,0.,0.,0.,0.,0.,0.,0.,0.,0.,
 0.,0.,0.,0.,0.,0.,0.,0.,0.,0.,0.,0.,0.,0.,0.,0.,0.,0.,0.,0.,0.,0.,0.,0
 .,0.,0.,0.,0.,0.,0.,0.,0.,0.,0.,0.,0.,0.,0.,0.,0.,0.,0.,0.,0.,0.,0.,0.
 ,0.,0.,0.,0.,0.,0.,0.,0.,0.,0.,0.,0.,0.,0.,0.,0.,0.,0.,0.,0.,0.,0.,0.,
 0.,0.,0.,0.,0.,0.,0.,0.,0.,0.,0.,0.,0.,0.,0.,0.,0.,0.,0.,0.,0.,0.,0.,0
 .,0.,0.,0.,0.,0.,0.,0.,0.,0.,0.,0.,0.,0.,0.,0.,0.,0.,0.,0.,0.,0.,0.,0.
 ,0.,0.,0.,0.,0.,0.,0.,0.,0.,0.,0.,0.,0.,0.,0.,0.,0.,0.,0.,0.,0.,0.,0.,
 0.,0.,0.,0.,0.,0.,0.,0.,0.,0.,0.,0.,0.,0.,0.,0.,0.,0.,0.,0.,0.,0.,0.,0
 .,0.,0.,0.,0.,0.,0.,0.,0.,0.,0.,0.,0.,0.,0.,0.,0.,0.,0.,0.,0.,0.,0.,0.
 ,0.,0.,0.,0.,-0.13416457,0.03978692,0.07871854,-0.02803969,0.00982738,
 0.02376995,0.15225352,0.,0.,0.,0.,0.,0.,0.,0.,0.,0.,0.,0.,0.,0.,0.,0.,
 0.,0.,0.,0.,0.,0.,0.,0.,0.,0.,0.,0.,0.,0.,0.,0.,0.,0.,0.,0.,0.,0.,0.,0
 .,0.,0.,0.,0.,0.,0.,0.,0.,0.,0.,0.,0.,0.,0.,0.,0.,0.,0.,0.,0.,0.,0.,0.
 ,0.,0.,0.,0.,0.,0.,0.,0.,0.,0.,0.,0.,0.,0.,0.,0.,0.,0.,0.,0.,0.,0.,0.,
 0.,0.,0.,0.,0.,0.,0.,0.,0.,0.,0.,0.,0.,0.,0.,0.,0.,0.,0.,0.,0.,0.,0.,0
 .,0.,0.,0.,0.,0.,0.,0.,0.,0.,0.,0.,0.,0.,0.,0.,0.,0.,0.,0.,0.,0.,0.,0.
 ,0.,0.,0.,0.,0.,0.,0.,0.,0.,0.,0.,0.,0.,0.,0.,0.,0.,0.,0.,0.,0.,0.,0.,
 0.,0.,0.,0.,0.,0.,0.,0.,0.,0.,0.,0.,0.,0.,0.,0.,0.,0.,0.,0.,0.,0.,0.,0
 .,0.,0.,0.,0.,0.,0.,0.,0.,0.,0.,0.,0.,0.,0.,0.,0.,0.,0.,0.,0.,0.,0.,0.
 ,0.,0.,0.,0.,0.,0.,0.,0.,0.,0.,0.,0.,0.,0.,0.,0.,0.,0.,0.,0.,0.,0.,0.,
 0.,0.,0.,0.,0.,0.,0.,0.,-0.00161218,-0.00029734,-0.00037320,0.,0.,0.,0
 .00033847,0.00132154,0.00037894,0.00954131,-0.00925260,-0.00562144,-0.
 00070442,0.00004250,0.00083443,0.,0.,0.,0.,0.,0.,0.,0.,0.,0.,0.,0.,0.,
 0.,0.,0.,0.,0.,0.,0.,0.,0.,0.,0.,0.,0.,0.,0.,0.,0.,0.,0.,0.,0.,0.,0.,0
 .,0.,0.,0.,0.,0.,0.,0.,0.,0.,0.,0.,0.,0.,0.,0.,0.,0.,0.,0.,0.,0.,0.,0.
 ,0.,0.,0.,0.,0.,0.,0.,0.,0.,0.,0.,0.,0.,0.,0.,0.,0.,0.,0.,0.,0.,0.,0.,
 0.,0.,0.,0.,0.,0.,0.,0.,0.,0.,0.,0.,0.,0.,0.,0.,0.,0.,0.,0.,0.,0.,0.,0
 .,0.,0.,0.,0.,0.,0.,0.,0.,0.,0.,0.,0.,0.,0.,0.,0.,0.,0.,0.,0.,0.,0.,0.
 ,0.,0.,0.,0.,0.,0.,0.,0.,0.,0.,0.,0.,0.,0.,0.,0.,0.,0.,0.,0.,0.,0.,0.,
 0.,0.,0.,0.,0.,0.,0.,0.,0.,0.,0.,0.,0.,0.,0.,0.,0.,0.,0.,0.,0.,0.,0.,0
 .,0.,0.,0.,0.,0.,0.,0.,0.,0.,0.,0.,0.,0.,0.,0.,0.,0.,0.,0.,0.,0.,0.,0.
 ,0.,0.,0.,0.,0.,0.,0.,0.,0.,0.,0.,0.,0.,0.,0.,0.,0.,0.,0.,0.,0.,0.,0.,
 0.,0.,0.,0.,0.,0.,0.,0.,0.,0.,0.,0.,0.,0.,0.,0.,0.,0.,0.,0.,0.,0.,0.,0
 .,0.,0.,0.,0.,0.,0.,0.,0.,0.,0.,0.,0.,0.,0.,0.,0.,0.,0.,0.,0.,0.,0.,0.
 ,0.,0.,0.,0.,0.,0.,0.,0.,0.,0.,0.,0.,0.,0.,0.,0.,0.,0.,0.,0.,0.,0.,0.,
 0.,0.,0.,0.,0.,0.,0.,0.,0.,0.,0.,0.,0.,0.,0.,0.,0.,0.,0.,0.,0.,0.,0.,0
 .,0.,0.,0.,0.,0.,0.,0.,0.,0.,0.,0.,0.,0.,0.,0.,0.,0.,0.,0.,0.,0.,0.,0.
 ,0.,0.,0.,0.,0.,0.,0.,0.,0.,0.,0.,0.,0.,0.,0.,0.,0.,0.,0.,0.,0.,0.,0.,
 0.,0.,0.,0.,0.,0.,0.,0.,0.,0.,0.,0.,0.,0.,0.,0.,0.,0.,0.06281628,-0.07
 028106,-0.06730852,-0.01095816,0.00749116,0.01150904,-0.05122123,0.067
 64597,0.,0.,0.,0.,0.,0.,0.,0.,0.,0.,0.,0.,0.,0.,0.,0.,0.,0.,0.,0.,0.,0
 .,0.,0.,0.,0.,0.,0.,0.,0.,0.,0.,0.,0.,0.,0.,0.,0.,0.,0.,0.,0.,0.,0.,0.
 ,0.,0.,0.,0.,0.,0.,0.,0.,0.,0.,0.,0.,0.,0.,0.,0.,0.,0.,0.,0.,0.,0.,0.,
 0.,0.,0.,0.,0.,0.,0.,0.,0.,0.,0.,0.,0.,0.,0.,0.,0.,0.,0.,0.,0.,0.,0.,0
 .,0.,0.,0.,0.,0.,0.,0.,0.,0.,0.,0.,0.,0.,0.,0.,0.,0.,0.,0.,0.,0.,0.,0.
 ,0.,0.,0.,0.,0.,0.,0.,0.,0.,0.,0.,0.,0.,0.,0.,0.,0.,0.,0.,0.,0.,0.,0.,
 0.,0.,0.,0.,0.,0.,0.,0.,0.,0.,0.,0.,0.,0.,0.,0.,0.,0.,0.,0.,0.,0.,0.,0
 .,0.,0.,0.,0.,0.,0.,0.,0.,0.,0.,0.,0.,0.,0.,0.,0.,0.,0.,0.,0.,0.,0.,0.
 ,0.,0.,0.,0.,0.,0.,0.,0.,0.,0.,0.,0.,0.,0.,0.,0.,0.,0.,0.,0.,0.,0.,0.,
 0.,0.,0.,0.,0.,0.,0.,0.,0.,0.,0.,0.,0.,0.,0.,0.,0.,0.,0.,0.,0.,0.,0.,0
 .,0.,0.,0.00043568,0.00000714,-0.00057743,0.,0.,0.,0.00034969,0.000213
 18,-0.00054921,0.00013735,-0.00361966,0.00273549,-0.00030846,0.0004184
 1,-0.00019189,0.,0.,0.,0.,0.,0.,0.,0.,0.,0.,0.,0.,0.,0.,0.,0.,0.,0.,0.
 ,0.,0.,0.,0.,0.,0.,0.,0.,0.,0.,0.,0.,0.,0.,0.,0.,0.,0.,0.,0.,0.,0.,0.,
 0.,0.,0.,0.,0.,0.,0.,0.,0.,0.,0.,0.,0.,0.,0.,0.,0.,0.,0.,0.,0.,0.,0.,0
 .,0.,0.,0.,0.,0.,0.,0.,0.,0.,0.,0.,0.,0.,0.,0.,0.,0.,0.,0.,0.,0.,0.,0.
 ,0.,0.,0.,0.,0.,0.,0.,0.,0.,0.,0.,0.,0.,0.,0.,0.,0.,0.,0.,0.,0.,0.,0.,
 0.,0.,0.,0.,0.,0.,0.,0.,0.,0.,0.,0.,0.,0.,0.,0.,0.,0.,0.,0.,0.,0.,0.,0
 .,0.,0.,0.,0.,0.,0.,0.,0.,0.,0.,0.,0.,0.,0.,0.,0.,0.,0.,0.,0.,0.,0.,0.
 ,0.,0.,0.,0.,0.,0.,0.,0.,0.,0.,0.,0.,0.,0.,0.,0.,0.,0.,0.,0.,0.,0.,0.,
 0.,0.,0.,0.,0.,0.,0.,0.,0.,0.,0.,0.,0.,0.,0.,0.,0.,0.,0.,0.,0.,0.,0.,0
 .,0.,0.,0.,0.,0.,0.,0.,0.,0.,0.,0.,0.,0.,0.,0.,0.,0.,0.,0.,0.,0.,0.,0.
 ,0.,0.,0.,0.,0.,0.,0.,0.,0.,0.,0.,0.,0.,0.,0.,0.,0.,0.,0.,0.,0.,0.,0.,
 0.,0.,0.,0.,0.,0.,0.,0.,0.,0.,0.,0.,0.,0.,0.,0.,0.,0.,0.,0.,0.,0.,0.,0
 .,0.,0.,0.,0.,0.,0.,0.,0.,0.,0.,0.,0.,0.,0.,0.,0.,0.,0.,0.,0.,0.,0.,0.
 ,0.,0.,0.,0.,0.,0.,0.,0.,0.,0.,0.,0.,0.,0.,0.,0.,0.,0.,0.,0.,0.,0.,0.,
 0.,0.,0.,0.,0.,0.,0.,0.,0.,0.,0.,0.,0.,0.,0.,0.,0.,0.,0.,0.,0.,0.,0.,0
 .,0.,0.,0.,0.,0.,0.,0.,0.,0.,0.,0.,0.,0.,0.,0.,0.,0.,0.,0.,0.,0.,0.,0.
 ,0.,0.,0.,0.,0.,0.,0.,0.,0.,0.,0.,0.,0.07533641,-0.04178456,-0.1335909
 7,0.00012975,0.00281176,0.00650557,-0.09888231,0.05436268,0.15438539,0
 .,0.,0.,0.,0.,0.,0.,0.,0.,0.,0.,0.,0.,0.,0.,0.,0.,0.,0.,0.,0.,0.,0.,0.
 ,0.,0.,0.,0.,0.,0.,0.,0.,0.,0.,0.,0.,0.,0.,0.,0.,0.,0.,0.,0.,0.,0.,0.,
 0.,0.,0.,0.,0.,0.,0.,0.,0.,0.,0.,0.,0.,0.,0.,0.,0.,0.,0.,0.,0.,0.,0.,0
 .,0.,0.,0.,0.,0.,0.,0.,0.,0.,0.,0.,0.,0.,0.,0.,0.,0.,0.,0.,0.,0.,0.,0.
 ,0.,0.,0.,0.,0.,0.,0.,0.,0.,0.,0.,0.,0.,0.,0.,0.,0.,0.,0.,0.,0.,0.,0.,
 0.,0.,0.,0.,0.,0.,0.,0.,0.,0.,0.,0.,0.,0.,0.,0.,0.,0.,0.,0.,0.,0.,0.,0
 .,0.,0.,0.,0.,0.,0.,0.,0.,0.,0.,0.,0.,0.,0.,0.,0.,0.,0.,0.,0.,0.,0.,0.
 ,0.,0.,0.,0.,0.,0.,0.,0.,0.,0.,0.,0.,0.,0.,0.,0.,0.,0.,0.,0.,0.,0.,0.,
 0.,0.,0.,0.,0.,0.,0.,0.,0.,0.,0.,0.,0.,0.,0.,0.,0.,0.,0.,0.,0.,0.,0.,0
 .,0.,0.,0.,0.,0.,0.,0.,0.,0.,0.,0.,0.,0.,0.,0.,0.,0.,0.,0.,0.,0.,0.,0.
 ,0.00002467,0.00003855,0.00036681,0.,0.,0.,-0.00049734,0.00014488,-0.0
 0017630,0.00095697,0.00257694,-0.00128516,0.00006490,-0.00051019,0.000
 14289,0.,0.,0.,0.,0.,0.,0.,0.,0.,0.,0.,0.,0.,0.,0.,0.,0.,0.,0.,0.,0.,0
 .,0.,0.,0.,0.,0.,0.,0.,0.,0.,0.,0.,0.,0.,0.,0.,0.,0.,0.,0.,0.,0.,0.,0.
 ,0.,0.,0.,0.,0.,0.,0.,0.,0.,0.,0.,0.,0.,0.,0.,0.,0.,0.,0.,0.,0.,0.,0.,
 0.,0.,0.,0.,0.,0.,0.,0.,0.,0.,0.,0.,0.,0.,0.,0.,0.,0.,0.,0.,0.,0.,0.,0
 .,0.,0.,0.,0.,0.,0.,0.,0.,0.,0.,0.,0.,0.,0.,0.,0.,0.,0.,0.,0.,0.,0.,0.
 ,0.,0.,0.,0.,0.,0.,0.,0.,0.,0.,0.,0.,0.,0.,0.,0.,0.,0.,0.,0.,0.,0.,0.,
 0.,0.,0.,0.,0.,0.,0.,0.,0.,0.,0.,0.,0.,0.,0.,0.,0.,0.,0.,0.,0.,0.,0.,0
 .,0.,0.,0.,0.,0.,0.,0.,0.,0.,0.,0.,0.,0.,0.,0.,0.,0.,0.,0.,0.,0.,0.,0.
 ,0.,0.,0.,0.,0.,0.,0.,0.,0.,0.,0.,0.,0.,0.,0.,0.,0.,0.,0.,0.,0.,0.,0.,
 0.,0.,0.,0.,0.,0.,0.,0.,0.,0.,0.,0.,0.,0.,0.,0.,0.,0.,0.,0.,0.,0.,0.,0
 .,0.,0.,0.,0.,0.,0.,0.,0.,0.,0.,0.,0.,0.,0.,0.,0.,0.,0.,0.,0.,0.,0.,0.
 ,0.,0.,0.,0.,0.,0.,0.,0.,0.,0.,0.,0.,0.,0.,0.,0.,0.,0.,0.,0.,0.,0.,0.,
 0.,0.,0.,0.,0.,0.,0.,0.,0.,0.,0.,0.,0.,0.,0.,0.,0.,0.,0.,0.,0.,0.,0.,0
 .,0.,0.,0.,0.,0.,0.,0.,0.,0.,0.,0.,0.,0.,0.,0.,0.,0.,0.,0.,0.,0.,0.,0.
 ,0.,0.,0.,0.,0.,0.,0.,0.,0.,0.,0.,0.,0.,0.,0.,0.,0.,0.,0.,0.,0.,0.,0.,
 0.,0.,0.,0.,0.,0.,0.,0.,0.,0.,0.,0.,0.,0.,0.,0.,0.,0.,0.,0.,0.,0.,0.,0
 .,0.,0.,0.,0.,0.,0.,0.,0.,0.,-0.07550578,0.01462050,-0.05410074,-0.012
 06755,0.00846553,-0.03236516,0.01037755,-0.00685023,0.02296871,0.07673
 399,0.,0.,0.,0.,0.,0.,0.,0.,0.,0.,0.,0.,0.,0.,0.,0.,0.,0.,0.,0.,0.,0.,
 0.,0.,0.,0.,0.,0.,0.,0.,0.,0.,0.,0.,0.,0.,0.,0.,0.,0.,0.,0.,0.,0.,0.,0
 .,0.,0.,0.,0.,0.,0.,0.,0.,0.,0.,0.,0.,0.,0.,0.,0.,0.,0.,0.,0.,0.,0.,0.
 ,0.,0.,0.,0.,0.,0.,0.,0.,0.,0.,0.,0.,0.,0.,0.,0.,0.,0.,0.,0.,0.,0.,0.,
 0.,0.,0.,0.,0.,0.,0.,0.,0.,0.,0.,0.,0.,0.,0.,0.,0.,0.,0.,0.,0.,0.,0.,0
 .,0.,0.,0.,0.,0.,0.,0.,0.,0.,0.,0.,0.,0.,0.,0.,0.,0.,0.,0.,0.,0.,0.,0.
 ,0.,0.,0.,0.,0.,0.,0.,0.,0.,0.,0.,0.,0.,0.,0.,0.,0.,0.,0.,0.,0.,0.,0.,
 0.,0.,0.,0.,0.,0.,0.,0.,0.,0.,0.,0.,0.,0.,0.,0.,0.,0.,0.,0.,0.,0.,0.,0
 .,0.,0.,0.,0.,0.,0.,0.,0.,0.,0.,0.,0.,0.,0.,0.,0.,0.,0.,0.,0.,0.,0.,0.
 ,0.,0.,0.,0.,0.,0.,0.,0.,0.,0.,0.,0.,0.,0.,0.,0.,0.,0.,0.,0.,0.,0.,0.,
 0.,0.,0.00030432,-0.00101134,-0.00056675,0.,0.,0.,0.00051021,0.0006193
 4,-0.00047649,0.00357651,-0.00309580,0.00840282,-0.00097138,0.00073656
 ,-0.00012396,0.,0.,0.,0.,0.,0.,0.,0.,0.,0.,0.,0.,0.,0.,0.,0.,0.,0.,0.,
 0.,0.,0.,0.,0.,0.,0.,0.,0.,0.,0.,0.,0.,0.,0.,0.,0.,0.,0.,0.,0.,0.,0.,0
 .,0.,0.,0.,0.,0.,0.,0.,0.,0.,0.,0.,0.,0.,0.,0.,0.,0.,0.,0.,0.,0.,0.,0.
 ,0.,0.,0.,0.,0.,0.,0.,0.,0.,0.,0.,0.,0.,0.,0.,0.,0.,0.,0.,0.,0.,0.,0.,
 0.,0.,0.,0.,0.,0.,0.,0.,0.,0.,0.,0.,0.,0.,0.,0.,0.,0.,0.,0.,0.,0.,0.,0
 .,0.,0.,0.,0.,0.,0.,0.,0.,0.,0.,0.,0.,0.,0.,0.,0.,0.,0.,0.,0.,0.,0.,0.
 ,0.,0.,0.,0.,0.,0.,0.,0.,0.,0.,0.,0.,0.,0.,0.,0.,0.,0.,0.,0.,0.,0.,0.,
 0.,0.,0.,0.,0.,0.,0.,0.,0.,0.,0.,0.,0.,0.,0.,0.,0.,0.,0.,0.,0.,0.,0.,0
 .,0.,0.,0.,0.,0.,0.,0.,0.,0.,0.,0.,0.,0.,0.,0.,0.,0.,0.,0.,0.,0.,0.,0.
 ,0.,0.,0.,0.,0.,0.,0.,0.,0.,0.,0.,0.,0.,0.,0.,0.,0.,0.,0.,0.,0.,0.,0.,
 0.,0.,0.,0.,0.,0.,0.,0.,0.,0.,0.,0.,0.,0.,0.,0.,0.,0.,0.,0.,0.,0.,0.,0
 .,0.,0.,0.,0.,0.,0.,0.,0.,0.,0.,0.,0.,0.,0.,0.,0.,0.,0.,0.,0.,0.,0.,0.
 ,0.,0.,0.,0.,0.,0.,0.,0.,0.,0.,0.,0.,0.,0.,0.,0.,0.,0.,0.,0.,0.,0.,0.,
 0.,0.,0.,0.,0.,0.,0.,0.,0.,0.,0.,0.,0.,0.,0.,0.,0.,0.,0.,0.,0.,0.,0.,0
 .,0.,0.,0.,0.,0.,0.,0.,0.,0.,0.,0.,0.,0.,0.,0.,0.,0.,0.,0.,0.,0.,0.,0.
 ,0.,0.,0.,0.,0.,0.,0.,0.,0.,0.,0.,0.,0.,0.,0.,0.,0.,0.,0.,0.,0.,0.,0.,
 0.,0.,0.,0.,0.,0.,0.,0.,0.,0.,0.,0.,0.02481521,-0.06090979,0.07751115,
 -0.00520579,0.00599953,-0.01573398,-0.00401347,0.00516560,-0.01141493,
 -0.01974921,0.05684739,0.,0.,0.,0.,0.,0.,0.,0.,0.,0.,0.,0.,0.,0.,0.,0.
 ,0.,0.,0.,0.,0.,0.,0.,0.,0.,0.,0.,0.,0.,0.,0.,0.,0.,0.,0.,0.,0.,0.,0.,
 0.,0.,0.,0.,0.,0.,0.,0.,0.,0.,0.,0.,0.,0.,0.,0.,0.,0.,0.,0.,0.,0.,0.,0
 .,0.,0.,0.,0.,0.,0.,0.,0.,0.,0.,0.,0.,0.,0.,0.,0.,0.,0.,0.,0.,0.,0.,0.
 ,0.,0.,0.,0.,0.,0.,0.,0.,0.,0.,0.,0.,0.,0.,0.,0.,0.,0.,0.,0.,0.,0.,0.,
 0.,0.,0.,0.,0.,0.,0.,0.,0.,0.,0.,0.,0.,0.,0.,0.,0.,0.,0.,0.,0.,0.,0.,0
 .,0.,0.,0.,0.,0.,0.,0.,0.,0.,0.,0.,0.,0.,0.,0.,0.,0.,0.,0.,0.,0.,0.,0.
 ,0.,0.,0.,0.,0.,0.,0.,0.,0.,0.,0.,0.,0.,0.,0.,0.,0.,0.,0.,0.,0.,0.,0.,
 0.,0.,0.,0.,0.,0.,0.,0.,0.,0.,0.,0.,0.,0.,0.,0.,0.,0.,0.,0.,0.,0.,0.,0
 .,0.,0.,0.,0.,0.,0.,0.,0.,0.,0.,0.,0.,0.,0.,0.,0.,0.,0.,0.,0.,0.,0.,0.
 ,0.,0.,0.,0.,0.,0.,0.,0.,0.00050996,-0.00012642,0.00024122,0.,0.,0.,-0
 .00034590,-0.00054761,-0.00017204,-0.00128700,0.00588190,-0.00055005,0
 .00025165,-0.00021040,-0.00030405,0.,0.,0.,0.,0.,0.,0.,0.,0.,0.,0.,0.,
 0.,0.,0.,0.,0.,0.,0.,0.,0.,0.,0.,0.,0.,0.,0.,0.,0.,0.,0.,0.,0.,0.,0.,0
 .,0.,0.,0.,0.,0.,0.,0.,0.,0.,0.,0.,0.,0.,0.,0.,0.,0.,0.,0.,0.,0.,0.,0.
 ,0.,0.,0.,0.,0.,0.,0.,0.,0.,0.,0.,0.,0.,0.,0.,0.,0.,0.,0.,0.,0.,0.,0.,
 0.,0.,0.,0.,0.,0.,0.,0.,0.,0.,0.,0.,0.,0.,0.,0.,0.,0.,0.,0.,0.,0.,0.,0
 .,0.,0.,0.,0.,0.,0.,0.,0.,0.,0.,0.,0.,0.,0.,0.,0.,0.,0.,0.,0.,0.,0.,0.
 ,0.,0.,0.,0.,0.,0.,0.,0.,0.,0.,0.,0.,0.,0.,0.,0.,0.,0.,0.,0.,0.,0.,0.,
 0.,0.,0.,0.,0.,0.,0.,0.,0.,0.,0.,0.,0.,0.,0.,0.,0.,0.,0.,0.,0.,0.,0.,0
 .,0.,0.,0.,0.,0.,0.,0.,0.,0.,0.,0.,0.,0.,0.,0.,0.,0.,0.,0.,0.,0.,0.,0.
 ,0.,0.,0.,0.,0.,0.,0.,0.,0.,0.,0.,0.,0.,0.,0.,0.,0.,0.,0.,0.,0.,0.,0.,
 0.,0.,0.,0.,0.,0.,0.,0.,0.,0.,0.,0.,0.,0.,0.,0.,0.,0.,0.,0.,0.,0.,0.,0
 .,0.,0.,0.,0.,0.,0.,0.,0.,0.,0.,0.,0.,0.,0.,0.,0.,0.,0.,0.,0.,0.,0.,0.
 ,0.,0.,0.,0.,0.,0.,0.,0.,0.,0.,0.,0.,0.,0.,0.,0.,0.,0.,0.,0.,0.,0.,0.,
 0.,0.,0.,0.,0.,0.,0.,0.,0.,0.,0.,0.,0.,0.,0.,0.,0.,0.,0.,0.,0.,0.,0.,0
 .,0.,0.,0.,0.,0.,0.,0.,0.,0.,0.,0.,0.,0.,0.,0.,0.,0.,0.,0.,0.,0.,0.,0.
 ,0.,0.,0.,0.,0.,0.,0.,0.,0.,0.,0.,0.,0.,0.,0.,0.,0.,0.,0.,0.,0.,0.,0.,
 0.,0.,0.,0.,0.,0.,0.,0.,0.,0.,0.,0.,0.,0.,0.,0.,0.,0.,0.,-0.05140496,0
 .04513811,-0.20348002,-0.00778775,0.00046760,-0.00676080,-0.00446704,0
 .00623760,-0.02934556,0.06391509,-0.05812849,0.23938361||0.,0.,0.,0.,0
 .,0.,0.,0.,0.,0.,0.,0.,0.,0.,0.,0.,0.,0.,0.,0.,0.,0.,0.,0.,0.,0.,0.,0.
 ,0.,0.,0.,0.,0.,0.,0.,0.,0.,0.,0.,0.,0.,0.,0.,0.,0.,0.,0.,0.,0.,0.,0.,
 0.,0.,0.,0.,0.,0.,0.,0.,0.,0.,0.,0.,0.,0.,0.,0.,0.,0.,0.,0.,0.,0.,0.,0
 .,0.,0.,0.,0.,0.,0.,0.,0.,0.,0.,0.,0.,0.,0.,0.,0.,0.,0.,0.,0.,0.,0.,0.
 ,0.,0.,0.,0.,0.,0.,0.,0.,0.,0.,0.,0.,0.,0.,0.,0.,0.,0.,0.,0.,0.,0.,0.,
 0.,0.,0.,0.,0.,0.,0.,0.,0.,0.,0.,0.,0.,0.,0.,0.,0.,0.,0.,0.,0.,0.,0.,0
 .,0.,0.,0.,0.,0.,0.,0.,0.,0.,0.,0.,0.,0.,0.,0.,0.,0.,0.,0.,0.,0.,0.,0.
 ,0.,0.,0.,0.,0.,0.,0.,0.,0.,0.,0.,0.,0.,0.,0.,0.,0.,0.,0.,0.,0.,0.,0.,
 0.,0.,0.,0.,0.,0.,0.,0.,0.,0.,0.,0.,0.,0.,0.,0.,0.,0.,0.,0.,0.,0.,0.,0
 .,0.,0.,0.,0.,0.,0.,0.,0.,0.,0.,0.,0.,0.,0.,0.,0.,0.,0.,0.,-0.00001034
 ,-0.00001417,-0.00000149,0.,0.,0.,-0.00001624,-0.00001344,-0.00003092,
 -0.00000283,0.00001791,0.00003742,0.00002996,-0.00000140,-0.00002382,0
 .,0.,0.,0.,0.,0.,0.,0.,0.,0.,0.,0.,0.,0.,0.,0.,0.,0.,0.,0.,0.,0.,0.,0.
 ,0.,0.,0.,0.,0.,0.,0.,0.,0.,0.,0.,0.,0.,0.,0.,0.,0.,0.,0.,0.,0.,0.,0.,
 0.,0.,0.,0.,0.,0.,0.,0.,0.,0.,0.,0.,0.,0.,0.,0.,0.,0.,0.,0.,0.,0.,0.,0
 .,0.,0.,0.,0.,0.,0.,0.,0.,0.,0.,0.,0.,0.,0.,0.,0.,0.,0.,0.,0.,0.,0.,0.
 ,0.,0.,0.,0.,0.,0.,0.,0.,0.,0.,0.,0.,0.,0.,0.,0.,0.,0.,0.,0.,0.,0.,0.,
 0.,0.,0.,0.,0.,0.,0.,0.,0.,0.,0.,0.,0.,0.,0.,0.,0.,0.,0.,0.,0.,0.,0.,0
 .,0.,0.,0.,0.,0.,0.,0.,0.,0.,0.,0.,0.,0.,0.,0.,0.,0.,0.,0.,0.,0.,0.,0.
 ,0.,0.,0.,0.,0.,0.,0.,0.,0.,0.,0.,0.,0.,0.,0.,0.,0.,0.,0.,0.,0.,0.,0.,
 0.,0.,0.,0.,0.,0.,0.,0.,0.,0.,0.,0.,0.,0.,0.,0.,0.,0.,0.,0.,0.,0.,0.,0
 .,0.,0.,0.,0.,0.,0.,0.,0.,0.,0.,0.,0.,0.,0.,0.,0.,0.,0.,0.,0.,0.,0.,0.
 ,0.,0.,0.,0.,0.,0.,0.,0.,0.,0.,0.,0.,0.,0.,0.,0.,0.,0.,0.,0.,0.,0.,0.,
 0.,0.,0.,0.,0.,0.,0.,0.,0.,0.,0.,0.,0.,0.,0.,0.,0.,0.,0.,0.,0.,0.,0.,0
 .,0.,0.,0.,0.,0.,0.,0.,0.,0.,0.,0.,0.,0.,0.,0.,0.,0.,0.,0.,0.,0.,0.,0.
 ,0.,0.,0.,0.,0.,0.,0.,0.,0.,0.,0.,0.,0.,0.,0.,0.,0.,0.,0.,0.,0.,0.,0.,
 0.,0.,0.,0.,0.,0.,0.,0.,0.,0.,0.,0.,0.,0.,0.,0.,0.,0.,0.,0.,0.,0.,0.,0
 .,0.,0.,0.,0.,0.,0.,0.,0.,0.,0.,0.,0.,0.,0.,0.,0.,0.,0.,0.,0.,0.,0.,0.
 ,0.,0.,0.,0.,0.,0.,0.,-0.00003364,0.00000391,-0.00001453,0.00001128,0.
 00000191,0.00000226,0.00001599,-0.00000961,-0.00001416,0.00000719,-0.0
 0000188,0.00001323|||@


 IT IS THE BEHAVIOR AND DISTRIBUTION OF THE ELECTRONS 
 AROUND THE NUCLEUS THAT GIVES THE FUNDAMENTAL 
 CHARACTER OF AN ATOM:  IT MUST BE THE SAME FOR MOLECULES.

                               -- C. A. COULSON, 1951
 Job cpu time:       0 days  0 hours  4 minutes 35.0 seconds.
 File lengths (MBytes):  RWF=   3405 Int=      0 D2E=      0 Chk=     41 Scr=      1
 Normal termination of Gaussian 09 at Fri Apr 25 20:58:31 2025.
