 Entering Link 1 = C:\Gaussian\G09W\l1.exe PID=     39092.
  
 Copyright (c) 1988,1990,1992,1993,1995,1998,2003,2009,2013,
            Gaussian, Inc.  All Rights Reserved.
  
 This is part of the Gaussian(R) 09 program.  It is based on
 the Gaussian(R) 03 system (copyright 2003, Gaussian, Inc.),
 the Gaussian(R) 98 system (copyright 1998, Gaussian, Inc.),
 the Gaussian(R) 94 system (copyright 1995, Gaussian, Inc.),
 the Gaussian 92(TM) system (copyright 1992, Gaussian, Inc.),
 the Gaussian 90(TM) system (copyright 1990, Gaussian, Inc.),
 the Gaussian 88(TM) system (copyright 1988, Gaussian, Inc.),
 the Gaussian 86(TM) system (copyright 1986, Carnegie Mellon
 University), and the Gaussian 82(TM) system (copyright 1983,
 Carnegie Mellon University). Gaussian is a federally registered
 trademark of Gaussian, Inc.
  
 This software contains proprietary and confidential information,
 including trade secrets, belonging to Gaussian, Inc.
  
 This software is provided under written license and may be
 used, copied, transmitted, or stored only in accord with that
 written license.
  
 The following legend is applicable only to US Government
 contracts under FAR:
  
                    RESTRICTED RIGHTS LEGEND
  
 Use, reproduction and disclosure by the US Government is
 subject to restrictions as set forth in subparagraphs (a)
 and (c) of the Commercial Computer Software - Restricted
 Rights clause in FAR 52.227-19.
  
 Gaussian, Inc.
 340 Quinnipiac St., Bldg. 40, Wallingford CT 06492
  
  
 ---------------------------------------------------------------
 Warning -- This program may not be used in any manner that
 competes with the business of Gaussian, Inc. or will provide
 assistance to any competitor of Gaussian, Inc.  The licensee
 of this program is prohibited from giving any competitor of
 Gaussian, Inc. access to this program.  By using this program,
 the user acknowledges that Gaussian, Inc. is engaged in the
 business of creating and licensing software in the field of
 computational chemistry and represents and warrants to the
 licensee that it is not a competitor of Gaussian, Inc. and that
 it will not use this program in any manner prohibited above.
 ---------------------------------------------------------------
  

 Cite this work as:
 Gaussian 09, Revision D.01,
 M. J. Frisch, G. W. Trucks, H. B. Schlegel, G. E. Scuseria, 
 M. A. Robb, J. R. Cheeseman, G. Scalmani, V. Barone, B. Mennucci, 
 G. A. Petersson, H. Nakatsuji, M. Caricato, X. Li, H. P. Hratchian, 
 A. F. Izmaylov, J. Bloino, G. Zheng, J. L. Sonnenberg, M. Hada, 
 M. Ehara, K. Toyota, R. Fukuda, J. Hasegawa, M. Ishida, T. Nakajima, 
 Y. Honda, O. Kitao, H. Nakai, T. Vreven, J. A. Montgomery, Jr., 
 J. E. Peralta, F. Ogliaro, M. Bearpark, J. J. Heyd, E. Brothers, 
 K. N. Kudin, V. N. Staroverov, T. Keith, R. Kobayashi, J. Normand, 
 K. Raghavachari, A. Rendell, J. C. Burant, S. S. Iyengar, J. Tomasi, 
 M. Cossi, N. Rega, J. M. Millam, M. Klene, J. E. Knox, J. B. Cross, 
 V. Bakken, C. Adamo, J. Jaramillo, R. Gomperts, R. E. Stratmann, 
 O. Yazyev, A. J. Austin, R. Cammi, C. Pomelli, J. W. Ochterski, 
 R. L. Martin, K. Morokuma, V. G. Zakrzewski, G. A. Voth, 
 P. Salvador, J. J. Dannenberg, S. Dapprich, A. D. Daniels, 
 O. Farkas, J. B. Foresman, J. V. Ortiz, J. Cioslowski, 
 and D. J. Fox, Gaussian, Inc., Wallingford CT, 2013.
 
 ******************************************
 Gaussian 09:  IA32W-G09RevD.01 24-Apr-2013
                08-Jul-2025 
 ******************************************
 %chk=C:\Gaussian\ZnO_NT_25.chk
 --------------------------------------------
 # freq pm6 geom=connectivity temperature=298
 --------------------------------------------
 1/10=4,30=1,38=1,57=2,112=298000/1,3;
 2/12=2,17=6,18=5,40=1/2;
 3/5=2,16=1,25=1,41=3900000,71=2,140=1/1,2,3;
 4/35=1/1;
 5/5=2,35=1,38=5,98=1/2;
 8/6=4,10=90,11=11/1;
 11/6=1,8=1,9=11,15=111,16=1/1,2,10;
 10/6=1/2;
 6/7=2,8=2,9=2,10=2,18=1,28=1/1;
 7/8=1,10=1,25=1/1,2,3,16;
 1/10=4,30=1/3;
 99//99;
 ---------
 ZnO_NT_25
 ---------
 Symbolic Z-matrix:
 Charge =  0 Multiplicity = 1
 O                    -1    1.60831   4.94988  -12.6646 
 O                    -1    0.        4.12663  -10.83585 
 Zn                   -1    0.        3.31324  -12.55531 
 O                    -1   -1.60831   4.94988  -12.6646 
 O                    -1   -2.42557   3.33852  -10.83585 
 Zn                   -1   -1.94747   2.68046  -12.55531 
 O                    -1   -4.21062   3.0592   -12.6646 
 O                    -1   -3.92466   1.2752   -10.83585 
 Zn                   -1   -3.15108   1.02385  -12.55531 
 O                    -1   -5.20462   0.       -12.6646 
 O                    -1   -3.92466  -1.2752   -10.83585 
 Zn                   -1   -3.15108  -1.02385  -12.55531 
 O                    -1   -4.21062  -3.0592   -12.6646 
 O                    -1   -2.42557  -3.33852  -10.83585 
 Zn                   -1   -1.94747  -2.68046  -12.55531 
 O                    -1   -1.60831  -4.94988  -12.6646 
 O                    -1    0.       -4.12663  -10.83585 
 Zn                   -1    0.       -3.31324  -12.55531 
 O                    -1    1.60831  -4.94988  -12.6646 
 O                    -1    2.42557  -3.33852  -10.83585 
 Zn                   -1    1.94747  -2.68046  -12.55531 
 O                    -1    4.21062  -3.0592   -12.6646 
 O                    -1    3.92466  -1.2752   -10.83585 
 Zn                   -1    3.15108  -1.02385  -12.55531 
 O                    -1    5.20462   0.       -12.6646 
 O                    -1    3.92466   1.2752   -10.83585 
 Zn                   -1    3.15108   1.02385  -12.55531 
 O                    -1    4.21062   3.0592   -12.6646 
 O                    -1    2.42557   3.33852  -10.83585 
 Zn                   -1    1.94747   2.68046  -12.55531 
 O                    -1    1.34581   4.14199  -7.51462 
 Zn                   -1    1.17104   3.60408  -9.32997 
 O                    -1    0.        4.2908   -4.31819 
 Zn                   -1    0.        3.72824  -6.13943 
 O                    -1   -1.34581   4.14199  -7.51462 
 Zn                   -1   -1.17104   3.60408  -9.32997 
 O                    -1   -2.52207   3.47133  -4.31819 
 Zn                   -1   -2.1914    3.01621  -6.13943 
 O                    -1   -3.52338   2.55989  -7.51462 
 Zn                   -1   -3.06581   2.22744  -9.32997 
 O                    -1   -4.0808    1.32593  -4.31819 
 Zn                   -1   -3.54577   1.15209  -6.13943 
 O                    -1   -4.35514   0.       -7.51462 
 Zn                   -1   -3.78955   0.       -9.32997 
 O                    -1   -4.0808   -1.32593  -4.31819 
 Zn                   -1   -3.54577  -1.15209  -6.13943 
 O                    -1   -3.52338  -2.55989  -7.51462 
 Zn                   -1   -3.06581  -2.22744  -9.32997 
 O                    -1   -2.52207  -3.47133  -4.31819 
 Zn                   -1   -2.1914   -3.01621  -6.13943 
 O                    -1   -1.34581  -4.14199  -7.51462 
 Zn                   -1   -1.17104  -3.60408  -9.32997 
 O                    -1    0.       -4.2908   -4.31819 
 Zn                   -1    0.       -3.72824  -6.13943 
 O                    -1    1.34581  -4.14199  -7.51462 
 Zn                   -1    1.17104  -3.60408  -9.32997 
 O                    -1    2.52207  -3.47133  -4.31819 
 Zn                   -1    2.1914   -3.01621  -6.13943 
 O                    -1    3.52338  -2.55989  -7.51462 
 Zn                   -1    3.06581  -2.22744  -9.32997 
 O                    -1    4.0808   -1.32593  -4.31819 
 Zn                   -1    3.54577  -1.15209  -6.13943 
 O                    -1    4.35514   0.       -7.51462 
 Zn                   -1    3.78955   0.       -9.32997 
 O                    -1    4.0808    1.32593  -4.31819 
 Zn                   -1    3.54577   1.15209  -6.13943 
 O                    -1    3.52338   2.55989  -7.51462 
 Zn                   -1    3.06581   2.22744  -9.32997 
 O                    -1    2.52207   3.47133  -4.31819 
 Zn                   -1    2.1914    3.01621  -6.13943 
 O                    -1    1.31965   4.06145  -1.09334 
 Zn                   -1    1.14202   3.51478  -2.90401 
 O                    -1    0.        4.24686   2.14754 
 Zn                   -1    0.        3.69189   0.33753 
 O                    -1   -1.31965   4.06145  -1.09334 
 Zn                   -1   -1.14202   3.51478  -2.90401 
 O                    -1   -2.49624   3.43578   2.14754 
 Zn                   -1   -2.17004   2.98681   0.33753 
 O                    -1   -3.45488   2.51012  -1.09334 
 Zn                   -1   -2.98985   2.17226  -2.90401 
 O                    -1   -4.039     1.31235   2.14754 
 Zn                   -1   -3.5112    1.14086   0.33753 
 O                    -1   -4.27046   0.       -1.09334 
 Zn                   -1   -3.69566   0.       -2.90401 
 O                    -1   -4.039    -1.31235   2.14754 
 Zn                   -1   -3.5112   -1.14086   0.33753 
 O                    -1   -3.45488  -2.51012  -1.09334 
 Zn                   -1   -2.98985  -2.17226  -2.90401 
 O                    -1   -2.49624  -3.43578   2.14754 
 Zn                   0    -2.17004  -2.98681   0.33753 
 O                    -1   -1.31965  -4.06145  -1.09334 
 Zn                   -1   -1.14202  -3.51478  -2.90401 
 O                    -1    0.       -4.24686   2.14754 
 Zn                   -1    0.       -3.69189   0.33753 
 O                    -1    1.31965  -4.06145  -1.09334 
 Zn                   -1    1.14202  -3.51478  -2.90401 
 O                    -1    2.49624  -3.43578   2.14754 
 Zn                   -1    2.17004  -2.98681   0.33753 
 O                    -1    3.45488  -2.51012  -1.09334 
 Zn                   -1    2.98985  -2.17226  -2.90401 
 O                    -1    4.039    -1.31235   2.14754 
 Zn                   -1    3.5112   -1.14086   0.33753 
 O                    -1    4.27046   0.       -1.09334 
 Zn                   -1    3.69566   0.       -2.90401 
 O                    -1    4.039     1.31235   2.14754 
 Zn                   -1    3.5112    1.14086   0.33753 
 O                    -1    3.45488   2.51012  -1.09334 
 Zn                   -1    2.98985   2.17226  -2.90401 
 O                    -1    2.49624   3.43578   2.14754 
 Zn                   -1    2.17004   2.98681   0.33753 
 O                    -1    1.32019   4.06313   5.39058 
 Zn                   -1    1.13803   3.50248   3.58761 
 O                    -1    0.        4.12651   8.63153 
 Zn                   -1    0.        3.66099   6.83612 
 O                    -1   -1.32019   4.06313   5.39058 
 Zn                   -1   -1.13803   3.50248   3.58761 
 O                    -1   -2.4255    3.33842   8.63153 
 Zn                   -1   -2.15188   2.9618    6.83612 
 O                    -1   -3.45631   2.51115   5.39058 
 Zn                   -1   -2.97939   2.16465   3.58761 
 O                    -1   -3.92455   1.27516   8.63153 
 Zn                   -1   -3.48181   1.13131   6.83612 
 O                    -1   -4.27223   0.        5.39058 
 Zn                   -1   -3.68273   0.        3.58761 
 O                    -1   -3.92455  -1.27516   8.63153 
 Zn                   -1   -3.48181  -1.13131   6.83612 
 O                    -1   -3.45631  -2.51115   5.39058 
 Zn                   -1   -2.97939  -2.16465   3.58761 
 O                    -1   -2.4255   -3.33842   8.63153 
 Zn                   -1   -2.15188  -2.9618    6.83612 
 O                    -1   -1.32019  -4.06313   5.39058 
 Zn                   -1   -1.13803  -3.50248   3.58761 
 O                    -1    0.       -4.12651   8.63153 
 Zn                   -1    0.       -3.66099   6.83612 
 O                    -1    1.32019  -4.06313   5.39058 
 Zn                   -1    1.13803  -3.50248   3.58761 
 O                    -1    2.4255   -3.33842   8.63153 
 Zn                   -1    2.15188  -2.9618    6.83612 
 O                    -1    3.45631  -2.51115   5.39058 
 Zn                   -1    2.97939  -2.16465   3.58761 
 O                    -1    3.92455  -1.27516   8.63153 
 Zn                   -1    3.48181  -1.13131   6.83612 
 O                    -1    4.27223   0.        5.39058 
 Zn                   -1    3.68273   0.        3.58761 
 O                    -1    3.92455   1.27516   8.63153 
 Zn                   -1    3.48181   1.13131   6.83612 
 O                    -1    3.45631   2.51115   5.39058 
 Zn                   -1    2.97939   2.16465   3.58761 
 O                    -1    2.4255    3.33842   8.63153 
 Zn                   -1    2.15188   2.9618    6.83612 
 O                    -1    1.40714   4.33073   11.89615 
 Zn                   -1    1.15195   3.54535   10.12377 
 Zn                   -1    0.        5.10563   12.64629 
 O                    -1   -1.40714   4.33073   11.89615 
 Zn                   -1   -1.15195   3.54535   10.12377 
 Zn                   -1   -3.00101   4.13054   12.64629 
 O                    -1   -3.68394   2.67654   11.89615 
 Zn                   -1   -3.01586   2.19115   10.12377 
 Zn                   -1   -4.85574   1.57773   12.64629 
 O                    -1   -4.5536    0.        11.89615 
 Zn                   -1   -3.7278    0.        10.12377 
 Zn                   -1   -4.85574  -1.57773   12.64629 
 O                    -1   -3.68394  -2.67654   11.89615 
 Zn                   -1   -3.01586  -2.19115   10.12377 
 Zn                   -1   -3.00101  -4.13054   12.64629 
 O                    -1   -1.40714  -4.33073   11.89615 
 Zn                   -1   -1.15195  -3.54535   10.12377 
 Zn                   -1    0.       -5.10563   12.64629 
 O                    -1    1.40714  -4.33073   11.89615 
 Zn                   -1    1.15195  -3.54535   10.12377 
 Zn                   -1    3.00101  -4.13054   12.64629 
 O                    -1    3.68394  -2.67654   11.89615 
 Zn                   -1    3.01586  -2.19115   10.12377 
 Zn                   -1    4.85574  -1.57773   12.64629 
 O                    -1    4.5536    0.        11.89615 
 Zn                   -1    3.7278    0.        10.12377 
 Zn                   -1    4.85574   1.57773   12.64629 
 O                    -1    3.68394   2.67654   11.89615 
 Zn                   -1    3.01586   2.19115   10.12377 
 Zn                   -1    3.00101   4.13054   12.64629 
 H                    -1    3.7433    5.15221   13.76377 
 H                    -1    6.05678   1.96797   13.76377 
 H                    -1    6.05678  -1.96797   13.76377 
 H                    -1    3.7433   -5.15221   13.76377 
 H                    -1    0.       -6.36848   13.76377 
 H                    -1   -3.7433   -5.15221   13.76377 
 H                    -1   -6.05678  -1.96797   13.76377 
 H                    -1   -6.05678   1.96797   13.76377 
 H                    -1   -3.7433    5.15221   13.76377 
 H                    -1    0.        6.36848   13.76377 
 H                    -1   -4.50201  -3.2709   -11.70323 
 H                    -1   -4.82905  -3.50851  -13.25199 
 H                    -1   -1.71962  -5.29243  -11.70323 
 H                    -1   -1.84453  -5.67689  -13.25199 
 H                    -1    1.71962  -5.29243  -11.70323 
 H                    -1    1.84453  -5.67689  -13.25199 
 H                    -1    4.50201  -3.2709   -11.70323 
 H                    -1    4.82905  -3.50851  -13.25199 
 H                    -1    5.56479   0.       -11.70323 
 H                    -1    5.96903   0.       -13.25199 
 H                    -1    4.50201   3.2709   -11.70323 
 H                    -1    4.82905   3.50851  -13.25199 
 H                    -1    1.84453   5.67689  -13.25199 
 H                    -1    1.71962   5.29243  -11.70323 
 H                    -1   -1.71962   5.29243  -11.70323 
 H                    -1   -1.84453   5.67689  -13.25199 
 H                    -1   -4.50201   3.2709   -11.70323 
 H                    -1   -4.82905   3.50851  -13.25199 
 H                    -1   -5.56479   0.       -11.70323 
 H                    -1   -5.96903   0.       -13.25199 
 

 GradGradGradGradGradGradGradGradGradGradGradGradGradGradGradGradGradGrad
 Berny optimization.
 Initialization pass.
 Trust Radius=3.00D-01 FncErr=1.00D-07 GrdErr=1.00D-07
 Number of steps in this run=      2 maximum allowed number of steps=      2.
 GradGradGradGradGradGradGradGradGradGradGradGradGradGradGradGradGradGrad

 No symmetry labels for this point group.
 Stoichiometry    H30O90Zn90
 Framework group  C10V[5SGV(H2O8Zn10),5SGD(H4O10Zn8)]
 Deg. of freedom    41
 Full point group                 C10V    NOp  20
 Largest Abelian subgroup         C2V     NOp   4
 Largest concise Abelian subgroup C2V     NOp   4
                         Standard orientation:                         
 ---------------------------------------------------------------------
 Center     Atomic      Atomic             Coordinates (Angstroms)
 Number     Number       Type             X           Y           Z
 ---------------------------------------------------------------------
      1          8           0       -1.608315    4.949884   12.664604
      2          8           0        0.000000    4.126632   10.835846
      3         30           0        0.000000    3.313237   12.555312
      4          8           0        1.608315    4.949884   12.664604
      5          8           0        2.425574    3.338516   10.835846
      6         30           0        1.947472    2.680465   12.555312
      7          8           0        4.210623    3.059196   12.664604
      8          8           0        3.924660    1.275199   10.835846
      9         30           0        3.151075    1.023846   12.555312
     10          8           0        5.204616    0.000000   12.664604
     11          8           0        3.924660   -1.275199   10.835846
     12         30           0        3.151075   -1.023846   12.555312
     13          8           0        4.210623   -3.059196   12.664604
     14          8           0        2.425574   -3.338516   10.835846
     15         30           0        1.947472   -2.680465   12.555312
     16          8           0        1.608315   -4.949884   12.664604
     17          8           0        0.000000   -4.126632   10.835846
     18         30           0        0.000000   -3.313237   12.555312
     19          8           0       -1.608315   -4.949884   12.664604
     20          8           0       -2.425574   -3.338516   10.835846
     21         30           0       -1.947472   -2.680465   12.555312
     22          8           0       -4.210623   -3.059196   12.664604
     23          8           0       -3.924660   -1.275199   10.835846
     24         30           0       -3.151075   -1.023846   12.555312
     25          8           0       -5.204616    0.000000   12.664604
     26          8           0       -3.924660    1.275199   10.835846
     27         30           0       -3.151075    1.023846   12.555312
     28          8           0       -4.210623    3.059196   12.664604
     29          8           0       -2.425574    3.338516   10.835846
     30         30           0       -1.947472    2.680465   12.555312
     31          8           0       -1.345813    4.141987    7.514621
     32         30           0       -1.171036    3.604078    9.329972
     33          8           0        0.000000    4.290803    4.318191
     34         30           0        0.000000    3.728240    6.139426
     35          8           0        1.345813    4.141987    7.514621
     36         30           0        1.171036    3.604078    9.329972
     37          8           0        2.522071    3.471333    4.318191
     38         30           0        2.191404    3.016209    6.139426
     39          8           0        3.523385    2.559889    7.514621
     40         30           0        3.065812    2.227443    9.329972
     41          8           0        4.080797    1.325931    4.318191
     42         30           0        3.545767    1.152089    6.139426
     43          8           0        4.355143    0.000000    7.514621
     44         30           0        3.789552    0.000000    9.329972
     45          8           0        4.080797   -1.325931    4.318191
     46         30           0        3.545767   -1.152089    6.139426
     47          8           0        3.523385   -2.559889    7.514621
     48         30           0        3.065812   -2.227443    9.329972
     49          8           0        2.522071   -3.471333    4.318191
     50         30           0        2.191404   -3.016209    6.139426
     51          8           0        1.345813   -4.141987    7.514621
     52         30           0        1.171036   -3.604078    9.329972
     53          8           0        0.000000   -4.290803    4.318191
     54         30           0        0.000000   -3.728240    6.139426
     55          8           0       -1.345813   -4.141987    7.514621
     56         30           0       -1.171036   -3.604078    9.329972
     57          8           0       -2.522071   -3.471333    4.318191
     58         30           0       -2.191404   -3.016209    6.139426
     59          8           0       -3.523385   -2.559889    7.514621
     60         30           0       -3.065812   -2.227443    9.329972
     61          8           0       -4.080797   -1.325931    4.318191
     62         30           0       -3.545767   -1.152089    6.139426
     63          8           0       -4.355143    0.000000    7.514621
     64         30           0       -3.789552    0.000000    9.329972
     65          8           0       -4.080797    1.325931    4.318191
     66         30           0       -3.545767    1.152089    6.139426
     67          8           0       -3.523385    2.559889    7.514621
     68         30           0       -3.065812    2.227443    9.329972
     69          8           0       -2.522071    3.471333    4.318191
     70         30           0       -2.191404    3.016209    6.139426
     71          8           0       -1.319646    4.061452    1.093341
     72         30           0       -1.142022    3.514783    2.904015
     73          8           0        0.000000    4.246857   -2.147536
     74         30           0        0.000000    3.691894   -0.337534
     75          8           0        1.319646    4.061452    1.093341
     76         30           0        1.142022    3.514783    2.904015
     77          8           0        2.496240    3.435780   -2.147536
     78         30           0        2.170041    2.986805   -0.337534
     79          8           0        3.454878    2.510116    1.093341
     80         30           0        2.989853    2.172255    2.904015
     81          8           0        4.039001    1.312351   -2.147536
     82         30           0        3.511200    1.140858   -0.337534
     83          8           0        4.270464    0.000000    1.093341
     84         30           0        3.695662    0.000000    2.904015
     85          8           0        4.039001   -1.312351   -2.147536
     86         30           0        3.511200   -1.140858   -0.337534
     87          8           0        3.454878   -2.510116    1.093341
     88         30           0        2.989853   -2.172255    2.904015
     89          8           0        2.496240   -3.435780   -2.147536
     90         30           0        2.170041   -2.986805   -0.337534
     91          8           0        1.319646   -4.061452    1.093341
     92         30           0        1.142022   -3.514783    2.904015
     93          8           0        0.000000   -4.246857   -2.147536
     94         30           0        0.000000   -3.691894   -0.337534
     95          8           0       -1.319646   -4.061452    1.093341
     96         30           0       -1.142022   -3.514783    2.904015
     97          8           0       -2.496240   -3.435780   -2.147536
     98         30           0       -2.170041   -2.986805   -0.337534
     99          8           0       -3.454878   -2.510116    1.093341
    100         30           0       -2.989853   -2.172255    2.904015
    101          8           0       -4.039001   -1.312351   -2.147536
    102         30           0       -3.511200   -1.140858   -0.337534
    103          8           0       -4.270464    0.000000    1.093341
    104         30           0       -3.695662    0.000000    2.904015
    105          8           0       -4.039001    1.312351   -2.147536
    106         30           0       -3.511200    1.140858   -0.337534
    107          8           0       -3.454878    2.510116    1.093341
    108         30           0       -2.989853    2.172255    2.904015
    109          8           0       -2.496240    3.435780   -2.147536
    110         30           0       -2.170041    2.986805   -0.337534
    111          8           0       -1.320192    4.063133   -5.390578
    112         30           0       -1.138025    3.502481   -3.587608
    113          8           0        0.000000    4.126513   -8.631533
    114         30           0        0.000000    3.660991   -6.836119
    115          8           0        1.320192    4.063133   -5.390578
    116         30           0        1.138025    3.502481   -3.587608
    117          8           0        2.425503    3.338419   -8.631533
    118         30           0        2.151877    2.961804   -6.836119
    119          8           0        3.456307    2.511154   -5.390578
    120         30           0        2.979388    2.164652   -3.587608
    121          8           0        3.924547    1.275163   -8.631533
    122         30           0        3.481810    1.131309   -6.836119
    123          8           0        4.272231    0.000000   -5.390578
    124         30           0        3.682727    0.000000   -3.587608
    125          8           0        3.924547   -1.275163   -8.631533
    126         30           0        3.481810   -1.131309   -6.836119
    127          8           0        3.456307   -2.511154   -5.390578
    128         30           0        2.979388   -2.164652   -3.587608
    129          8           0        2.425503   -3.338419   -8.631533
    130         30           0        2.151877   -2.961804   -6.836119
    131          8           0        1.320192   -4.063133   -5.390578
    132         30           0        1.138025   -3.502481   -3.587608
    133          8           0        0.000000   -4.126513   -8.631533
    134         30           0        0.000000   -3.660991   -6.836119
    135          8           0       -1.320192   -4.063133   -5.390578
    136         30           0       -1.138025   -3.502481   -3.587608
    137          8           0       -2.425503   -3.338419   -8.631533
    138         30           0       -2.151877   -2.961804   -6.836119
    139          8           0       -3.456307   -2.511154   -5.390578
    140         30           0       -2.979388   -2.164652   -3.587608
    141          8           0       -3.924547   -1.275163   -8.631533
    142         30           0       -3.481810   -1.131309   -6.836119
    143          8           0       -4.272231    0.000000   -5.390578
    144         30           0       -3.682727    0.000000   -3.587608
    145          8           0       -3.924547    1.275163   -8.631533
    146         30           0       -3.481810    1.131309   -6.836119
    147          8           0       -3.456307    2.511154   -5.390578
    148         30           0       -2.979388    2.164652   -3.587608
    149          8           0       -2.425503    3.338419   -8.631533
    150         30           0       -2.151877    2.961804   -6.836119
    151          8           0       -1.407140    4.330731  -11.896152
    152         30           0       -1.151954    3.545350  -10.123774
    153         30           0        0.000000    5.105625  -12.646286
    154          8           0        1.407140    4.330731  -11.896152
    155         30           0        1.151954    3.545350  -10.123774
    156         30           0        3.001011    4.130538  -12.646286
    157          8           0        3.683940    2.676539  -11.896152
    158         30           0        3.015855    2.191147  -10.123774
    159         30           0        4.855738    1.577725  -12.646286
    160          8           0        4.553600    0.000000  -11.896152
    161         30           0        3.727802    0.000000  -10.123774
    162         30           0        4.855738   -1.577725  -12.646286
    163          8           0        3.683940   -2.676539  -11.896152
    164         30           0        3.015855   -2.191147  -10.123774
    165         30           0        3.001011   -4.130538  -12.646286
    166          8           0        1.407140   -4.330731  -11.896152
    167         30           0        1.151954   -3.545350  -10.123774
    168         30           0        0.000000   -5.105625  -12.646286
    169          8           0       -1.407140   -4.330731  -11.896152
    170         30           0       -1.151954   -3.545350  -10.123774
    171         30           0       -3.001011   -4.130538  -12.646286
    172          8           0       -3.683940   -2.676539  -11.896152
    173         30           0       -3.015855   -2.191147  -10.123774
    174         30           0       -4.855738   -1.577725  -12.646286
    175          8           0       -4.553600    0.000000  -11.896152
    176         30           0       -3.727802    0.000000  -10.123774
    177         30           0       -4.855738    1.577725  -12.646286
    178          8           0       -3.683940    2.676539  -11.896152
    179         30           0       -3.015855    2.191147  -10.123774
    180         30           0       -3.001011    4.130538  -12.646286
    181          1           0       -3.743297    5.152206  -13.763772
    182          1           0       -6.056782    1.967968  -13.763772
    183          1           0       -6.056782   -1.967968  -13.763772
    184          1           0       -3.743297   -5.152206  -13.763772
    185          1           0        0.000000   -6.368477  -13.763772
    186          1           0        3.743297   -5.152206  -13.763772
    187          1           0        6.056782   -1.967968  -13.763772
    188          1           0        6.056782    1.967968  -13.763772
    189          1           0        3.743297    5.152206  -13.763772
    190          1           0        0.000000    6.368477  -13.763772
    191          1           0        4.502011   -3.270902   11.703230
    192          1           0        4.829047   -3.508508   13.251985
    193          1           0        1.719615   -5.292431   11.703230
    194          1           0        1.844532   -5.676886   13.251985
    195          1           0       -1.719615   -5.292431   11.703230
    196          1           0       -1.844532   -5.676886   13.251985
    197          1           0       -4.502011   -3.270902   11.703230
    198          1           0       -4.829047   -3.508508   13.251985
    199          1           0       -5.564792    0.000000   11.703230
    200          1           0       -5.969031    0.000000   13.251985
    201          1           0       -4.502011    3.270902   11.703230
    202          1           0       -4.829047    3.508508   13.251985
    203          1           0       -1.844532    5.676886   13.251985
    204          1           0       -1.719615    5.292431   11.703230
    205          1           0        1.719615    5.292431   11.703230
    206          1           0        1.844532    5.676886   13.251985
    207          1           0        4.502011    3.270902   11.703230
    208          1           0        4.829047    3.508508   13.251985
    209          1           0        5.564792    0.000000   11.703230
    210          1           0        5.969031    0.000000   13.251985
 ---------------------------------------------------------------------
 Rotational constants (GHZ):      0.0044256      0.0009179      0.0009179
 Standard basis: VSTO-6G (5D, 7F)
 There are   207 symmetry adapted cartesian basis functions of A1  symmetry.
 There are   168 symmetry adapted cartesian basis functions of A2  symmetry.
 There are   188 symmetry adapted cartesian basis functions of B1  symmetry.
 There are   187 symmetry adapted cartesian basis functions of B2  symmetry.
 There are   207 symmetry adapted basis functions of A1  symmetry.
 There are   168 symmetry adapted basis functions of A2  symmetry.
 There are   188 symmetry adapted basis functions of B1  symmetry.
 There are   187 symmetry adapted basis functions of B2  symmetry.
   750 basis functions,  4500 primitive gaussians,   750 cartesian basis functions
   375 alpha electrons      375 beta electrons
       nuclear repulsion energy     17213.1189204557 Hartrees.
 Integral buffers will be    262144 words long.
 Regular integral format.
 Two-electron integral symmetry is turned off.
 Do NDO integrals.
 One-electron integrals computed using PRISM.
 NBasis=   750 RedAO= T EigKep=  5.00D-01  NBF=   207   168   188   187
 NBsUse=   750 1.00D-06 EigRej= -1.00D+00 NBFU=   207   168   188   187
 Nonelectrostatic core Hamiltonian diagonalized for initial guess.
 Initial guess orbital symmetries:
 Overlap will be assumed to be unity.
 Keep J ints in memory in canonical form, NReq=4404723.
 Requested convergence on RMS density matrix=1.00D-08 within 128 cycles.
 Requested convergence on MAX density matrix=1.00D-06.
 Requested convergence on             energy=1.00D-06.
 No special actions if energy rises.
 EnCoef did     7 forward-backward iterations
 EnCoef did    12 forward-backward iterations
 EnCoef did   100 forward-backward iterations
 EnCoef did     2 forward-backward iterations
 Fock symm off for IB=2 I1=    1 I=  208 J=  205 Cut=1.00D-07 Err=1.53D-02
 Fock matrix is not symmetric: symmetry in diagonalization turned off.
 SCF Done:  E(RPM6) =  -10.2614176323     A.U. after   26 cycles
            NFock= 25  Conv=0.62D-08     -V/T= 0.9839
 Range of M.O.s used for correlation:     1   750
 NBasis=   750 NAE=   375 NBE=   375 NFC=     0 NFV=     0
 NROrb=    750 NOA=   375 NOB=   375 NVA=   375 NVB=   375

 **** Warning!!: The smallest alpha delta epsilon is  0.94569168D-01

 Symmetrizing basis deriv contribution to polar:
 IMax=3 JMax=2 DiffMx= 0.00D+00
 G2DrvN: will do    17 centers at a time, making   13 passes.
 Calling FoFCou, ICntrl=  3107 FMM=F I1Cent=   0 AccDes= 0.00D+00.
 Calling FoFCou, ICntrl=  3107 FMM=F I1Cent=   0 AccDes= 0.00D+00.
 Calling FoFCou, ICntrl=  3107 FMM=F I1Cent=   0 AccDes= 0.00D+00.
 Calling FoFCou, ICntrl=  3107 FMM=F I1Cent=   0 AccDes= 0.00D+00.
 Calling FoFCou, ICntrl=  3107 FMM=F I1Cent=   0 AccDes= 0.00D+00.
 Calling FoFCou, ICntrl=  3107 FMM=F I1Cent=   0 AccDes= 0.00D+00.
 Calling FoFCou, ICntrl=  3107 FMM=F I1Cent=   0 AccDes= 0.00D+00.
 Calling FoFCou, ICntrl=  3107 FMM=F I1Cent=   0 AccDes= 0.00D+00.
 Calling FoFCou, ICntrl=  3107 FMM=F I1Cent=   0 AccDes= 0.00D+00.
 Calling FoFCou, ICntrl=  3107 FMM=F I1Cent=   0 AccDes= 0.00D+00.
 Calling FoFCou, ICntrl=  3107 FMM=F I1Cent=   0 AccDes= 0.00D+00.
 Calling FoFCou, ICntrl=  3107 FMM=F I1Cent=   0 AccDes= 0.00D+00.
 Calling FoFCou, ICntrl=  3107 FMM=F I1Cent=   0 AccDes= 0.00D+00.
 End of G2Drv F.D. properties file   721 does not exist.
 End of G2Drv F.D. properties file   722 does not exist.
 End of G2Drv F.D. properties file   788 does not exist.
          IDoAtm=00000000000000000000000000000000000000000000000000
          IDoAtm=00000000000000000000000000000000000000010000000000
          IDoAtm=00000000000000000000000000000000000000000000000000
          IDoAtm=00000000000000000000000000000000000000000000000000
          IDoAtm=0000000000
          Differentiating once with respect to electric field.
                with respect to dipole field.
          Differentiating once with respect to nuclear coordinates.
          Electric field/nuclear overlap derivatives assumed to be zero.
 Keep J ints in memory in canonical form, NReq=2771109.
          There are     6 degrees of freedom in the 1st order CPHF.  IDoFFX=5 NUNeed=     6.
 LinEq1:  Iter=  0 NonCon=     6 RMS=1.43D-01 Max=1.36D+01 NDo=     6
 AX will form     6 AO Fock derivatives at one time.
 LinEq1:  Iter=  1 NonCon=     6 RMS=3.19D-02 Max=2.07D+00 NDo=     6
 LinEq1:  Iter=  2 NonCon=     6 RMS=1.11D-02 Max=5.67D-01 NDo=     6
 LinEq1:  Iter=  3 NonCon=     6 RMS=3.51D-03 Max=3.77D-01 NDo=     6
 LinEq1:  Iter=  4 NonCon=     6 RMS=1.24D-03 Max=7.24D-02 NDo=     6
 LinEq1:  Iter=  5 NonCon=     6 RMS=3.43D-04 Max=1.30D-02 NDo=     6
 LinEq1:  Iter=  6 NonCon=     6 RMS=1.12D-04 Max=5.29D-03 NDo=     6
 LinEq1:  Iter=  7 NonCon=     6 RMS=4.14D-05 Max=2.50D-03 NDo=     6
 LinEq1:  Iter=  8 NonCon=     6 RMS=1.30D-05 Max=6.88D-04 NDo=     6
 LinEq1:  Iter=  9 NonCon=     6 RMS=4.82D-06 Max=2.63D-04 NDo=     6
 LinEq1:  Iter= 10 NonCon=     6 RMS=1.45D-06 Max=6.97D-05 NDo=     6
 LinEq1:  Iter= 11 NonCon=     6 RMS=3.94D-07 Max=3.07D-05 NDo=     6
 LinEq1:  Iter= 12 NonCon=     3 RMS=1.59D-07 Max=7.05D-06 NDo=     6
 LinEq1:  Iter= 13 NonCon=     3 RMS=5.04D-08 Max=2.77D-06 NDo=     6
 LinEq1:  Iter= 14 NonCon=     3 RMS=1.15D-08 Max=4.86D-07 NDo=     6
 LinEq1:  Iter= 15 NonCon=     3 RMS=3.78D-09 Max=2.37D-07 NDo=     6
 LinEq1:  Iter= 16 NonCon=     0 RMS=1.34D-09 Max=6.38D-08 NDo=     6
 Linear equations converged to 1.000D-08 1.000D-07 after    16 iterations.
 Isotropic polarizability for W=    0.000000     3299.68 Bohr**3.
 End of Minotr F.D. properties file   721 does not exist.
 End of Minotr F.D. properties file   722 does not exist.
 End of Minotr F.D. properties file   788 does not exist.

 **********************************************************************

            Population analysis using the SCF density.

 **********************************************************************

 Orbital symmetries:
 Unable to determine electronic state:  an orbital has unidentified symmetry.
 Alpha  occ. eigenvalues --   -1.67220  -1.60577  -1.52251  -1.52251  -1.52088
 Alpha  occ. eigenvalues --   -1.46339  -1.46339  -1.41677  -1.39660  -1.39660
 Alpha  occ. eigenvalues --   -1.31820  -1.31820  -1.30542  -1.27153  -1.27153
 Alpha  occ. eigenvalues --   -1.23526  -1.23526  -1.22659  -1.22659  -1.21029
 Alpha  occ. eigenvalues --   -1.21029  -1.20430  -1.19674  -1.19674  -1.19313
 Alpha  occ. eigenvalues --   -1.18625  -1.18625  -1.16653  -1.16653  -1.15150
 Alpha  occ. eigenvalues --   -1.15150  -1.14855  -1.11393  -1.11393  -1.11357
 Alpha  occ. eigenvalues --   -1.11357  -1.08244  -1.07450  -1.07450  -1.06586
 Alpha  occ. eigenvalues --   -1.06586  -1.05608  -1.05608  -1.04175  -1.04175
 Alpha  occ. eigenvalues --   -1.03714  -1.03714  -1.01601  -1.01601  -1.01151
 Alpha  occ. eigenvalues --   -1.01151  -1.00841  -1.00361  -1.00361  -0.99844
 Alpha  occ. eigenvalues --   -0.99844  -0.99595  -0.99595  -0.99514  -0.99514
 Alpha  occ. eigenvalues --   -0.98799  -0.98799  -0.98034  -0.98034  -0.97722
 Alpha  occ. eigenvalues --   -0.96678  -0.96622  -0.96622  -0.96598  -0.96598
 Alpha  occ. eigenvalues --   -0.96592  -0.96576  -0.96576  -0.95951  -0.95951
 Alpha  occ. eigenvalues --   -0.95183  -0.94880  -0.94880  -0.94343  -0.93434
 Alpha  occ. eigenvalues --   -0.93257  -0.93257  -0.92940  -0.92940  -0.92856
 Alpha  occ. eigenvalues --   -0.92856  -0.91872  -0.91131  -0.91131  -0.91064
 Alpha  occ. eigenvalues --   -0.89529  -0.89529  -0.88198  -0.80954  -0.80954
 Alpha  occ. eigenvalues --   -0.79164  -0.78793  -0.78793  -0.78488  -0.78488
 Alpha  occ. eigenvalues --   -0.78460  -0.77933  -0.77574  -0.77574  -0.77139
 Alpha  occ. eigenvalues --   -0.75420  -0.75101  -0.75101  -0.74969  -0.74969
 Alpha  occ. eigenvalues --   -0.74159  -0.73527  -0.73527  -0.73379  -0.72090
 Alpha  occ. eigenvalues --   -0.72090  -0.71220  -0.71220  -0.71195  -0.70124
 Alpha  occ. eigenvalues --   -0.70124  -0.69803  -0.69803  -0.68280  -0.68280
 Alpha  occ. eigenvalues --   -0.67217  -0.67217  -0.66605  -0.66605  -0.66400
 Alpha  occ. eigenvalues --   -0.66004  -0.65245  -0.65245  -0.64192  -0.64192
 Alpha  occ. eigenvalues --   -0.63739  -0.63271  -0.63271  -0.63096  -0.63096
 Alpha  occ. eigenvalues --   -0.62563  -0.62563  -0.61585  -0.61585  -0.60373
 Alpha  occ. eigenvalues --   -0.60373  -0.59677  -0.59677  -0.59026  -0.58818
 Alpha  occ. eigenvalues --   -0.58818  -0.58817  -0.58817  -0.57769  -0.57769
 Alpha  occ. eigenvalues --   -0.57415  -0.57415  -0.56980  -0.56980  -0.56271
 Alpha  occ. eigenvalues --   -0.56027  -0.56027  -0.55809  -0.55809  -0.55793
 Alpha  occ. eigenvalues --   -0.55793  -0.55399  -0.55109  -0.55109  -0.54918
 Alpha  occ. eigenvalues --   -0.54918  -0.54779  -0.54765  -0.54765  -0.54713
 Alpha  occ. eigenvalues --   -0.54713  -0.54677  -0.54677  -0.54466  -0.54353
 Alpha  occ. eigenvalues --   -0.54353  -0.54287  -0.54258  -0.54258  -0.54027
 Alpha  occ. eigenvalues --   -0.53848  -0.53848  -0.53759  -0.53759  -0.53311
 Alpha  occ. eigenvalues --   -0.52826  -0.52826  -0.52716  -0.52716  -0.52358
 Alpha  occ. eigenvalues --   -0.52358  -0.51965  -0.51965  -0.51950  -0.51216
 Alpha  occ. eigenvalues --   -0.51216  -0.51215  -0.50978  -0.50978  -0.50874
 Alpha  occ. eigenvalues --   -0.50874  -0.50491  -0.50486  -0.50166  -0.50023
 Alpha  occ. eigenvalues --   -0.50023  -0.49933  -0.49933  -0.49885  -0.49757
 Alpha  occ. eigenvalues --   -0.49757  -0.49545  -0.49545  -0.49424  -0.49424
 Alpha  occ. eigenvalues --   -0.48992  -0.48746  -0.48746  -0.48723  -0.48685
 Alpha  occ. eigenvalues --   -0.48685  -0.48596  -0.48440  -0.48440  -0.48184
 Alpha  occ. eigenvalues --   -0.48184  -0.48095  -0.48095  -0.47566  -0.47452
 Alpha  occ. eigenvalues --   -0.47408  -0.47408  -0.47294  -0.47294  -0.47193
 Alpha  occ. eigenvalues --   -0.47193  -0.46888  -0.46888  -0.46095  -0.46095
 Alpha  occ. eigenvalues --   -0.46033  -0.46033  -0.45941  -0.45941  -0.45920
 Alpha  occ. eigenvalues --   -0.45881  -0.45881  -0.45880  -0.45880  -0.45864
 Alpha  occ. eigenvalues --   -0.45808  -0.45808  -0.45405  -0.45405  -0.45333
 Alpha  occ. eigenvalues --   -0.45333  -0.45236  -0.45236  -0.45133  -0.45133
 Alpha  occ. eigenvalues --   -0.45005  -0.44861  -0.44861  -0.44507  -0.44507
 Alpha  occ. eigenvalues --   -0.44380  -0.44365  -0.44365  -0.44341  -0.44341
 Alpha  occ. eigenvalues --   -0.44199  -0.44138  -0.44103  -0.44103  -0.44078
 Alpha  occ. eigenvalues --   -0.43997  -0.43997  -0.43878  -0.43878  -0.43799
 Alpha  occ. eigenvalues --   -0.43799  -0.43521  -0.43434  -0.43434  -0.42970
 Alpha  occ. eigenvalues --   -0.42970  -0.42929  -0.42929  -0.42871  -0.42871
 Alpha  occ. eigenvalues --   -0.42788  -0.42788  -0.42698  -0.42682  -0.42444
 Alpha  occ. eigenvalues --   -0.42444  -0.42308  -0.42192  -0.42192  -0.42031
 Alpha  occ. eigenvalues --   -0.42031  -0.41788  -0.41748  -0.41748  -0.41666
 Alpha  occ. eigenvalues --   -0.41666  -0.41507  -0.41507  -0.41381  -0.41381
 Alpha  occ. eigenvalues --   -0.41321  -0.41053  -0.40857  -0.40779  -0.40779
 Alpha  occ. eigenvalues --   -0.40543  -0.40543  -0.40537  -0.40458  -0.40458
 Alpha  occ. eigenvalues --   -0.40178  -0.40178  -0.40106  -0.40106  -0.39953
 Alpha  occ. eigenvalues --   -0.39953  -0.39950  -0.39950  -0.39773  -0.39473
 Alpha  occ. eigenvalues --   -0.39094  -0.39094  -0.38687  -0.38687  -0.38657
 Alpha  occ. eigenvalues --   -0.38657  -0.38197  -0.38197  -0.38031  -0.38031
 Alpha  occ. eigenvalues --   -0.38012  -0.37911  -0.37801  -0.37567  -0.37567
 Alpha  occ. eigenvalues --   -0.37225  -0.37225  -0.36577  -0.36577  -0.36253
 Alpha  occ. eigenvalues --   -0.36253  -0.36230  -0.36230  -0.36147  -0.36147
 Alpha  occ. eigenvalues --   -0.35912  -0.35878  -0.35242  -0.35242  -0.35214
 Alpha  occ. eigenvalues --   -0.35214  -0.34435  -0.34435  -0.34312  -0.33589
 Alpha  occ. eigenvalues --   -0.33589  -0.33293  -0.33261  -0.33094  -0.33094
 Alpha virt. eigenvalues --   -0.23637  -0.22279  -0.22279  -0.20486  -0.19139
 Alpha virt. eigenvalues --   -0.19139  -0.19097  -0.19097  -0.18257  -0.18257
 Alpha virt. eigenvalues --   -0.17739  -0.16442  -0.16442  -0.15598  -0.14923
 Alpha virt. eigenvalues --   -0.14923  -0.14224  -0.14224  -0.14168  -0.12771
 Alpha virt. eigenvalues --   -0.12771  -0.12126  -0.12126  -0.11909  -0.10638
 Alpha virt. eigenvalues --   -0.10638  -0.10038  -0.09770  -0.09770  -0.09028
 Alpha virt. eigenvalues --   -0.09028  -0.08365  -0.08365  -0.08364  -0.07237
 Alpha virt. eigenvalues --   -0.07237  -0.06995  -0.06995  -0.06463  -0.06463
 Alpha virt. eigenvalues --   -0.06412  -0.06412  -0.06263  -0.06031  -0.06031
 Alpha virt. eigenvalues --   -0.05709  -0.05709  -0.05128  -0.05128  -0.03666
 Alpha virt. eigenvalues --   -0.03656  -0.03656  -0.03438  -0.03438  -0.03200
 Alpha virt. eigenvalues --   -0.03200  -0.03028  -0.03028  -0.02369  -0.02369
 Alpha virt. eigenvalues --   -0.02091  -0.02091  -0.01802  -0.01802  -0.01633
 Alpha virt. eigenvalues --   -0.01503  -0.01503  -0.01408  -0.01201  -0.00546
 Alpha virt. eigenvalues --   -0.00546  -0.00306  -0.00159   0.00136   0.00136
 Alpha virt. eigenvalues --    0.00478   0.00478   0.00574   0.00574   0.00676
 Alpha virt. eigenvalues --    0.00858   0.00858   0.00872   0.00872   0.01225
 Alpha virt. eigenvalues --    0.01396   0.01464   0.01464   0.02355   0.02355
 Alpha virt. eigenvalues --    0.02367   0.02407   0.02407   0.02532   0.02749
 Alpha virt. eigenvalues --    0.02749   0.02789   0.03132   0.03132   0.03246
 Alpha virt. eigenvalues --    0.03246   0.03524   0.03524   0.03650   0.03650
 Alpha virt. eigenvalues --    0.04017   0.04017   0.04027   0.04042   0.04625
 Alpha virt. eigenvalues --    0.04625   0.04781   0.04808   0.04808   0.04832
 Alpha virt. eigenvalues --    0.04832   0.04966   0.04966   0.05134   0.05134
 Alpha virt. eigenvalues --    0.05174   0.05635   0.05635   0.05649   0.05649
 Alpha virt. eigenvalues --    0.05667   0.05667   0.05840   0.05953   0.05996
 Alpha virt. eigenvalues --    0.06003   0.06003   0.06067   0.06067   0.06069
 Alpha virt. eigenvalues --    0.06069   0.06244   0.06244   0.06254   0.06254
 Alpha virt. eigenvalues --    0.06403   0.06403   0.06631   0.06631   0.06833
 Alpha virt. eigenvalues --    0.07217   0.07217   0.07327   0.07327   0.07610
 Alpha virt. eigenvalues --    0.07610   0.07639   0.07680   0.07680   0.07922
 Alpha virt. eigenvalues --    0.07922   0.08014   0.08014   0.08067   0.08067
 Alpha virt. eigenvalues --    0.08115   0.08275   0.08275   0.08447   0.08608
 Alpha virt. eigenvalues --    0.08982   0.08982   0.09099   0.09099   0.09219
 Alpha virt. eigenvalues --    0.09337   0.09337   0.09708   0.09708   0.10085
 Alpha virt. eigenvalues --    0.10085   0.10192   0.10192   0.10628   0.10628
 Alpha virt. eigenvalues --    0.10631   0.10676   0.10676   0.11013   0.11013
 Alpha virt. eigenvalues --    0.11086   0.11180   0.11204   0.11204   0.11226
 Alpha virt. eigenvalues --    0.11239   0.11239   0.11285   0.11285   0.11399
 Alpha virt. eigenvalues --    0.11399   0.11452   0.11452   0.11538   0.11554
 Alpha virt. eigenvalues --    0.11554   0.11828   0.11828   0.11894   0.11894
 Alpha virt. eigenvalues --    0.11896   0.11896   0.11921   0.12113   0.12113
 Alpha virt. eigenvalues --    0.12540   0.12540   0.12587   0.12720   0.12720
 Alpha virt. eigenvalues --    0.12733   0.12733   0.12978   0.12978   0.13247
 Alpha virt. eigenvalues --    0.13247   0.13298   0.13298   0.13382   0.13840
 Alpha virt. eigenvalues --    0.13840   0.13927   0.14000   0.14000   0.14284
 Alpha virt. eigenvalues --    0.14284   0.14347   0.14347   0.14498   0.14631
 Alpha virt. eigenvalues --    0.14631   0.14776   0.14934   0.14934   0.15000
 Alpha virt. eigenvalues --    0.15000   0.15103   0.15307   0.15307   0.15393
 Alpha virt. eigenvalues --    0.15549   0.15879   0.15879   0.16041   0.16041
 Alpha virt. eigenvalues --    0.16223   0.16350   0.16350   0.16374   0.16509
 Alpha virt. eigenvalues --    0.16509   0.16688   0.16688   0.16777   0.16777
 Alpha virt. eigenvalues --    0.16861   0.17416   0.17416   0.17475   0.17631
 Alpha virt. eigenvalues --    0.17631   0.17684   0.17720   0.17856   0.17942
 Alpha virt. eigenvalues --    0.17942   0.17959   0.18023   0.18023   0.18252
 Alpha virt. eigenvalues --    0.18252   0.18557   0.18608   0.18608   0.18716
 Alpha virt. eigenvalues --    0.18716   0.18754   0.18754   0.19200   0.19397
 Alpha virt. eigenvalues --    0.19397   0.19440   0.19591   0.19591   0.19673
 Alpha virt. eigenvalues --    0.19673   0.19797   0.19797   0.19821   0.19821
 Alpha virt. eigenvalues --    0.19849   0.19849   0.19919   0.20557   0.20557
 Alpha virt. eigenvalues --    0.20623   0.20623   0.20724   0.20724   0.21160
 Alpha virt. eigenvalues --    0.21469   0.21506   0.21759   0.21759   0.21803
 Alpha virt. eigenvalues --    0.21803   0.21859   0.21859   0.22011   0.22011
 Alpha virt. eigenvalues --    0.22025   0.22025   0.22130   0.22130   0.22143
 Alpha virt. eigenvalues --    0.22176   0.22176   0.22183   0.22183   0.23149
 Alpha virt. eigenvalues --    0.23173   0.23173   0.23473   0.23473   0.23508
 Alpha virt. eigenvalues --    0.23508   0.23869   0.23869   0.23939   0.23939
 Alpha virt. eigenvalues --    0.24042   0.24452   0.24497   0.24776   0.24912
 Alpha virt. eigenvalues --    0.24912   0.25132   0.25132   0.25475   0.25475
 Alpha virt. eigenvalues --    0.25586   0.25586   0.25591   0.25591   0.26053
 Alpha virt. eigenvalues --    0.26053   0.26382   0.26388   0.27375   0.27375
 Alpha virt. eigenvalues --    0.27605   0.27605   0.27900   0.27900   0.28060
 Alpha virt. eigenvalues --    0.28060   0.28189   0.28692   0.28692   0.28927
 Alpha virt. eigenvalues --    0.29055   0.29055   0.30052   0.30052   0.30878
 Alpha virt. eigenvalues --    0.31810   0.31810   0.34114   0.34114   0.34993
          Condensed to atoms (all electrons):
 Mulliken charges:
               1
     1  O   -0.513697
     2  O   -0.647809
     3  Zn   0.369662
     4  O   -0.513697
     5  O   -0.647809
     6  Zn   0.369662
     7  O   -0.513697
     8  O   -0.647809
     9  Zn   0.369662
    10  O   -0.513697
    11  O   -0.647809
    12  Zn   0.369662
    13  O   -0.513697
    14  O   -0.647809
    15  Zn   0.369662
    16  O   -0.513697
    17  O   -0.647809
    18  Zn   0.369662
    19  O   -0.513697
    20  O   -0.647809
    21  Zn   0.369662
    22  O   -0.513697
    23  O   -0.647809
    24  Zn   0.369662
    25  O   -0.513697
    26  O   -0.647809
    27  Zn   0.369662
    28  O   -0.513697
    29  O   -0.647809
    30  Zn   0.369662
    31  O   -0.407212
    32  Zn   0.425090
    33  O   -0.371434
    34  Zn   0.361420
    35  O   -0.407212
    36  Zn   0.425090
    37  O   -0.371434
    38  Zn   0.361420
    39  O   -0.407212
    40  Zn   0.425090
    41  O   -0.371434
    42  Zn   0.361420
    43  O   -0.407212
    44  Zn   0.425090
    45  O   -0.371434
    46  Zn   0.361420
    47  O   -0.407212
    48  Zn   0.425090
    49  O   -0.371434
    50  Zn   0.361420
    51  O   -0.407212
    52  Zn   0.425090
    53  O   -0.371434
    54  Zn   0.361420
    55  O   -0.407212
    56  Zn   0.425090
    57  O   -0.371434
    58  Zn   0.361420
    59  O   -0.407212
    60  Zn   0.425090
    61  O   -0.371434
    62  Zn   0.361420
    63  O   -0.407212
    64  Zn   0.425090
    65  O   -0.371434
    66  Zn   0.361420
    67  O   -0.407212
    68  Zn   0.425090
    69  O   -0.371434
    70  Zn   0.361420
    71  O   -0.376338
    72  Zn   0.360823
    73  O   -0.386327
    74  Zn   0.368563
    75  O   -0.376338
    76  Zn   0.360823
    77  O   -0.386327
    78  Zn   0.368563
    79  O   -0.376338
    80  Zn   0.360823
    81  O   -0.386327
    82  Zn   0.368563
    83  O   -0.376338
    84  Zn   0.360823
    85  O   -0.386327
    86  Zn   0.368563
    87  O   -0.376338
    88  Zn   0.360823
    89  O   -0.386327
    90  Zn   0.368563
    91  O   -0.376338
    92  Zn   0.360823
    93  O   -0.386327
    94  Zn   0.368563
    95  O   -0.376338
    96  Zn   0.360823
    97  O   -0.386327
    98  Zn   0.368563
    99  O   -0.376338
   100  Zn   0.360823
   101  O   -0.386327
   102  Zn   0.368563
   103  O   -0.376338
   104  Zn   0.360823
   105  O   -0.386327
   106  Zn   0.368563
   107  O   -0.376338
   108  Zn   0.360823
   109  O   -0.386327
   110  Zn   0.368563
   111  O   -0.371742
   112  Zn   0.366258
   113  O   -0.459448
   114  Zn   0.378841
   115  O   -0.371742
   116  Zn   0.366258
   117  O   -0.459448
   118  Zn   0.378841
   119  O   -0.371742
   120  Zn   0.366258
   121  O   -0.459448
   122  Zn   0.378841
   123  O   -0.371741
   124  Zn   0.366258
   125  O   -0.459448
   126  Zn   0.378841
   127  O   -0.371742
   128  Zn   0.366258
   129  O   -0.459448
   130  Zn   0.378841
   131  O   -0.371742
   132  Zn   0.366258
   133  O   -0.459448
   134  Zn   0.378841
   135  O   -0.371742
   136  Zn   0.366258
   137  O   -0.459448
   138  Zn   0.378841
   139  O   -0.371742
   140  Zn   0.366258
   141  O   -0.459448
   142  Zn   0.378841
   143  O   -0.371741
   144  Zn   0.366258
   145  O   -0.459448
   146  Zn   0.378841
   147  O   -0.371742
   148  Zn   0.366258
   149  O   -0.459448
   150  Zn   0.378841
   151  O   -0.284671
   152  Zn   0.440211
   153  Zn  -0.259135
   154  O   -0.284671
   155  Zn   0.440211
   156  Zn  -0.259135
   157  O   -0.284671
   158  Zn   0.440211
   159  Zn  -0.259135
   160  O   -0.284671
   161  Zn   0.440211
   162  Zn  -0.259135
   163  O   -0.284671
   164  Zn   0.440211
   165  Zn  -0.259135
   166  O   -0.284671
   167  Zn   0.440211
   168  Zn  -0.259135
   169  O   -0.284671
   170  Zn   0.440211
   171  Zn  -0.259135
   172  O   -0.284671
   173  Zn   0.440211
   174  Zn  -0.259135
   175  O   -0.284671
   176  Zn   0.440211
   177  Zn  -0.259135
   178  O   -0.284671
   179  Zn   0.440211
   180  Zn  -0.259135
   181  H    0.300565
   182  H    0.300565
   183  H    0.300565
   184  H    0.300565
   185  H    0.300565
   186  H    0.300565
   187  H    0.300565
   188  H    0.300565
   189  H    0.300565
   190  H    0.300565
   191  H    0.394839
   192  H    0.311541
   193  H    0.394839
   194  H    0.311541
   195  H    0.394839
   196  H    0.311541
   197  H    0.394839
   198  H    0.311541
   199  H    0.394839
   200  H    0.311541
   201  H    0.394839
   202  H    0.311541
   203  H    0.311541
   204  H    0.394839
   205  H    0.394839
   206  H    0.311541
   207  H    0.394839
   208  H    0.311541
   209  H    0.394839
   210  H    0.311541
 Sum of Mulliken charges =   0.00000
 Mulliken charges with hydrogens summed into heavy atoms:
               1
     1  O    0.192683
     2  O   -0.647809
     3  Zn   0.369662
     4  O    0.192683
     5  O   -0.647809
     6  Zn   0.369662
     7  O    0.192683
     8  O   -0.647809
     9  Zn   0.369662
    10  O    0.192683
    11  O   -0.647809
    12  Zn   0.369662
    13  O    0.192683
    14  O   -0.647809
    15  Zn   0.369662
    16  O    0.192683
    17  O   -0.647809
    18  Zn   0.369662
    19  O    0.192683
    20  O   -0.647809
    21  Zn   0.369662
    22  O    0.192683
    23  O   -0.647809
    24  Zn   0.369662
    25  O    0.192683
    26  O   -0.647809
    27  Zn   0.369662
    28  O    0.192683
    29  O   -0.647809
    30  Zn   0.369662
    31  O   -0.407212
    32  Zn   0.425090
    33  O   -0.371434
    34  Zn   0.361420
    35  O   -0.407212
    36  Zn   0.425090
    37  O   -0.371434
    38  Zn   0.361420
    39  O   -0.407212
    40  Zn   0.425090
    41  O   -0.371434
    42  Zn   0.361420
    43  O   -0.407212
    44  Zn   0.425090
    45  O   -0.371434
    46  Zn   0.361420
    47  O   -0.407212
    48  Zn   0.425090
    49  O   -0.371434
    50  Zn   0.361420
    51  O   -0.407212
    52  Zn   0.425090
    53  O   -0.371434
    54  Zn   0.361420
    55  O   -0.407212
    56  Zn   0.425090
    57  O   -0.371434
    58  Zn   0.361420
    59  O   -0.407212
    60  Zn   0.425090
    61  O   -0.371434
    62  Zn   0.361420
    63  O   -0.407212
    64  Zn   0.425090
    65  O   -0.371434
    66  Zn   0.361420
    67  O   -0.407212
    68  Zn   0.425090
    69  O   -0.371434
    70  Zn   0.361420
    71  O   -0.376338
    72  Zn   0.360823
    73  O   -0.386327
    74  Zn   0.368563
    75  O   -0.376338
    76  Zn   0.360823
    77  O   -0.386327
    78  Zn   0.368563
    79  O   -0.376338
    80  Zn   0.360823
    81  O   -0.386327
    82  Zn   0.368563
    83  O   -0.376338
    84  Zn   0.360823
    85  O   -0.386327
    86  Zn   0.368563
    87  O   -0.376338
    88  Zn   0.360823
    89  O   -0.386327
    90  Zn   0.368563
    91  O   -0.376338
    92  Zn   0.360823
    93  O   -0.386327
    94  Zn   0.368563
    95  O   -0.376338
    96  Zn   0.360823
    97  O   -0.386327
    98  Zn   0.368563
    99  O   -0.376338
   100  Zn   0.360823
   101  O   -0.386327
   102  Zn   0.368563
   103  O   -0.376338
   104  Zn   0.360823
   105  O   -0.386327
   106  Zn   0.368563
   107  O   -0.376338
   108  Zn   0.360823
   109  O   -0.386327
   110  Zn   0.368563
   111  O   -0.371742
   112  Zn   0.366258
   113  O   -0.459448
   114  Zn   0.378841
   115  O   -0.371742
   116  Zn   0.366258
   117  O   -0.459448
   118  Zn   0.378841
   119  O   -0.371742
   120  Zn   0.366258
   121  O   -0.459448
   122  Zn   0.378841
   123  O   -0.371741
   124  Zn   0.366258
   125  O   -0.459448
   126  Zn   0.378841
   127  O   -0.371742
   128  Zn   0.366258
   129  O   -0.459448
   130  Zn   0.378841
   131  O   -0.371742
   132  Zn   0.366258
   133  O   -0.459448
   134  Zn   0.378841
   135  O   -0.371742
   136  Zn   0.366258
   137  O   -0.459448
   138  Zn   0.378841
   139  O   -0.371742
   140  Zn   0.366258
   141  O   -0.459448
   142  Zn   0.378841
   143  O   -0.371741
   144  Zn   0.366258
   145  O   -0.459448
   146  Zn   0.378841
   147  O   -0.371742
   148  Zn   0.366258
   149  O   -0.459448
   150  Zn   0.378841
   151  O   -0.284671
   152  Zn   0.440211
   153  Zn   0.041429
   154  O   -0.284671
   155  Zn   0.440211
   156  Zn   0.041429
   157  O   -0.284671
   158  Zn   0.440211
   159  Zn   0.041429
   160  O   -0.284671
   161  Zn   0.440211
   162  Zn   0.041429
   163  O   -0.284671
   164  Zn   0.440211
   165  Zn   0.041429
   166  O   -0.284671
   167  Zn   0.440211
   168  Zn   0.041429
   169  O   -0.284671
   170  Zn   0.440211
   171  Zn   0.041429
   172  O   -0.284671
   173  Zn   0.440211
   174  Zn   0.041429
   175  O   -0.284671
   176  Zn   0.440211
   177  Zn   0.041429
   178  O   -0.284671
   179  Zn   0.440211
   180  Zn   0.041429
 Charge=              0.0000 electrons
 Dipole moment (field-independent basis, Debye):
    X=              0.0000    Y=              0.0000    Z=            145.0074  Tot=            145.0074
 N-N= 1.721311892046D+04 E-N=-3.332217350534D+04  KE=-6.354905645266D+02
 Symmetry A1   KE=-1.839910327495D+02
 Symmetry A2   KE=-1.343646822606D+02
 Symmetry B1   KE=-1.599358000538D+02
 Symmetry B2   KE=-1.571990494627D+02
  Exact polarizability:2319.107   0.0002319.107   0.000   0.0005260.837
 Approx polarizability:2509.106   0.0002509.106   0.000   0.0004033.593
 Density matrix has only Abelian symmetry.
 Calling FoFJK, ICntrl=    100127 FMM=F ISym2X=1 I1Cent= 0 IOpClX= 0 NMat=1 NMatS=1 NMatT=0.
  209 atoms frozen in the vibrational analysis.
 Diagonal vibrational polarizability:
        2.2721247       1.2087821      14.5856451
 Harmonic frequencies (cm**-1), IR intensities (KM/Mole), Raman scattering
 activities (A**4/AMU), depolarization ratios for plane and unpolarized
 incident light, reduced masses (AMU), force constants (mDyne/A),
 and normal coordinates:
                      1                      2                      3
                     ?A                     ?A                     ?A
 Frequencies --    124.4834               195.3308               233.5038
 Red. masses --     63.9291                63.9291                63.9291
 Frc consts  --      0.5837                 1.4371                 2.0537
 IR Inten    --      0.7099                 4.9069                27.0940
  Atom  AN      X      Y      Z        X      Y      Z        X      Y      Z
    90  30    -0.59   0.81  -0.02     0.81   0.59   0.00    -0.01   0.01   1.00

 -------------------
 - Thermochemistry -
 -------------------
 Temperature   298.000 Kelvin.  Pressure   1.00000 Atm.
 Atom     1 has atomic number  8 and mass  15.99491
 Atom     2 has atomic number  8 and mass  15.99491
 Atom     3 has atomic number 30 and mass  63.92915
 Atom     4 has atomic number  8 and mass  15.99491
 Atom     5 has atomic number  8 and mass  15.99491
 Atom     6 has atomic number 30 and mass  63.92915
 Atom     7 has atomic number  8 and mass  15.99491
 Atom     8 has atomic number  8 and mass  15.99491
 Atom     9 has atomic number 30 and mass  63.92915
 Atom    10 has atomic number  8 and mass  15.99491
 Atom    11 has atomic number  8 and mass  15.99491
 Atom    12 has atomic number 30 and mass  63.92915
 Atom    13 has atomic number  8 and mass  15.99491
 Atom    14 has atomic number  8 and mass  15.99491
 Atom    15 has atomic number 30 and mass  63.92915
 Atom    16 has atomic number  8 and mass  15.99491
 Atom    17 has atomic number  8 and mass  15.99491
 Atom    18 has atomic number 30 and mass  63.92915
 Atom    19 has atomic number  8 and mass  15.99491
 Atom    20 has atomic number  8 and mass  15.99491
 Atom    21 has atomic number 30 and mass  63.92915
 Atom    22 has atomic number  8 and mass  15.99491
 Atom    23 has atomic number  8 and mass  15.99491
 Atom    24 has atomic number 30 and mass  63.92915
 Atom    25 has atomic number  8 and mass  15.99491
 Atom    26 has atomic number  8 and mass  15.99491
 Atom    27 has atomic number 30 and mass  63.92915
 Atom    28 has atomic number  8 and mass  15.99491
 Atom    29 has atomic number  8 and mass  15.99491
 Atom    30 has atomic number 30 and mass  63.92915
 Atom    31 has atomic number  8 and mass  15.99491
 Atom    32 has atomic number 30 and mass  63.92915
 Atom    33 has atomic number  8 and mass  15.99491
 Atom    34 has atomic number 30 and mass  63.92915
 Atom    35 has atomic number  8 and mass  15.99491
 Atom    36 has atomic number 30 and mass  63.92915
 Atom    37 has atomic number  8 and mass  15.99491
 Atom    38 has atomic number 30 and mass  63.92915
 Atom    39 has atomic number  8 and mass  15.99491
 Atom    40 has atomic number 30 and mass  63.92915
 Atom    41 has atomic number  8 and mass  15.99491
 Atom    42 has atomic number 30 and mass  63.92915
 Atom    43 has atomic number  8 and mass  15.99491
 Atom    44 has atomic number 30 and mass  63.92915
 Atom    45 has atomic number  8 and mass  15.99491
 Atom    46 has atomic number 30 and mass  63.92915
 Atom    47 has atomic number  8 and mass  15.99491
 Atom    48 has atomic number 30 and mass  63.92915
 Atom    49 has atomic number  8 and mass  15.99491
 Atom    50 has atomic number 30 and mass  63.92915
 Atom    51 has atomic number  8 and mass  15.99491
 Atom    52 has atomic number 30 and mass  63.92915
 Atom    53 has atomic number  8 and mass  15.99491
 Atom    54 has atomic number 30 and mass  63.92915
 Atom    55 has atomic number  8 and mass  15.99491
 Atom    56 has atomic number 30 and mass  63.92915
 Atom    57 has atomic number  8 and mass  15.99491
 Atom    58 has atomic number 30 and mass  63.92915
 Atom    59 has atomic number  8 and mass  15.99491
 Atom    60 has atomic number 30 and mass  63.92915
 Atom    61 has atomic number  8 and mass  15.99491
 Atom    62 has atomic number 30 and mass  63.92915
 Atom    63 has atomic number  8 and mass  15.99491
 Atom    64 has atomic number 30 and mass  63.92915
 Atom    65 has atomic number  8 and mass  15.99491
 Atom    66 has atomic number 30 and mass  63.92915
 Atom    67 has atomic number  8 and mass  15.99491
 Atom    68 has atomic number 30 and mass  63.92915
 Atom    69 has atomic number  8 and mass  15.99491
 Atom    70 has atomic number 30 and mass  63.92915
 Atom    71 has atomic number  8 and mass  15.99491
 Atom    72 has atomic number 30 and mass  63.92915
 Atom    73 has atomic number  8 and mass  15.99491
 Atom    74 has atomic number 30 and mass  63.92915
 Atom    75 has atomic number  8 and mass  15.99491
 Atom    76 has atomic number 30 and mass  63.92915
 Atom    77 has atomic number  8 and mass  15.99491
 Atom    78 has atomic number 30 and mass  63.92915
 Atom    79 has atomic number  8 and mass  15.99491
 Atom    80 has atomic number 30 and mass  63.92915
 Atom    81 has atomic number  8 and mass  15.99491
 Atom    82 has atomic number 30 and mass  63.92915
 Atom    83 has atomic number  8 and mass  15.99491
 Atom    84 has atomic number 30 and mass  63.92915
 Atom    85 has atomic number  8 and mass  15.99491
 Atom    86 has atomic number 30 and mass  63.92915
 Atom    87 has atomic number  8 and mass  15.99491
 Atom    88 has atomic number 30 and mass  63.92915
 Atom    89 has atomic number  8 and mass  15.99491
 Atom    90 has atomic number 30 and mass  63.92915
 Atom    91 has atomic number  8 and mass  15.99491
 Atom    92 has atomic number 30 and mass  63.92915
 Atom    93 has atomic number  8 and mass  15.99491
 Atom    94 has atomic number 30 and mass  63.92915
 Atom    95 has atomic number  8 and mass  15.99491
 Atom    96 has atomic number 30 and mass  63.92915
 Atom    97 has atomic number  8 and mass  15.99491
 Atom    98 has atomic number 30 and mass  63.92915
 Atom    99 has atomic number  8 and mass  15.99491
 Atom   100 has atomic number 30 and mass  63.92915
 Atom   101 has atomic number  8 and mass  15.99491
 Atom   102 has atomic number 30 and mass  63.92915
 Atom   103 has atomic number  8 and mass  15.99491
 Atom   104 has atomic number 30 and mass  63.92915
 Atom   105 has atomic number  8 and mass  15.99491
 Atom   106 has atomic number 30 and mass  63.92915
 Atom   107 has atomic number  8 and mass  15.99491
 Atom   108 has atomic number 30 and mass  63.92915
 Atom   109 has atomic number  8 and mass  15.99491
 Atom   110 has atomic number 30 and mass  63.92915
 Atom   111 has atomic number  8 and mass  15.99491
 Atom   112 has atomic number 30 and mass  63.92915
 Atom   113 has atomic number  8 and mass  15.99491
 Atom   114 has atomic number 30 and mass  63.92915
 Atom   115 has atomic number  8 and mass  15.99491
 Atom   116 has atomic number 30 and mass  63.92915
 Atom   117 has atomic number  8 and mass  15.99491
 Atom   118 has atomic number 30 and mass  63.92915
 Atom   119 has atomic number  8 and mass  15.99491
 Atom   120 has atomic number 30 and mass  63.92915
 Atom   121 has atomic number  8 and mass  15.99491
 Atom   122 has atomic number 30 and mass  63.92915
 Atom   123 has atomic number  8 and mass  15.99491
 Atom   124 has atomic number 30 and mass  63.92915
 Atom   125 has atomic number  8 and mass  15.99491
 Atom   126 has atomic number 30 and mass  63.92915
 Atom   127 has atomic number  8 and mass  15.99491
 Atom   128 has atomic number 30 and mass  63.92915
 Atom   129 has atomic number  8 and mass  15.99491
 Atom   130 has atomic number 30 and mass  63.92915
 Atom   131 has atomic number  8 and mass  15.99491
 Atom   132 has atomic number 30 and mass  63.92915
 Atom   133 has atomic number  8 and mass  15.99491
 Atom   134 has atomic number 30 and mass  63.92915
 Atom   135 has atomic number  8 and mass  15.99491
 Atom   136 has atomic number 30 and mass  63.92915
 Atom   137 has atomic number  8 and mass  15.99491
 Atom   138 has atomic number 30 and mass  63.92915
 Atom   139 has atomic number  8 and mass  15.99491
 Atom   140 has atomic number 30 and mass  63.92915
 Atom   141 has atomic number  8 and mass  15.99491
 Atom   142 has atomic number 30 and mass  63.92915
 Atom   143 has atomic number  8 and mass  15.99491
 Atom   144 has atomic number 30 and mass  63.92915
 Atom   145 has atomic number  8 and mass  15.99491
 Atom   146 has atomic number 30 and mass  63.92915
 Atom   147 has atomic number  8 and mass  15.99491
 Atom   148 has atomic number 30 and mass  63.92915
 Atom   149 has atomic number  8 and mass  15.99491
 Atom   150 has atomic number 30 and mass  63.92915
 Atom   151 has atomic number  8 and mass  15.99491
 Atom   152 has atomic number 30 and mass  63.92915
 Atom   153 has atomic number 30 and mass  63.92915
 Atom   154 has atomic number  8 and mass  15.99491
 Atom   155 has atomic number 30 and mass  63.92915
 Atom   156 has atomic number 30 and mass  63.92915
 Atom   157 has atomic number  8 and mass  15.99491
 Atom   158 has atomic number 30 and mass  63.92915
 Atom   159 has atomic number 30 and mass  63.92915
 Atom   160 has atomic number  8 and mass  15.99491
 Atom   161 has atomic number 30 and mass  63.92915
 Atom   162 has atomic number 30 and mass  63.92915
 Atom   163 has atomic number  8 and mass  15.99491
 Atom   164 has atomic number 30 and mass  63.92915
 Atom   165 has atomic number 30 and mass  63.92915
 Atom   166 has atomic number  8 and mass  15.99491
 Atom   167 has atomic number 30 and mass  63.92915
 Atom   168 has atomic number 30 and mass  63.92915
 Atom   169 has atomic number  8 and mass  15.99491
 Atom   170 has atomic number 30 and mass  63.92915
 Atom   171 has atomic number 30 and mass  63.92915
 Atom   172 has atomic number  8 and mass  15.99491
 Atom   173 has atomic number 30 and mass  63.92915
 Atom   174 has atomic number 30 and mass  63.92915
 Atom   175 has atomic number  8 and mass  15.99491
 Atom   176 has atomic number 30 and mass  63.92915
 Atom   177 has atomic number 30 and mass  63.92915
 Atom   178 has atomic number  8 and mass  15.99491
 Atom   179 has atomic number 30 and mass  63.92915
 Atom   180 has atomic number 30 and mass  63.92915
 Atom   181 has atomic number  1 and mass   1.00783
 Atom   182 has atomic number  1 and mass   1.00783
 Atom   183 has atomic number  1 and mass   1.00783
 Atom   184 has atomic number  1 and mass   1.00783
 Atom   185 has atomic number  1 and mass   1.00783
 Atom   186 has atomic number  1 and mass   1.00783
 Atom   187 has atomic number  1 and mass   1.00783
 Atom   188 has atomic number  1 and mass   1.00783
 Atom   189 has atomic number  1 and mass   1.00783
 Atom   190 has atomic number  1 and mass   1.00783
 Atom   191 has atomic number  1 and mass   1.00783
 Atom   192 has atomic number  1 and mass   1.00783
 Atom   193 has atomic number  1 and mass   1.00783
 Atom   194 has atomic number  1 and mass   1.00783
 Atom   195 has atomic number  1 and mass   1.00783
 Atom   196 has atomic number  1 and mass   1.00783
 Atom   197 has atomic number  1 and mass   1.00783
 Atom   198 has atomic number  1 and mass   1.00783
 Atom   199 has atomic number  1 and mass   1.00783
 Atom   200 has atomic number  1 and mass   1.00783
 Atom   201 has atomic number  1 and mass   1.00783
 Atom   202 has atomic number  1 and mass   1.00783
 Atom   203 has atomic number  1 and mass   1.00783
 Atom   204 has atomic number  1 and mass   1.00783
 Atom   205 has atomic number  1 and mass   1.00783
 Atom   206 has atomic number  1 and mass   1.00783
 Atom   207 has atomic number  1 and mass   1.00783
 Atom   208 has atomic number  1 and mass   1.00783
 Atom   209 has atomic number  1 and mass   1.00783
 Atom   210 has atomic number  1 and mass   1.00783
 Molecular mass:  7223.40015 amu.
 Principal axes and moments of inertia in atomic units:
                           1         2         3
     Eigenvalues --  ******************************
           X            0.00000  -0.52704   0.84984
           Y            0.00000   0.84984   0.52704
           Z            1.00000   0.00000   0.00000
 This molecule is a prolate symmetric top.
 Rotational symmetry number 10.
 Warning -- assumption of classical behavior for rotation
           may cause significant error
 Rotational temperatures (Kelvin)      0.00021     0.00004     0.00004
 Rotational constants (GHZ):           0.00443     0.00092     0.00092
 Zero-point vibrational energy       3309.6 (Joules/Mol)
                                    0.79101 (Kcal/Mol)
 Warning -- explicit consideration of   3 degrees of freedom as
           vibrations may cause significant error
 Vibrational temperatures:    179.10   281.04   335.96
          (Kelvin)
 
 Zero-point correction=                           0.001261 (Hartree/Particle)
 Thermal correction to Energy=                    0.005857
 Thermal correction to Enthalpy=                  0.006801
 Thermal correction to Gibbs Free Energy=        -0.042772
 Sum of electronic and zero-point Energies=            -10.260157
 Sum of electronic and thermal Energies=               -10.255560
 Sum of electronic and thermal Enthalpies=             -10.254617
 Sum of electronic and thermal Free Energies=          -10.304190
 
                     E (Thermal)             CV                S
                      KCal/Mol        Cal/Mol-Kelvin    Cal/Mol-Kelvin
 Total                    3.676             11.526            104.388
 Electronic               0.000              0.000              0.000
 Translational            0.888              2.981             52.473
 Rotational               0.888              2.981             44.859
 Vibrational              1.899              5.564              7.055
 Vibration     1          0.610              1.928              3.029
 Vibration     2          0.635              1.846              2.176
 Vibration     3          0.654              1.789              1.851
                       Q            Log10(Q)             Ln(Q)
 Total Bot       0.482634D+20         19.683618         45.323205
 Total V=0       0.183536D+21         20.263722         46.658943
 Vib (Bot)       0.141007D+01          0.149240          0.343638
 Vib (Bot)    1  0.163906D+01          0.214595          0.494123
 Vib (Bot)    2  0.102206D+01          0.009476          0.021820
 Vib (Bot)    3  0.841723D+00         -0.074831         -0.172305
 Vib (V=0)       0.536221D+01          0.729344          1.679376
 Vib (V=0)    1  0.221363D+01          0.345105          0.794633
 Vib (V=0)    2  0.163781D+01          0.214263          0.493358
 Vib (V=0)    3  0.147903D+01          0.169977          0.391385
 Electronic      0.100000D+01          0.000000          0.000000
 Translational   0.241002D+11         10.382021         23.905488
 Rotational      0.142022D+10          9.152356         21.074079
 ***** Axes restored to original set *****
 -------------------------------------------------------------------
 Center     Atomic                   Forces (Hartrees/Bohr)
 Number     Number              X              Y              Z
 -------------------------------------------------------------------
      1        8           0.000000000    0.000000000    0.000000000
      2        8           0.000000000    0.000000000    0.000000000
      3       30           0.000000000    0.000000000    0.000000000
      4        8           0.000000000    0.000000000    0.000000000
      5        8           0.000000000    0.000000000    0.000000000
      6       30           0.000000000    0.000000000    0.000000000
      7        8           0.000000000    0.000000000    0.000000000
      8        8           0.000000000    0.000000000    0.000000000
      9       30           0.000000000    0.000000000    0.000000000
     10        8           0.000000000    0.000000000    0.000000000
     11        8           0.000000000    0.000000000    0.000000000
     12       30           0.000000000    0.000000000    0.000000000
     13        8           0.000000000    0.000000000    0.000000000
     14        8           0.000000000    0.000000000    0.000000000
     15       30           0.000000000    0.000000000    0.000000000
     16        8           0.000000000    0.000000000    0.000000000
     17        8           0.000000000    0.000000000    0.000000000
     18       30           0.000000000    0.000000000    0.000000000
     19        8           0.000000000    0.000000000    0.000000000
     20        8           0.000000000    0.000000000    0.000000000
     21       30           0.000000000    0.000000000    0.000000000
     22        8           0.000000000    0.000000000    0.000000000
     23        8           0.000000000    0.000000000    0.000000000
     24       30           0.000000000    0.000000000    0.000000000
     25        8           0.000000000    0.000000000    0.000000000
     26        8           0.000000000    0.000000000    0.000000000
     27       30           0.000000000    0.000000000    0.000000000
     28        8           0.000000000    0.000000000    0.000000000
     29        8           0.000000000    0.000000000    0.000000000
     30       30           0.000000000    0.000000000    0.000000000
     31        8           0.000000000    0.000000000    0.000000000
     32       30           0.000000000    0.000000000    0.000000000
     33        8           0.000000000    0.000000000    0.000000000
     34       30           0.000000000    0.000000000    0.000000000
     35        8           0.000000000    0.000000000    0.000000000
     36       30           0.000000000    0.000000000    0.000000000
     37        8           0.000000000    0.000000000    0.000000000
     38       30           0.000000000    0.000000000    0.000000000
     39        8           0.000000000    0.000000000    0.000000000
     40       30           0.000000000    0.000000000    0.000000000
     41        8           0.000000000    0.000000000    0.000000000
     42       30           0.000000000    0.000000000    0.000000000
     43        8           0.000000000    0.000000000    0.000000000
     44       30           0.000000000    0.000000000    0.000000000
     45        8           0.000000000    0.000000000    0.000000000
     46       30           0.000000000    0.000000000    0.000000000
     47        8           0.000000000    0.000000000    0.000000000
     48       30           0.000000000    0.000000000    0.000000000
     49        8           0.000000000    0.000000000    0.000000000
     50       30           0.000000000    0.000000000    0.000000000
     51        8           0.000000000    0.000000000    0.000000000
     52       30           0.000000000    0.000000000    0.000000000
     53        8           0.000000000    0.000000000    0.000000000
     54       30           0.000000000    0.000000000    0.000000000
     55        8           0.000000000    0.000000000    0.000000000
     56       30           0.000000000    0.000000000    0.000000000
     57        8           0.000000000    0.000000000    0.000000000
     58       30           0.000000000    0.000000000    0.000000000
     59        8           0.000000000    0.000000000    0.000000000
     60       30           0.000000000    0.000000000    0.000000000
     61        8           0.000000000    0.000000000    0.000000000
     62       30           0.000000000    0.000000000    0.000000000
     63        8           0.000000000    0.000000000    0.000000000
     64       30           0.000000000    0.000000000    0.000000000
     65        8           0.000000000    0.000000000    0.000000000
     66       30           0.000000000    0.000000000    0.000000000
     67        8           0.000000000    0.000000000    0.000000000
     68       30           0.000000000    0.000000000    0.000000000
     69        8           0.000000000    0.000000000    0.000000000
     70       30           0.000000000    0.000000000    0.000000000
     71        8           0.000000000    0.000000000    0.000000000
     72       30           0.000000000    0.000000000    0.000000000
     73        8           0.000000000    0.000000000    0.000000000
     74       30           0.000000000    0.000000000    0.000000000
[...]
 .,0.,0.,0.,0.,0.,0.,0.,0.,0.,0.,0.,0.,0.,0.,0.,0.,0.,0.,0.,0.,0.,0.,0.
 ,0.,0.,0.,0.,0.,0.,0.,0.,0.,0.,0.,0.,0.,0.,0.,0.,0.,0.,0.,0.,0.,0.,0.,
 0.,0.,0.,0.,0.,0.,0.,0.,0.,0.,0.,0.,0.,0.,0.,0.,0.,0.,0.,0.,0.,0.,0.,0
 .,0.,0.,0.,0.,0.,0.,0.,0.,0.,0.,0.,0.,0.,0.,0.,0.,0.,0.,0.,0.,0.,0.,0.
 ,0.,0.,0.,0.,0.,0.,0.,0.,0.,0.,0.,0.,0.,0.,0.,0.,0.,0.,0.,0.,0.,0.,0.,
 0.,0.,0.,0.,0.,0.,0.,0.,0.,0.,0.,0.,0.,0.,0.,0.,0.,0.,0.,0.,0.,0.,0.,0
 .,0.,0.,0.,0.,0.,0.,0.,0.,0.,0.,0.,0.,0.,0.,0.,0.,0.,0.,0.,0.,0.,0.,0.
 ,0.,0.,0.,0.,0.,0.,0.,0.,0.,0.,0.,0.,0.,0.,0.,0.,0.,0.,0.,0.,0.,0.,0.,
 0.,0.,0.,0.,0.,0.,0.,0.,0.,0.,0.,0.,0.,0.,0.,0.,0.,0.,0.,0.,0.,0.,0.,0
 .,0.,0.,0.,0.,0.,0.,0.,0.,0.,0.,0.,0.,0.,0.,0.,0.,0.,0.,0.,0.,0.,0.,0.
 ,0.,0.,0.,0.,0.,0.,0.,0.,0.,0.,0.,0.,0.,0.,0.,0.,0.,0.,0.,0.,0.,0.,0.,
 0.,0.,0.,0.,0.,0.,0.,0.,0.,0.,0.,0.,0.,0.,0.,0.,0.,0.,0.,0.,0.,0.,0.,0
 .,0.,0.,0.,0.,0.,0.,0.,0.,0.,0.,0.,0.,0.,0.,0.,0.,0.,0.,0.,0.,0.,0.,0.
 ,0.,0.,0.,0.,0.,0.,0.,0.,0.,0.,0.,0.,0.,0.,0.,0.,0.,0.,0.,0.,0.,0.,0.,
 0.,0.,0.,0.,0.,0.,0.,0.,0.,0.,0.,0.,0.,0.,0.,0.,0.,0.,0.,0.,0.,0.,0.,0
 .,0.,0.,0.,0.,0.,0.,0.,0.,0.,0.,0.,0.,0.,0.,0.,0.,0.,0.,0.,0.,0.,0.,0.
 ,0.,0.,0.,0.,0.,0.,0.,0.,0.,0.,0.,0.,0.,0.,0.,0.,0.,0.,0.,0.,0.,0.,0.,
 0.,0.,0.,0.,0.,0.,0.,0.,0.,0.,0.,0.,0.,0.,0.,0.,0.,0.,0.,0.,0.,0.,0.,0
 .,0.,0.,0.,0.,0.,0.,0.,0.,0.,0.,0.,0.,0.,0.,0.,0.,0.,0.,0.,0.,0.,0.,0.
 ,0.,0.,0.,0.,0.,0.,0.,0.,0.,0.,0.,0.,0.,0.,0.,0.,0.,0.,0.,0.,0.,0.,0.,
 0.,0.,0.,0.,0.,0.,0.,0.,0.,0.,0.,0.,0.,0.,0.,0.,0.,0.,0.,0.,0.,0.,0.,0
 .,0.,0.,0.,0.,0.,0.,0.,0.,0.,0.,0.,0.,0.,0.,0.,0.,0.,0.,0.,0.,0.,0.,0.
 ,0.,0.,0.,0.,0.,0.,0.,0.,0.,0.,0.,0.,0.,0.,0.,0.,0.,0.,0.,0.,0.,0.,0.,
 0.,0.,0.,0.,0.,0.,0.,0.,0.,0.,0.,0.,0.,0.,0.,0.,0.,0.,0.,0.,0.,0.,0.,0
 .,0.,0.,0.,0.,0.,0.,0.,0.,0.,0.,0.,0.,0.,0.,0.,0.,0.,0.,0.,0.,0.,0.,0.
 ,0.,0.,0.,0.,0.,0.,0.,0.,0.,0.,0.,0.,0.,0.,0.,0.,0.,0.,0.,0.,0.,0.,0.,
 0.,0.,0.,0.,0.,0.,0.,0.,0.,0.,0.,0.,0.,0.,0.,0.,0.,0.,0.,0.,0.,0.,0.,0
 .,0.,0.,0.,0.,0.,0.,0.,0.,0.,0.,0.,0.,0.,0.,0.,0.,0.,0.,0.,0.,0.,0.,0.
 ,0.,0.,0.,0.,0.,0.,0.,0.,0.,0.,0.,0.,0.,0.,0.,0.,0.,0.,0.,0.,0.,0.,0.,
 0.,0.,0.,0.,0.,0.,0.,0.,0.,0.,0.,0.,0.,0.,0.,0.,0.,0.,0.,0.,0.,0.,0.,0
 .,0.,0.,0.,0.,0.,0.,0.,0.,0.,0.,0.,0.,0.,0.,0.,0.,0.,0.,0.,0.,0.,0.,0.
 ,0.,0.,0.,0.,0.,0.,0.,0.,0.,0.,0.,0.,0.,0.,0.,0.,0.,0.,0.,0.,0.,0.,0.,
 0.,0.,0.,0.,0.,0.,0.,0.,0.,0.,0.,0.,0.,0.,0.,0.,0.,0.,0.,0.,0.,0.,0.,0
 .,0.,0.,0.,0.,0.,0.,0.,0.,0.,0.,0.,0.,0.,0.,0.,0.,0.,0.,0.,0.,0.,0.,0.
 ,0.,0.,0.,0.,0.,0.,0.,0.,0.,0.,0.,0.,0.,0.,0.,0.,0.,0.,0.,0.,0.,0.,0.,
 0.,0.,0.,0.,0.,0.,0.,0.,0.,0.,0.,0.,0.,0.,0.,0.,0.,0.,0.,0.,0.,0.,0.,0
 .,0.,0.,0.,0.,0.,0.,0.,0.,0.,0.,0.,0.,0.,0.,0.,0.,0.,0.,0.,0.,0.,0.,0.
 ,0.,0.,0.,0.,0.,0.,0.,0.,0.,0.,0.,0.,0.,0.,0.,0.,0.,0.,0.,0.,0.,0.,0.,
 0.,0.,0.,0.,0.,0.,0.,0.,0.,0.,0.,0.,0.,0.,0.,0.,0.,0.,0.,0.,0.,0.,0.,0
 .,0.,0.,0.,0.,0.,0.,0.,0.,0.,0.,0.,0.,0.,0.,0.,0.,0.,0.,0.,0.,0.,0.,0.
 ,0.,0.,0.,0.,0.,0.,0.,0.,0.,0.,0.,0.,0.,0.,0.,0.,0.,0.,0.,0.,0.,0.,0.,
 0.,0.,0.,0.,0.,0.,0.,0.,0.,0.,0.,0.,0.,0.,0.,0.,0.,0.,0.,0.,0.,0.,0.,0
 .,0.,0.,0.,0.,0.,0.,0.,0.,0.,0.,0.,0.,0.,0.,0.,0.,0.,0.,0.,0.,0.,0.,0.
 ,0.,0.,0.,0.,0.,0.,0.,0.,0.,0.,0.,0.,0.,0.,0.,0.,0.,0.,0.,0.,0.,0.,0.,
 0.,0.,0.,0.,0.,0.,0.,0.,0.,0.,0.,0.,0.,0.,0.,0.,0.,0.,0.,0.,0.,0.,0.,0
 .,0.,0.,0.,0.,0.,0.,0.,0.,0.,0.,0.,0.,0.,0.,0.,0.,0.,0.,0.,0.,0.,0.,0.
 ,0.,0.,0.,0.,0.,0.,0.,0.,0.,0.,0.,0.,0.,0.,0.,0.,0.,0.,0.,0.,0.,0.,0.,
 0.,0.,0.,0.,0.,0.,0.,0.,0.,0.,0.,0.,0.,0.,0.,0.,0.,0.,0.,0.,0.,0.,0.,0
 .,0.,0.,0.,0.,0.,0.,0.,0.,0.,0.,0.,0.,0.,0.,0.,0.,0.,0.,0.,0.,0.,0.,0.
 ,0.,0.,0.,0.,0.,0.,0.,0.,0.,0.,0.,0.,0.,0.,0.,0.,0.,0.,0.,0.,0.,0.,0.,
 0.,0.,0.,0.,0.,0.,0.,0.,0.,0.,0.,0.,0.,0.,0.,0.,0.,0.,0.,0.,0.,0.,0.,0
 .,0.,0.,0.,0.,0.,0.,0.,0.,0.,0.,0.,0.,0.,0.,0.,0.,0.,0.,0.,0.,0.,0.,0.
 ,0.,0.,0.,0.,0.,0.,0.,0.,0.,0.,0.,0.,0.,0.,0.,0.,0.,0.,0.,0.,0.,0.,0.,
 0.,0.,0.,0.,0.,0.,0.,0.,0.,0.,0.,0.,0.,0.,0.,0.,0.,0.,0.,0.,0.,0.,0.,0
 .,0.,0.,0.,0.,0.,0.,0.,0.,0.,0.,0.,0.,0.,0.,0.,0.,0.,0.,0.,0.,0.,0.,0.
 ,0.,0.,0.,0.,0.,0.,0.,0.,0.,0.,0.,0.,0.,0.,0.,0.,0.,0.,0.,0.,0.,0.,0.,
 0.,0.,0.,0.,0.,0.,0.,0.,0.,0.,0.,0.,0.,0.,0.,0.,0.,0.,0.,0.,0.,0.,0.,0
 .,0.,0.,0.,0.,0.,0.,0.,0.,0.,0.,0.,0.,0.,0.,0.,0.,0.,0.,0.,0.,0.,0.,0.
 ,0.,0.,0.,0.,0.,0.,0.,0.,0.,0.,0.,0.,0.,0.,0.,0.,0.,0.,0.,0.,0.,0.,0.,
 0.,0.,0.,0.,0.,0.,0.,0.,0.,0.,0.,0.,0.,0.,0.,0.,0.,0.,0.,0.,0.,0.,0.,0
 .,0.,0.,0.,0.,0.,0.,0.,0.,0.,0.,0.,0.,0.,0.,0.,0.,0.,0.,0.,0.,0.,0.,0.
 ,0.,0.,0.,0.,0.,0.,0.,0.,0.,0.,0.,0.,0.,0.,0.,0.,0.,0.,0.,0.,0.,0.,0.,
 0.,0.,0.,0.,0.,0.,0.,0.,0.,0.,0.,0.,0.,0.,0.,0.,0.,0.,0.,0.,0.,0.,0.,0
 .,0.,0.,0.,0.,0.,0.,0.,0.,0.,0.,0.,0.,0.,0.,0.,0.,0.,0.,0.,0.,0.,0.,0.
 ,0.,0.,0.,0.,0.,0.,0.,0.,0.,0.,0.,0.,0.,0.,0.,0.,0.,0.,0.,0.,0.,0.,0.,
 0.,0.,0.,0.,0.,0.,0.,0.,0.,0.,0.,0.,0.,0.,0.,0.,0.,0.,0.,0.,0.,0.,0.,0
 .,0.,0.,0.,0.,0.,0.,0.,0.,0.,0.,0.,0.,0.,0.,0.,0.,0.,0.,0.,0.,0.,0.,0.
 ,0.,0.,0.,0.,0.,0.,0.,0.,0.,0.,0.,0.,0.,0.,0.,0.,0.,0.,0.,0.,0.,0.,0.,
 0.,0.,0.,0.,0.,0.,0.,0.,0.,0.,0.,0.,0.,0.,0.,0.,0.,0.,0.,0.,0.,0.,0.,0
 .,0.,0.,0.,0.,0.,0.,0.,0.,0.,0.,0.,0.,0.,0.,0.,0.,0.,0.,0.,0.,0.,0.,0.
 ,0.,0.,0.,0.,0.,0.,0.,0.,0.,0.,0.,0.,0.,0.,0.,0.,0.,0.,0.,0.,0.,0.,0.,
 0.,0.,0.,0.,0.,0.,0.,0.,0.,0.,0.,0.,0.,0.,0.,0.,0.,0.,0.,0.,0.,0.,0.,0
 .,0.,0.,0.,0.,0.,0.,0.,0.,0.,0.,0.,0.,0.,0.,0.,0.,0.,0.,0.,0.,0.,0.,0.
 ,0.,0.,0.,0.,0.,0.,0.,0.,0.,0.,0.,0.,0.,0.,0.,0.,0.,0.,0.,0.,0.,0.,0.,
 0.,0.,0.,0.,0.,0.,0.,0.,0.,0.,0.,0.,0.,0.,0.,0.,0.,0.,0.,0.,0.,0.,0.,0
 .,0.,0.,0.,0.,0.,0.,0.,0.,0.,0.,0.,0.,0.,0.,0.,0.,0.,0.,0.,0.,0.,0.,0.
 ,0.,0.,0.,0.,0.,0.,0.,0.,0.,0.,0.,0.,0.,0.,0.,0.,0.,0.,0.,0.,0.,0.,0.,
 0.,0.,0.,0.,0.,0.,0.,0.,0.,0.,0.,0.,0.,0.,0.,0.,0.,0.,0.,0.,0.,0.,0.,0
 .,0.,0.,0.,0.,0.,0.,0.,0.,0.,0.,0.,0.,0.,0.,0.,0.,0.,0.,0.,0.,0.,0.,0.
 ,0.,0.,0.,0.,0.,0.,0.,0.,0.,0.,0.,0.,0.,0.,0.,0.,0.,0.,0.,0.,0.,0.,0.,
 0.,0.,0.,0.,0.,0.,0.,0.,0.,0.,0.,0.,0.,0.,0.,0.,0.,0.,0.,0.,0.,0.,0.,0
 .,0.,0.,0.,0.,0.,0.,0.,0.,0.,0.,0.,0.,0.,0.,0.,0.,0.,0.,0.,0.,0.,0.,0.
 ,0.,0.,0.,0.,0.,0.,0.,0.,0.,0.,0.,0.,0.,0.,0.,0.,0.,0.,0.,0.,0.,0.,0.,
 0.,0.,0.,0.,0.,0.,0.,0.,0.,0.,0.,0.,0.,0.,0.,0.,0.,0.,0.,0.,0.,0.,0.,0
 .,0.,0.,0.,0.,0.,0.,0.,0.,0.,0.,0.,0.,0.,0.,0.,0.,0.,0.,0.,0.,0.,0.,0.
 ,0.,0.,0.,0.,0.,0.,0.,0.,0.,0.,0.,0.,0.,0.,0.,0.,0.,0.,0.,0.,0.,0.,0.,
 0.,0.,0.,0.,0.,0.,0.,0.,0.,0.,0.,0.,0.,0.,0.,0.,0.,0.,0.,0.,0.,0.,0.,0
 .,0.,0.,0.,0.,0.,0.,0.,0.,0.,0.,0.,0.,0.,0.,0.,0.,0.,0.,0.,0.,0.,0.,0.
 ,0.,0.,0.,0.,0.,0.,0.,0.,0.,0.,0.,0.,0.,0.,0.,0.,0.,0.,0.,0.,0.,0.,0.,
 0.,0.,0.,0.,0.,0.,0.,0.,0.,0.,0.,0.,0.,0.,0.,0.,0.,0.,0.,0.,0.,0.,0.,0
 .,0.,0.,0.,0.,0.,0.,0.,0.,0.,0.,0.,0.,0.,0.,0.,0.,0.,0.,0.,0.,0.,0.,0.
 ,0.,0.,0.,0.,0.,0.,0.,0.,0.,0.,0.,0.,0.,0.,0.,0.,0.,0.,0.,0.,0.,0.,0.,
 0.,0.,0.,0.,0.,0.,0.,0.,0.,0.,0.,0.,0.,0.,0.,0.,0.,0.,0.,0.,0.,0.,0.,0
 .,0.,0.,0.,0.,0.,0.,0.,0.,0.,0.,0.,0.,0.,0.,0.,0.,0.,0.,0.,0.,0.,0.,0.
 ,0.,0.,0.,0.,0.,0.,0.,0.,0.,0.,0.,0.,0.,0.,0.,0.,0.,0.,0.,0.,0.,0.,0.,
 0.,0.,0.,0.,0.,0.,0.,0.,0.,0.,0.,0.,0.,0.,0.,0.,0.,0.,0.,0.,0.,0.,0.,0
 .,0.,0.,0.,0.,0.,0.,0.,0.,0.,0.,0.,0.,0.,0.,0.,0.,0.,0.,0.,0.,0.,0.,0.
 ,0.,0.,0.,0.,0.,0.,0.,0.,0.,0.,0.,0.,0.,0.,0.,0.,0.,0.,0.,0.,0.,0.,0.,
 0.,0.,0.,0.,0.,0.,0.,0.,0.,0.,0.,0.,0.,0.,0.,0.,0.,0.,0.,0.,0.,0.,0.,0
 .,0.,0.,0.,0.,0.,0.,0.,0.,0.,0.,0.,0.,0.,0.,0.,0.,0.,0.,0.,0.,0.,0.,0.
 ,0.,0.,0.,0.,0.,0.,0.,0.,0.,0.,0.,0.,0.,0.,0.,0.,0.,0.,0.,0.,0.,0.,0.,
 0.,0.,0.,0.,0.,0.,0.,0.,0.,0.,0.,0.,0.,0.,0.,0.,0.,0.,0.,0.,0.,0.,0.,0
 .,0.,0.,0.,0.,0.,0.,0.,0.,0.,0.,0.,0.,0.,0.,0.,0.,0.,0.,0.,0.,0.,0.,0.
 ,0.,0.,0.,0.,0.,0.,0.,0.,0.,0.,0.,0.,0.,0.,0.,0.,0.,0.,0.,0.,0.,0.,0.,
 0.,0.,0.,0.,0.,0.,0.,0.,0.,0.,0.,0.,0.,0.,0.,0.,0.,0.,0.,0.,0.,0.,0.,0
 .,0.,0.,0.,0.,0.,0.,0.,0.,0.,0.,0.,0.,0.,0.,0.,0.,0.,0.,0.,0.,0.,0.,0.
 ,0.,0.,0.,0.,0.,0.,0.,0.,0.,0.,0.,0.,0.,0.,0.,0.,0.,0.,0.,0.,0.,0.,0.,
 0.,0.,0.,0.,0.,0.,0.,0.,0.,0.,0.,0.,0.,0.,0.,0.,0.,0.,0.,0.,0.,0.,0.,0
 .,0.,0.,0.,0.,0.,0.,0.,0.,0.,0.,0.,0.,0.,0.,0.,0.,0.,0.,0.,0.,0.,0.,0.
 ,0.,0.,0.,0.,0.,0.,0.,0.,0.,0.,0.,0.,0.,0.,0.,0.,0.,0.,0.,0.,0.,0.,0.,
 0.,0.,0.,0.,0.,0.,0.,0.,0.,0.,0.,0.,0.,0.,0.,0.,0.,0.,0.,0.,0.,0.,0.,0
 .,0.,0.,0.,0.,0.,0.,0.,0.,0.,0.,0.,0.,0.,0.,0.,0.,0.,0.,0.,0.,0.,0.,0.
 ,0.,0.,0.,0.,0.,0.,0.,0.,0.,0.,0.,0.,0.,0.,0.,0.,0.,0.,0.,0.,0.,0.,0.,
 0.,0.,0.,0.,0.,0.,0.,0.,0.,0.,0.,0.,0.,0.,0.,0.,0.,0.,0.,0.,0.,0.,0.,0
 .,0.,0.,0.,0.,0.,0.,0.,0.,0.,0.,0.,0.,0.,0.,0.,0.,0.,0.,0.,0.,0.,0.,0.
 ,0.,0.,0.,0.,0.,0.,0.,0.,0.,0.,0.,0.,0.,0.,0.,0.,0.,0.,0.,0.,0.,0.,0.,
 0.,0.,0.,0.,0.,0.,0.,0.,0.,0.,0.,0.,0.,0.,0.,0.,0.,0.,0.,0.,0.,0.,0.,0
 .,0.,0.,0.,0.,0.,0.,0.,0.,0.,0.,0.,0.,0.,0.,0.,0.,0.,0.,0.,0.,0.,0.,0.
 ,0.,0.,0.,0.,0.,0.,0.,0.,0.,0.,0.,0.,0.,0.,0.,0.,0.,0.,0.,0.,0.,0.,0.,
 0.,0.,0.,0.,0.,0.,0.,0.,0.,0.,0.,0.,0.,0.,0.,0.,0.,0.,0.,0.,0.,0.,0.,0
 .,0.,0.,0.,0.,0.,0.,0.,0.,0.,0.,0.,0.,0.,0.,0.,0.,0.,0.,0.,0.,0.,0.,0.
 ,0.,0.,0.,0.,0.,0.,0.,0.,0.,0.,0.,0.,0.,0.,0.,0.,0.,0.,0.,0.,0.,0.,0.,
 0.,0.,0.,0.,0.,0.,0.,0.,0.,0.,0.,0.,0.,0.,0.,0.,0.,0.,0.,0.,0.,0.,0.,0
 .,0.,0.,0.,0.,0.,0.,0.,0.,0.,0.,0.,0.,0.,0.,0.,0.,0.,0.,0.,0.,0.,0.,0.
 ,0.,0.,0.,0.,0.,0.,0.,0.,0.,0.,0.,0.,0.,0.,0.,0.,0.,0.,0.,0.,0.,0.,0.,
 0.,0.,0.,0.,0.,0.,0.,0.,0.,0.,0.,0.,0.,0.,0.,0.,0.,0.,0.,0.,0.,0.,0.,0
 .,0.,0.,0.,0.,0.,0.,0.,0.,0.,0.,0.,0.,0.,0.,0.,0.,0.,0.,0.,0.,0.,0.,0.
 ,0.,0.,0.,0.,0.,0.,0.,0.,0.,0.,0.,0.,0.,0.,0.,0.,0.,0.,0.,0.,0.,0.,0.,
 0.,0.,0.,0.,0.,0.,0.,0.,0.,0.,0.,0.,0.,0.,0.,0.,0.,0.,0.,0.,0.,0.,0.,0
 .,0.,0.,0.,0.,0.,0.,0.,0.,0.,0.,0.,0.,0.,0.,0.,0.,0.,0.,0.,0.,0.,0.,0.
 ,0.,0.,0.,0.,0.,0.,0.,0.,0.,0.,0.,0.,0.,0.,0.,0.,0.,0.,0.,0.,0.,0.,0.,
 0.,0.,0.,0.,0.,0.,0.,0.,0.,0.,0.,0.,0.,0.,0.,0.,0.,0.,0.,0.,0.,0.,0.,0
 .,0.,0.,0.,0.,0.,0.,0.,0.,0.,0.,0.,0.,0.,0.,0.,0.,0.,0.,0.,0.,0.,0.,0.
 ,0.,0.,0.,0.,0.,0.,0.,0.,0.,0.,0.,0.,0.,0.,0.,0.,0.,0.,0.,0.,0.,0.,0.,
 0.,0.,0.,0.,0.,0.,0.,0.,0.,0.,0.,0.,0.,0.,0.,0.,0.,0.,0.,0.,0.,0.,0.,0
 .,0.,0.,0.,0.,0.,0.,0.,0.,0.,0.,0.,0.,0.,0.,0.,0.,0.,0.,0.,0.,0.,0.,0.
 ,0.,0.,0.,0.,0.,0.,0.,0.,0.,0.,0.,0.,0.,0.,0.,0.,0.,0.,0.,0.,0.,0.,0.,
 0.,0.,0.,0.,0.,0.,0.,0.,0.,0.,0.,0.,0.,0.,0.,0.,0.,0.,0.,0.,0.,0.,0.,0
 .,0.,0.,0.,0.,0.,0.,0.,0.,0.,0.,0.,0.,0.,0.,0.,0.,0.,0.,0.,0.,0.,0.,0.
 ,0.,0.,0.,0.,0.,0.,0.,0.,0.,0.,0.,0.,0.,0.,0.,0.,0.,0.,0.,0.,0.,0.,0.,
 0.,0.,0.,0.,0.,0.,0.,0.,0.,0.,0.,0.,0.,0.,0.,0.,0.,0.,0.,0.,0.,0.,0.,0
 .,0.,0.,0.,0.,0.,0.,0.,0.,0.,0.,0.,0.,0.,0.,0.,0.,0.,0.,0.,0.,0.,0.,0.
 ,0.,0.,0.,0.,0.,0.,0.,0.,0.,0.,0.,0.,0.,0.,0.,0.,0.,0.,0.,0.,0.,0.,0.,
 0.,0.,0.,0.,0.,0.,0.,0.,0.,0.,0.,0.,0.,0.,0.,0.,0.,0.,0.,0.,0.,0.,0.,0
 .,0.,0.,0.,0.,0.,0.,0.,0.,0.,0.,0.,0.,0.,0.,0.,0.,0.,0.,0.,0.,0.,0.,0.
 ,0.,0.,0.,0.,0.,0.,0.,0.,0.,0.,0.,0.,0.,0.,0.,0.,0.,0.,0.,0.,0.,0.,0.,
 0.,0.,0.,0.,0.,0.,0.,0.,0.,0.,0.,0.,0.,0.,0.,0.,0.,0.,0.,0.,0.,0.,0.,0
 .,0.,0.,0.,0.,0.,0.,0.,0.,0.,0.,0.,0.,0.,0.,0.,0.,0.,0.,0.,0.,0.,0.,0.
 ,0.,0.,0.,0.,0.,0.,0.,0.,0.,0.,0.,0.,0.,0.,0.,0.,0.,0.,0.,0.,0.,0.,0.,
 0.,0.,0.,0.,0.,0.,0.,0.,0.,0.,0.,0.,0.,0.,0.,0.,0.,0.,0.,0.,0.,0.,0.,0
 .,0.,0.,0.,0.,0.,0.,0.,0.,0.,0.,0.,0.,0.,0.,0.,0.,0.,0.,0.,0.,0.,0.,0.
 ,0.,0.,0.,0.,0.,0.,0.,0.,0.,0.,0.,0.,0.,0.,0.,0.,0.,0.,0.,0.,0.,0.,0.,
 0.,0.,0.,0.,0.,0.,0.,0.,0.,0.,0.,0.,0.,0.,0.,0.,0.,0.,0.,0.,0.,0.,0.,0
 .,0.,0.,0.,0.,0.,0.,0.,0.,0.,0.,0.,0.,0.,0.,0.,0.,0.,0.,0.,0.,0.,0.,0.
 ,0.,0.,0.,0.,0.,0.,0.,0.,0.,0.,0.,0.,0.,0.,0.,0.,0.,0.,0.,0.,0.,0.,0.,
 0.,0.,0.,0.,0.,0.,0.,0.,0.,0.,0.,0.,0.,0.,0.,0.,0.,0.,0.,0.,0.,0.,0.,0
 .,0.,0.,0.,0.,0.,0.,0.,0.,0.,0.,0.,0.,0.,0.,0.,0.,0.,0.,0.,0.,0.,0.,0.
 ,0.,0.,0.,0.,0.,0.,0.,0.,0.,0.,0.,0.,0.,0.,0.,0.,0.,0.,0.,0.,0.,0.,0.,
 0.,0.,0.,0.,0.,0.,0.,0.,0.,0.,0.,0.,0.,0.,0.,0.,0.,0.,0.,0.,0.,0.,0.,0
 .,0.,0.,0.,0.,0.,0.,0.,0.,0.,0.,0.,0.,0.,0.,0.,0.,0.,0.,0.,0.,0.,0.,0.
 ,0.,0.,0.,0.,0.,0.,0.,0.,0.,0.,0.,0.,0.,0.,0.,0.,0.,0.,0.,0.,0.,0.,0.,
 0.,0.,0.,0.,0.,0.,0.,0.,0.,0.,0.,0.,0.,0.,0.,0.,0.,0.,0.,0.,0.,0.,0.,0
 .,0.,0.,0.,0.,0.,0.,0.,0.,0.,0.,0.,0.,0.,0.,0.,0.,0.,0.,0.,0.,0.,0.,0.
 ,0.,0.,0.,0.,0.,0.,0.,0.,0.,0.,0.,0.,0.,0.,0.,0.,0.,0.,0.,0.,0.,0.,0.,
 0.,0.,0.,0.,0.,0.,0.,0.,0.,0.,0.,0.,0.,0.,0.,0.,0.,0.,0.,0.,0.,0.,0.,0
 .,0.,0.,0.,0.,0.,0.,0.,0.,0.,0.,0.,0.,0.,0.,0.,0.,0.,0.,0.,0.,0.,0.,0.
 ,0.,0.,0.,0.,0.,0.,0.,0.,0.,0.,0.,0.,0.,0.,0.,0.,0.,0.,0.,0.,0.,0.,0.,
 0.,0.,0.,0.,0.,0.,0.,0.,0.,0.,0.,0.,0.,0.,0.,0.,0.,0.,0.,0.,0.,0.,0.,0
 .,0.,0.,0.,0.,0.,0.,0.,0.,0.,0.,0.,0.,0.,0.,0.,0.,0.,0.,0.,0.,0.,0.,0.
 ,0.,0.,0.,0.,0.,0.,0.,0.,0.,0.,0.,0.,0.,0.,0.,0.,0.,0.,0.,0.,0.,0.,0.,
 0.,0.,0.,0.,0.,0.,0.,0.,0.,0.,0.,0.,0.,0.,0.,0.,0.,0.,0.,0.,0.,0.,0.,0
 .,0.,0.,0.,0.,0.,0.,0.,0.,0.,0.,0.,0.,0.,0.,0.,0.,0.,0.,0.,0.,0.,0.,0.
 ,0.,0.,0.,0.,0.,0.,0.,0.,0.,0.,0.,0.,0.,0.,0.,0.,0.,0.,0.,0.,0.,0.,0.,
 0.,0.,0.,0.,0.,0.,0.,0.,0.,0.,0.,0.,0.,0.,0.,0.,0.,0.,0.,0.,0.,0.,0.,0
 .,0.,0.,0.,0.,0.,0.,0.,0.,0.,0.,0.,0.,0.,0.,0.,0.,0.,0.,0.,0.,0.,0.,0.
 ,0.,0.,0.,0.,0.,0.,0.,0.,0.,0.,0.,0.,0.,0.,0.,0.,0.,0.,0.,0.,0.,0.,0.,
 0.,0.,0.,0.,0.,0.,0.,0.,0.,0.,0.,0.,0.,0.,0.,0.,0.,0.,0.,0.,0.,0.,0.,0
 .,0.,0.,0.,0.,0.,0.,0.,0.,0.,0.,0.,0.,0.,0.,0.,0.,0.,0.,0.,0.,0.,0.,0.
 ,0.,0.,0.,0.,0.,0.,0.,0.,0.,0.,0.,0.,0.,0.,0.,0.,0.,0.,0.,0.,0.,0.,0.,
 0.,0.,0.,0.,0.,0.,0.,0.,0.,0.,0.,0.,0.,0.,0.,0.,0.,0.,0.,0.,0.,0.,0.,0
 .,0.,0.,0.,0.,0.,0.,0.,0.,0.,0.,0.,0.,0.,0.,0.,0.,0.,0.,0.,0.,0.,0.,0.
 ,0.,0.,0.,0.,0.,0.,0.,0.,0.,0.,0.,0.,0.,0.,0.,0.,0.,0.,0.,0.,0.,0.,0.,
 0.,0.,0.,0.,0.,0.,0.,0.,0.,0.,0.,0.,0.,0.,0.,0.,0.,0.,0.,0.,0.,0.,0.,0
 .,0.,0.,0.,0.,0.,0.,0.,0.,0.,0.,0.,0.,0.,0.,0.,0.,0.,0.,0.,0.,0.,0.,0.
 ,0.,0.,0.,0.,0.,0.,0.,0.,0.,0.,0.,0.,0.,0.,0.,0.,0.,0.,0.,0.,0.,0.,0.,
 0.,0.,0.,0.,0.,0.,0.,0.,0.,0.,0.,0.,0.,0.,0.,0.,0.,0.,0.,0.,0.,0.,0.,0
 .,0.,0.,0.,0.,0.,0.,0.,0.,0.,0.,0.,0.,0.,0.,0.,0.,0.,0.,0.,0.,0.,0.,0.
 ,0.,0.,0.,0.,0.,0.,0.,0.,0.,0.,0.,0.,0.,0.,0.,0.,0.,0.,0.,0.,0.,0.,0.,
 0.,0.,0.,0.,0.,0.,0.,0.,0.,0.,0.,0.,0.,0.,0.,0.,0.,0.,0.,0.,0.,0.,0.,0
 .,0.,0.,0.,0.,0.,0.,0.,0.,0.,0.,0.,0.,0.,0.,0.,0.,0.,0.,0.,0.,0.,0.,0.
 ,0.,0.,0.,0.,0.,0.,0.,0.,0.,0.,0.,0.,0.,0.,0.,0.,0.,0.,0.,0.,0.,0.,0.,
 0.,0.,0.,0.,0.,0.,0.,0.,0.,0.,0.,0.,0.,0.,0.,0.,0.,0.,0.,0.,0.,0.,0.,0
 .,0.,0.,0.,0.,0.,0.,0.,0.,0.,0.,0.,0.,0.,0.,0.,0.,0.,0.,0.,0.,0.,0.,0.
 ,0.,0.,0.,0.,0.,0.,0.,0.,0.,0.,0.,0.,0.,0.,0.,0.,0.,0.,0.,0.,0.,0.,0.,
 0.,0.,0.,0.,0.,0.,0.,0.,0.,0.,0.,0.,0.,0.,0.,0.,0.,0.,0.,0.,0.,0.,0.,0
 .,0.,0.,0.,0.,0.,0.,0.,0.,0.,0.,0.,0.,0.,0.,0.,0.,0.,0.,0.,0.,0.,0.,0.
 ,0.,0.,0.,0.,0.,0.,0.,0.,0.,0.,0.,0.,0.,0.,0.,0.,0.,0.,0.,0.,0.,0.,0.,
 0.,0.,0.,0.,0.,0.,0.,0.,0.,0.,0.,0.,0.,0.,0.,0.,0.,0.,0.,0.,0.,0.,0.,0
 .,0.,0.,0.,0.,0.,0.,0.,0.,0.,0.,0.,0.,0.,0.,0.,0.,0.,0.,0.,0.,0.,0.,0.
 ,0.,0.,0.,0.,0.,0.,0.,0.,0.,0.,0.,0.,0.,0.,0.,0.,0.,0.,0.,0.,0.,0.,0.,
 0.,0.,0.,0.,0.,0.,0.,0.,0.,0.,0.,0.,0.,0.,0.,0.,0.,0.,0.,0.,0.,0.,0.,0
 .,0.,0.,0.,0.,0.,0.,0.,0.,0.,0.,0.,0.,0.,0.,0.,0.,0.,0.,0.,0.,0.,0.,0.
 ,0.,0.,0.,0.,0.,0.,0.,0.,0.,0.,0.,0.,0.,0.,0.,0.,0.,0.,0.,0.,0.,0.,0.,
 0.,0.,0.,0.,0.,0.,0.,0.,0.,0.,0.,0.,0.,0.,0.,0.,0.,0.,0.,0.,0.,0.,0.,0
 .,0.,0.,0.,0.,0.,0.,0.,0.,0.,0.,0.,0.,0.,0.,0.,0.,0.,0.,0.,0.,0.,0.,0.
 ,0.,0.,0.,0.,0.,0.,0.,0.,0.,0.,0.,0.,0.,0.,0.,0.,0.,0.,0.,0.,0.,0.,0.,
 0.,0.,0.,0.,0.,0.,0.,0.,0.,0.,0.,0.,0.,0.,0.,0.,0.,0.,0.,0.,0.,0.,0.,0
 .,0.,0.,0.,0.,0.,0.,0.,0.,0.,0.,0.,0.,0.,0.,0.,0.,0.,0.,0.,0.,0.,0.,0.
 ,0.,0.,0.,0.,0.,0.,0.,0.,0.,0.,0.,0.,0.,0.,0.,0.,0.,0.,0.,0.,0.,0.,0.,
 0.,0.,0.,0.,0.,0.,0.,0.,0.,0.,0.,0.,0.,0.,0.,0.,0.,0.,0.,0.,0.,0.,0.,0
 .,0.,0.,0.,0.,0.,0.,0.,0.,0.,0.,0.,0.,0.,0.,0.,0.,0.,0.,0.,0.,0.,0.,0.
 ,0.,0.,0.,0.,0.,0.,0.,0.,0.,0.,0.,0.,0.,0.,0.,0.,0.,0.,0.,0.,0.,0.,0.,
 0.,0.,0.,0.,0.,0.,0.,0.,0.,0.,0.,0.,0.,0.,0.,0.,0.,0.,0.,0.,0.,0.,0.,0
 .,0.,0.,0.,0.,0.,0.,0.,0.,0.,0.,0.,0.,0.,0.,0.,0.,0.,0.,0.,0.,0.,0.,0.
 ,0.,0.,0.,0.,0.,0.,0.,0.,0.,0.,0.,0.,0.,0.,0.,0.,0.,0.,0.,0.,0.,0.,0.,
 0.,0.,0.,0.,0.,0.,0.,0.,0.,0.,0.,0.,0.,0.,0.,0.,0.,0.,0.,0.,0.,0.,0.,0
 .,0.,0.,0.,0.,0.,0.,0.,0.,0.,0.,0.,0.,0.,0.,0.,0.,0.,0.,0.,0.,0.,0.,0.
 ,0.,0.,0.,0.,0.,0.,0.,0.,0.,0.,0.,0.,0.,0.,0.,0.,0.,0.,0.,0.,0.,0.,0.,
 0.,0.,0.,0.,0.,0.,0.,0.,0.,0.,0.,0.,0.,0.,0.,0.,0.,0.,0.,0.,0.,0.,0.,0
 .,0.,0.,0.,0.,0.,0.,0.,0.,0.,0.,0.,0.,0.,0.,0.,0.,0.,0.,0.,0.,0.,0.,0.
 ,0.,0.,0.,0.,0.,0.,0.,0.,0.,0.,0.,0.,0.,0.,0.,0.,0.,0.,0.,0.,0.,0.,0.,
 0.,0.,0.,0.,0.,0.,0.,0.,0.,0.,0.,0.,0.,0.,0.,0.,0.,0.,0.,0.,0.,0.,0.,0
 .,0.,0.,0.,0.,0.,0.,0.,0.,0.,0.,0.,0.,0.,0.,0.,0.,0.,0.,0.,0.,0.,0.,0.
 ,0.,0.,0.,0.,0.,0.,0.,0.,0.,0.,0.,0.,0.,0.,0.,0.,0.,0.,0.,0.,0.,0.,0.,
 0.,0.,0.,0.,0.,0.,0.,0.,0.,0.,0.,0.,0.,0.,0.,0.,0.,0.,0.,0.,0.,0.,0.,0
 .,0.,0.,0.,0.,0.,0.,0.,0.,0.,0.,0.,0.,0.,0.,0.,0.,0.,0.,0.,0.,0.,0.,0.
 ,0.,0.,0.,0.,0.,0.,0.,0.,0.,0.,0.,0.,0.,0.,0.,0.,0.,0.,0.,0.,0.,0.,0.,
 0.,0.,0.,0.,0.,0.,0.,0.,0.,0.,0.,0.,0.,0.,0.,0.,0.,0.,0.,0.,0.,0.,0.,0
 .,0.,0.,0.,0.,0.,0.,0.,0.,0.,0.,0.,0.,0.,0.,0.,0.,0.,0.,0.,0.,0.,0.,0.
 ,0.,0.,0.,0.,0.,0.,0.,0.,0.,0.,0.,0.,0.,0.,0.,0.,0.,0.,0.,0.,0.,0.,0.,
 0.,0.,0.,0.,0.,0.,0.,0.,0.,0.,0.,0.,0.,0.,0.,0.,0.,0.,0.,0.,0.,0.,0.,0
 .,0.,0.,0.,0.,0.,0.,0.,0.,0.,0.,0.,0.,0.,0.,0.,0.,0.,0.,0.,0.,0.,0.,0.
 ,0.,0.,0.,0.,0.,0.,0.,0.,0.,0.,0.,0.,0.,0.,0.,0.,0.,0.,0.,0.,0.,0.,0.,
 0.,0.,0.,0.,0.,0.,0.,0.,0.,0.,0.,0.,0.,0.,0.,0.,0.,0.,0.,0.,0.,0.,0.,0
 .,0.,0.,0.,0.,0.,0.,0.,0.,0.,0.,0.,0.,0.,0.,0.,0.,0.,0.,0.,0.,0.,0.,0.
 ,0.,0.,0.,0.,0.,0.,0.,0.,0.,0.,0.,0.,0.,0.,0.,0.,0.,0.,0.,0.,0.,0.,0.,
 0.,0.,0.,0.,0.,0.,0.,0.,0.,0.,0.,0.,0.,0.,0.,0.,0.,0.,0.,0.,0.,0.,0.,0
 .,0.,0.,0.,0.,0.,0.,0.,0.,0.,0.,0.,0.,0.,0.,0.,0.,0.,0.,0.,0.,0.,0.,0.
 ,0.,0.,0.,0.,0.,0.,0.,0.,0.,0.,0.,0.,0.,0.,0.,0.,0.,0.,0.,0.,0.,0.,0.,
 0.,0.,0.,0.,0.,0.,0.,0.,0.,0.,0.,0.,0.,0.,0.,0.,0.,0.,0.,0.,0.,0.,0.,0
 .,0.,0.,0.,0.,0.,0.,0.,0.,0.,0.,0.,0.,0.,0.,0.,0.,0.,0.,0.,0.,0.,0.,0.
 ,0.,0.,0.,0.,0.,0.,0.,0.,0.,0.,0.,0.,0.,0.,0.,0.,0.,0.,0.,0.,0.,0.,0.,
 0.,0.,0.,0.,0.,0.,0.,0.,0.,0.,0.,0.,0.,0.,0.,0.,0.,0.,0.,0.,0.,0.,0.,0
 .,0.,0.,0.,0.,0.,0.,0.,0.,0.,0.,0.,0.,0.,0.,0.,0.,0.,0.,0.,0.,0.,0.,0.
 ,0.,0.,0.,0.,0.,0.,0.,0.,0.,0.,0.,0.,0.,0.,0.,0.,0.,0.,0.,0.,0.,0.,0.,
 0.,0.,0.,0.,0.,0.,0.,0.,0.,0.,0.,0.,0.,0.,0.,0.,0.,0.,0.,0.||0.,0.,0.,
 0.,0.,0.,0.,0.,0.,0.,0.,0.,0.,0.,0.,0.,0.,0.,0.,0.,0.,0.,0.,0.,0.,0.,0
 .,0.,0.,0.,0.,0.,0.,0.,0.,0.,0.,0.,0.,0.,0.,0.,0.,0.,0.,0.,0.,0.,0.,0.
 ,0.,0.,0.,0.,0.,0.,0.,0.,0.,0.,0.,0.,0.,0.,0.,0.,0.,0.,0.,0.,0.,0.,0.,
 0.,0.,0.,0.,0.,0.,0.,0.,0.,0.,0.,0.,0.,0.,0.,0.,0.,0.,0.,0.,0.,0.,0.,0
 .,0.,0.,0.,0.,0.,0.,0.,0.,0.,0.,0.,0.,0.,0.,0.,0.,0.,0.,0.,0.,0.,0.,0.
 ,0.,0.,0.,0.,0.,0.,0.,0.,0.,0.,0.,0.,0.,0.,0.,0.,0.,0.,0.,0.,0.,0.,0.,
 0.,0.,0.,0.,0.,0.,0.,0.,0.,0.,0.,0.,0.,0.,0.,0.,0.,0.,0.,0.,0.,0.,0.,0
 .,0.,0.,0.,0.,0.,0.,0.,0.,0.,0.,0.,0.,0.,0.,0.,0.,0.,0.,0.,0.,0.,0.,0.
 ,0.,0.,0.,0.,0.,0.,0.,0.,0.,0.,0.,0.,0.,0.,0.,0.,0.,0.,0.,0.,0.,0.,0.,
 0.,0.,0.,0.,0.,0.,0.,0.,0.,0.,0.,0.,0.,0.,0.,0.,0.,0.,0.,0.,0.,0.,0.,0
 .,0.,0.,0.,0.,0.,0.,0.,0.,0.,0.,0.,0.,0.,0.,0.,0.,0.,0.,0.,0.,0.,0.,0.
 ,0.,0.,0.,0.,0.,0.,0.,-0.00001252,-0.00001724,0.00002156,0.,0.,0.,0.,0
 .,0.,0.,0.,0.,0.,0.,0.,0.,0.,0.,0.,0.,0.,0.,0.,0.,0.,0.,0.,0.,0.,0.,0.
 ,0.,0.,0.,0.,0.,0.,0.,0.,0.,0.,0.,0.,0.,0.,0.,0.,0.,0.,0.,0.,0.,0.,0.,
 0.,0.,0.,0.,0.,0.,0.,0.,0.,0.,0.,0.,0.,0.,0.,0.,0.,0.,0.,0.,0.,0.,0.,0
 .,0.,0.,0.,0.,0.,0.,0.,0.,0.,0.,0.,0.,0.,0.,0.,0.,0.,0.,0.,0.,0.,0.,0.
 ,0.,0.,0.,0.,0.,0.,0.,0.,0.,0.,0.,0.,0.,0.,0.,0.,0.,0.,0.,0.,0.,0.,0.,
 0.,0.,0.,0.,0.,0.,0.,0.,0.,0.,0.,0.,0.,0.,0.,0.,0.,0.,0.,0.,0.,0.,0.,0
 .,0.,0.,0.,0.,0.,0.,0.,0.,0.,0.,0.,0.,0.,0.,0.,0.,0.,0.,0.,0.,0.,0.,0.
 ,0.,0.,0.,0.,0.,0.,0.,0.,0.,0.,0.,0.,0.,0.,0.,0.,0.,0.,0.,0.,0.,0.,0.,
 0.,0.,0.,0.,0.,0.,0.,0.,0.,0.,0.,0.,0.,0.,0.,0.,0.,0.,0.,0.,0.,0.,0.,0
 .,0.,0.,0.,0.,0.,0.,0.,0.,0.,0.,0.,0.,0.,0.,0.,0.,0.,0.,0.,0.,0.,0.,0.
 ,0.,0.,0.,0.,0.,0.,0.,0.,0.,0.,0.,0.,0.,0.,0.,0.,0.,0.,0.,0.,0.,0.,0.,
 0.,0.,0.,0.,0.,0.,0.,0.,0.,0.,0.,0.,0.,0.,0.,0.,0.,0.,0.,0.,0.,0.,0.,0
 .,0.,0.,0.,0.,0.,0.,0.,0.,0.,0.,0.,0.,0.,0.,0.,0.,0.,0.,0.,0.,0.,0.,0.
 ,0.,0.,0.,0.,0.,0.,0.,0.,0.,0.,0.,0.,0.,0.,0.,0.,0.,0.,0.,0.,0.,0.,0.,
 0.,0.,0.,0.,0.,0.,0.,0.,0.,0.,0.,0.,0.,0.,0.,0.,0.,0.,0.,0.,0.,0.,0.,0
 .,0.,0.,0.,0.,0.|||@


 THERE'S SMALL CHOICE IN A BOWL OF ROTTEN APPLES.
                     SHAKESPEARE
 Job cpu time:       0 days  0 hours  2 minutes 22.0 seconds.
 File lengths (MBytes):  RWF=   2034 Int=      0 D2E=      0 Chk=     40 Scr=      1
 Normal termination of Gaussian 09 at Tue Jul 08 00:27:11 2025.
