 Entering Link 1 = C:\Gaussian\G09W\l1.exe PID=     14436.
  
 Copyright (c) 1988,1990,1992,1993,1995,1998,2003,2009,2013,
            Gaussian, Inc.  All Rights Reserved.
  
 This is part of the Gaussian(R) 09 program.  It is based on
 the Gaussian(R) 03 system (copyright 2003, Gaussian, Inc.),
 the Gaussian(R) 98 system (copyright 1998, Gaussian, Inc.),
 the Gaussian(R) 94 system (copyright 1995, Gaussian, Inc.),
 the Gaussian 92(TM) system (copyright 1992, Gaussian, Inc.),
 the Gaussian 90(TM) system (copyright 1990, Gaussian, Inc.),
 the Gaussian 88(TM) system (copyright 1988, Gaussian, Inc.),
 the Gaussian 86(TM) system (copyright 1986, Carnegie Mellon
 University), and the Gaussian 82(TM) system (copyright 1983,
 Carnegie Mellon University). Gaussian is a federally registered
 trademark of Gaussian, Inc.
  
 This software contains proprietary and confidential information,
 including trade secrets, belonging to Gaussian, Inc.
  
 This software is provided under written license and may be
 used, copied, transmitted, or stored only in accord with that
 written license.
  
 The following legend is applicable only to US Government
 contracts under FAR:
  
                    RESTRICTED RIGHTS LEGEND
  
 Use, reproduction and disclosure by the US Government is
 subject to restrictions as set forth in subparagraphs (a)
 and (c) of the Commercial Computer Software - Restricted
 Rights clause in FAR 52.227-19.
  
 Gaussian, Inc.
 340 Quinnipiac St., Bldg. 40, Wallingford CT 06492
  
  
 ---------------------------------------------------------------
 Warning -- This program may not be used in any manner that
 competes with the business of Gaussian, Inc. or will provide
 assistance to any competitor of Gaussian, Inc.  The licensee
 of this program is prohibited from giving any competitor of
 Gaussian, Inc. access to this program.  By using this program,
 the user acknowledges that Gaussian, Inc. is engaged in the
 business of creating and licensing software in the field of
 computational chemistry and represents and warrants to the
 licensee that it is not a competitor of Gaussian, Inc. and that
 it will not use this program in any manner prohibited above.
 ---------------------------------------------------------------
  

 Cite this work as:
 Gaussian 09, Revision D.01,
 M. J. Frisch, G. W. Trucks, H. B. Schlegel, G. E. Scuseria, 
 M. A. Robb, J. R. Cheeseman, G. Scalmani, V. Barone, B. Mennucci, 
 G. A. Petersson, H. Nakatsuji, M. Caricato, X. Li, H. P. Hratchian, 
 A. F. Izmaylov, J. Bloino, G. Zheng, J. L. Sonnenberg, M. Hada, 
 M. Ehara, K. Toyota, R. Fukuda, J. Hasegawa, M. Ishida, T. Nakajima, 
 Y. Honda, O. Kitao, H. Nakai, T. Vreven, J. A. Montgomery, Jr., 
 J. E. Peralta, F. Ogliaro, M. Bearpark, J. J. Heyd, E. Brothers, 
 K. N. Kudin, V. N. Staroverov, T. Keith, R. Kobayashi, J. Normand, 
 K. Raghavachari, A. Rendell, J. C. Burant, S. S. Iyengar, J. Tomasi, 
 M. Cossi, N. Rega, J. M. Millam, M. Klene, J. E. Knox, J. B. Cross, 
 V. Bakken, C. Adamo, J. Jaramillo, R. Gomperts, R. E. Stratmann, 
 O. Yazyev, A. J. Austin, R. Cammi, C. Pomelli, J. W. Ochterski, 
 R. L. Martin, K. Morokuma, V. G. Zakrzewski, G. A. Voth, 
 P. Salvador, J. J. Dannenberg, S. Dapprich, A. D. Daniels, 
 O. Farkas, J. B. Foresman, J. V. Ortiz, J. Cioslowski, 
 and D. J. Fox, Gaussian, Inc., Wallingford CT, 2013.
 
 ******************************************
 Gaussian 09:  IA32W-G09RevD.01 24-Apr-2013
                15-Mar-2026 
 ******************************************
 %chk=C:\Users\User\Desktop\IMRG\ECE+ML\Zr_Gr_NS.chk
 ---------------------------------------
 # opt freq pm6 scf=qc geom=connectivity
 ---------------------------------------
 1/14=-1,18=20,19=15,26=1,38=1,57=2/1,3;
 2/9=110,12=2,17=6,18=5,40=1/2;
 3/5=2,16=1,25=1,41=3900000,71=1/1,2,3;
 4/35=1/1;
 5/5=2,8=3,35=1,38=5/8;
 6/7=2,8=2,9=2,10=2,28=1/1;
 7//1,2,3,16;
 1/14=-1,18=20,19=15,26=1/3(2);
 2/9=110/2;
 99//99;
 2/9=110/2;
 3/5=2,16=1,25=1,41=3900000,71=1,135=20/1,2,3;
 4/5=5,16=3,35=1/1;
 5/5=2,8=3,35=1,38=5/8;
 7//1,2,3,16;
 1/14=-1,18=20,19=15,26=1/3(-5);
 2/9=110/2;
 6/7=2,8=2,9=2,10=2,19=2,28=1/1;
 99/9=1/99;
 --------
 Zr_Gr_NS
 --------
 Symbolic Z-matrix:
 Charge =  0 Multiplicity = 1
 C                     0.17695   1.02371   2.99497 
 C                     1.43495   0.29741   2.57781 
 C                     2.69295   1.02371   2.99497 
 C                     5.20895   1.02371   2.99497 
 C                     7.72495   1.02371   2.99497 
 C                     3.95095   0.29741   2.57781 
 C                     6.46695   0.29741   2.57781 
 C                    -1.08105   3.20263   2.99497 
 C                    -2.33905   5.38155   2.99497 
 C                     0.17695   2.47633   2.57781 
 C                    -1.08105   4.65525   2.57781 
 C                    -2.33905   6.83417   2.57781 
 C                     1.43495   3.20263   2.99497 
 C                     0.17695   5.38155   2.99497 
 C                    -1.08105   7.56047   2.99497 
 C                     3.95095   3.20263   2.99497 
 C                     2.69295   5.38155   2.99497 
 C                     1.43495   7.56047   2.99497 
 C                     6.46695   3.20263   2.99497 
 C                     5.20895   5.38155   2.99497 
 C                     3.95095   7.56047   2.99497 
 C                     2.69295   2.47633   2.57781 
 C                     0.17695   6.83417   2.57781 
 C                     5.20895   2.47633   2.57781 
 C                     3.95095   4.65525   2.57781 
 C                     2.69295   6.83417   2.57781 
 C                     7.72495   2.47633   2.57781 
 C                     6.46695   4.65525   2.57781 
 C                     5.20895   6.83417   2.57781 
 H                     8.6156    2.99054   2.87315 
 H                     7.3576    5.16946   2.87315 
 H                     6.0996    7.34838   2.87315 
 H                     3.95095   8.58891   2.69962 
 H                     1.43495   8.58891   2.69962 
 H                    -1.08105   8.58891   2.69962 
 H                    -3.2297    7.34838   2.87315 
 H                    -3.2297    4.86734   2.69962 
 H                    -1.9717    2.68842   2.69962 
 H                    -0.7137    0.5095    2.69962 
 H                     1.43495  -0.73103   2.87315 
 H                     3.95095  -0.73103   2.87315 
 H                     6.49522  -0.60455   3.15277 
 H                     8.37341   0.35071   3.51599 
 Zr                    1.43495   4.65525   2.57781 
 

 GradGradGradGradGradGradGradGradGradGradGradGradGradGradGradGradGradGrad
 Berny optimization.
 Initialization pass.
                           ----------------------------
                           !    Initial Parameters    !
                           ! (Angstroms and Degrees)  !
 --------------------------                            --------------------------
 ! Name  Definition              Value          Derivative Info.                !
 --------------------------------------------------------------------------------
 ! R1    R(1,2)                  1.5113         estimate D2E/DX2                !
 ! R2    R(1,10)                 1.5113         estimate D2E/DX2                !
 ! R3    R(1,39)                 1.07           estimate D2E/DX2                !
 ! R4    R(2,3)                  1.5113         estimate D2E/DX2                !
 ! R5    R(2,40)                 1.07           estimate D2E/DX2                !
 ! R6    R(3,6)                  1.5113         estimate D2E/DX2                !
 ! R7    R(3,22)                 1.5113         estimate D2E/DX2                !
 ! R8    R(4,6)                  1.5113         estimate D2E/DX2                !
 ! R9    R(4,7)                  1.5113         estimate D2E/DX2                !
 ! R10   R(4,24)                 1.5113         estimate D2E/DX2                !
 ! R11   R(5,7)                  1.5113         estimate D2E/DX2                !
 ! R12   R(5,27)                 1.5113         estimate D2E/DX2                !
 ! R13   R(5,43)                 1.07           estimate D2E/DX2                !
 ! R14   R(6,41)                 1.07           estimate D2E/DX2                !
 ! R15   R(7,42)                 1.07           estimate D2E/DX2                !
 ! R16   R(8,10)                 1.5113         estimate D2E/DX2                !
 ! R17   R(8,11)                 1.5113         estimate D2E/DX2                !
 ! R18   R(8,38)                 1.07           estimate D2E/DX2                !
 ! R19   R(9,11)                 1.5113         estimate D2E/DX2                !
 ! R20   R(9,12)                 1.5113         estimate D2E/DX2                !
 ! R21   R(9,37)                 1.07           estimate D2E/DX2                !
 ! R22   R(10,13)                1.5113         estimate D2E/DX2                !
 ! R23   R(11,14)                1.5113         estimate D2E/DX2                !
 ! R24   R(12,15)                1.5113         estimate D2E/DX2                !
 ! R25   R(12,36)                1.07           estimate D2E/DX2                !
 ! R26   R(13,22)                1.5113         estimate D2E/DX2                !
 ! R27   R(13,44)                1.5113         estimate D2E/DX2                !
 ! R28   R(14,23)                1.5113         estimate D2E/DX2                !
 ! R29   R(14,44)                1.5113         estimate D2E/DX2                !
 ! R30   R(15,23)                1.5113         estimate D2E/DX2                !
 ! R31   R(15,35)                1.07           estimate D2E/DX2                !
 ! R32   R(16,22)                1.5113         estimate D2E/DX2                !
 ! R33   R(16,24)                1.5113         estimate D2E/DX2                !
 ! R34   R(16,25)                1.5113         estimate D2E/DX2                !
 ! R35   R(17,25)                1.5113         estimate D2E/DX2                !
 ! R36   R(17,26)                1.5113         estimate D2E/DX2                !
 ! R37   R(17,44)                1.5113         estimate D2E/DX2                !
 ! R38   R(18,23)                1.5113         estimate D2E/DX2                !
 ! R39   R(18,26)                1.5113         estimate D2E/DX2                !
 ! R40   R(18,34)                1.07           estimate D2E/DX2                !
 ! R41   R(19,24)                1.5113         estimate D2E/DX2                !
 ! R42   R(19,27)                1.5113         estimate D2E/DX2                !
 ! R43   R(19,28)                1.5113         estimate D2E/DX2                !
 ! R44   R(20,25)                1.5113         estimate D2E/DX2                !
 ! R45   R(20,28)                1.5113         estimate D2E/DX2                !
 ! R46   R(20,29)                1.5113         estimate D2E/DX2                !
 ! R47   R(21,26)                1.5113         estimate D2E/DX2                !
 ! R48   R(21,29)                1.5113         estimate D2E/DX2                !
 ! R49   R(21,33)                1.07           estimate D2E/DX2                !
 ! R50   R(27,30)                1.07           estimate D2E/DX2                !
 ! R51   R(28,31)                1.07           estimate D2E/DX2                !
 ! R52   R(29,32)                1.07           estimate D2E/DX2                !
 ! A1    A(2,1,10)             112.6884         estimate D2E/DX2                !
 ! A2    A(2,1,39)             112.6884         estimate D2E/DX2                !
 ! A3    A(10,1,39)            112.6884         estimate D2E/DX2                !
 ! A4    A(1,2,3)              112.6884         estimate D2E/DX2                !
 ! A5    A(1,2,40)             112.6884         estimate D2E/DX2                !
 ! A6    A(3,2,40)             112.6884         estimate D2E/DX2                !
 ! A7    A(2,3,6)              112.6884         estimate D2E/DX2                !
 ! A8    A(2,3,22)             112.6884         estimate D2E/DX2                !
 ! A9    A(6,3,22)             112.6884         estimate D2E/DX2                !
 ! A10   A(6,4,7)              112.6884         estimate D2E/DX2                !
 ! A11   A(6,4,24)             112.6884         estimate D2E/DX2                !
 ! A12   A(7,4,24)             112.6884         estimate D2E/DX2                !
 ! A13   A(7,5,27)             112.6884         estimate D2E/DX2                !
 ! A14   A(7,5,43)             109.6693         estimate D2E/DX2                !
 ! A15   A(27,5,43)            137.6415         estimate D2E/DX2                !
 ! A16   A(3,6,4)              112.6884         estimate D2E/DX2                !
 ! A17   A(3,6,41)             112.6884         estimate D2E/DX2                !
 ! A18   A(4,6,41)             112.6884         estimate D2E/DX2                !
 ! A19   A(4,7,5)              112.6884         estimate D2E/DX2                !
 ! A20   A(4,7,42)             106.187          estimate D2E/DX2                !
 ! A21   A(5,7,42)             103.5792         estimate D2E/DX2                !
 ! A22   A(10,8,11)            112.6884         estimate D2E/DX2                !
 ! A23   A(10,8,38)            112.6884         estimate D2E/DX2                !
 ! A24   A(11,8,38)            112.6884         estimate D2E/DX2                !
 ! A25   A(11,9,12)            112.6884         estimate D2E/DX2                !
 ! A26   A(11,9,37)            112.6884         estimate D2E/DX2                !
 ! A27   A(12,9,37)            112.6884         estimate D2E/DX2                !
 ! A28   A(1,10,8)             112.6884         estimate D2E/DX2                !
 ! A29   A(1,10,13)            112.6884         estimate D2E/DX2                !
 ! A30   A(8,10,13)            112.6884         estimate D2E/DX2                !
 ! A31   A(8,11,9)             112.6884         estimate D2E/DX2                !
 ! A32   A(8,11,14)            112.6884         estimate D2E/DX2                !
 ! A33   A(9,11,14)            112.6884         estimate D2E/DX2                !
 ! A34   A(9,12,15)            112.6884         estimate D2E/DX2                !
 ! A35   A(9,12,36)            112.6884         estimate D2E/DX2                !
 ! A36   A(15,12,36)           112.6884         estimate D2E/DX2                !
 ! A37   A(10,13,22)           112.6884         estimate D2E/DX2                !
 ! A38   A(10,13,44)           112.6884         estimate D2E/DX2                !
 ! A39   A(22,13,44)           112.6884         estimate D2E/DX2                !
 ! A40   A(11,14,23)           112.6884         estimate D2E/DX2                !
 ! A41   A(11,14,44)           112.6884         estimate D2E/DX2                !
 ! A42   A(23,14,44)           112.6884         estimate D2E/DX2                !
 ! A43   A(12,15,23)           112.6884         estimate D2E/DX2                !
 ! A44   A(12,15,35)           112.6884         estimate D2E/DX2                !
 ! A45   A(23,15,35)           112.6884         estimate D2E/DX2                !
 ! A46   A(22,16,24)           112.6884         estimate D2E/DX2                !
 ! A47   A(22,16,25)           112.6884         estimate D2E/DX2                !
 ! A48   A(24,16,25)           112.6884         estimate D2E/DX2                !
 ! A49   A(25,17,26)           112.6884         estimate D2E/DX2                !
 ! A50   A(25,17,44)           112.6884         estimate D2E/DX2                !
 ! A51   A(26,17,44)           112.6884         estimate D2E/DX2                !
 ! A52   A(23,18,26)           112.6884         estimate D2E/DX2                !
 ! A53   A(23,18,34)           112.6884         estimate D2E/DX2                !
 ! A54   A(26,18,34)           112.6884         estimate D2E/DX2                !
 ! A55   A(24,19,27)           112.6884         estimate D2E/DX2                !
 ! A56   A(24,19,28)           112.6884         estimate D2E/DX2                !
 ! A57   A(27,19,28)           112.6884         estimate D2E/DX2                !
 ! A58   A(25,20,28)           112.6884         estimate D2E/DX2                !
 ! A59   A(25,20,29)           112.6884         estimate D2E/DX2                !
 ! A60   A(28,20,29)           112.6884         estimate D2E/DX2                !
 ! A61   A(26,21,29)           112.6884         estimate D2E/DX2                !
 ! A62   A(26,21,33)           112.6884         estimate D2E/DX2                !
 ! A63   A(29,21,33)           112.6884         estimate D2E/DX2                !
 ! A64   A(3,22,13)            112.6884         estimate D2E/DX2                !
 ! A65   A(3,22,16)            112.6884         estimate D2E/DX2                !
 ! A66   A(13,22,16)           112.6884         estimate D2E/DX2                !
 ! A67   A(14,23,15)           112.6884         estimate D2E/DX2                !
 ! A68   A(14,23,18)           112.6884         estimate D2E/DX2                !
 ! A69   A(15,23,18)           112.6884         estimate D2E/DX2                !
 ! A70   A(4,24,16)            112.6884         estimate D2E/DX2                !
 ! A71   A(4,24,19)            112.6884         estimate D2E/DX2                !
 ! A72   A(16,24,19)           112.6884         estimate D2E/DX2                !
 ! A73   A(16,25,17)           112.6884         estimate D2E/DX2                !
 ! A74   A(16,25,20)           112.6884         estimate D2E/DX2                !
 ! A75   A(17,25,20)           112.6884         estimate D2E/DX2                !
 ! A76   A(17,26,18)           112.6884         estimate D2E/DX2                !
 ! A77   A(17,26,21)           112.6884         estimate D2E/DX2                !
 ! A78   A(18,26,21)           112.6884         estimate D2E/DX2                !
 ! A79   A(5,27,19)            112.6884         estimate D2E/DX2                !
 ! A80   A(5,27,30)            112.6884         estimate D2E/DX2                !
 ! A81   A(19,27,30)           112.6884         estimate D2E/DX2                !
 ! A82   A(19,28,20)           112.6884         estimate D2E/DX2                !
 ! A83   A(19,28,31)           112.6884         estimate D2E/DX2                !
 ! A84   A(20,28,31)           112.6884         estimate D2E/DX2                !
 ! A85   A(20,29,21)           112.6884         estimate D2E/DX2                !
 ! A86   A(20,29,32)           112.6884         estimate D2E/DX2                !
 ! A87   A(21,29,32)           112.6884         estimate D2E/DX2                !
 ! A88   A(13,44,14)           112.6884         estimate D2E/DX2                !
 ! A89   A(13,44,17)           112.6884         estimate D2E/DX2                !
 ! A90   A(14,44,17)           112.6884         estimate D2E/DX2                !
 ! D1    D(10,1,2,3)            51.1032         estimate D2E/DX2                !
 ! D2    D(10,1,2,40)          180.0            estimate D2E/DX2                !
 ! D3    D(39,1,2,3)           180.0            estimate D2E/DX2                !
 ! D4    D(39,1,2,40)          -51.1032         estimate D2E/DX2                !
 ! D5    D(2,1,10,8)           180.0            estimate D2E/DX2                !
 ! D6    D(2,1,10,13)          -51.1032         estimate D2E/DX2                !
 ! D7    D(39,1,10,8)           51.1032         estimate D2E/DX2                !
 ! D8    D(39,1,10,13)         180.0            estimate D2E/DX2                !
 ! D9    D(1,2,3,6)            180.0            estimate D2E/DX2                !
 ! D10   D(1,2,3,22)           -51.1032         estimate D2E/DX2                !
 ! D11   D(40,2,3,6)            51.1032         estimate D2E/DX2                !
 ! D12   D(40,2,3,22)         -180.0            estimate D2E/DX2                !
 ! D13   D(2,3,6,4)            180.0            estimate D2E/DX2                !
 ! D14   D(2,3,6,41)           -51.1032         estimate D2E/DX2                !
 ! D15   D(22,3,6,4)            51.1032         estimate D2E/DX2                !
 ! D16   D(22,3,6,41)          180.0            estimate D2E/DX2                !
 ! D17   D(2,3,22,13)           51.1032         estimate D2E/DX2                !
 ! D18   D(2,3,22,16)          180.0            estimate D2E/DX2                !
 ! D19   D(6,3,22,13)          180.0            estimate D2E/DX2                !
 ! D20   D(6,3,22,16)          -51.1032         estimate D2E/DX2                !
 ! D21   D(7,4,6,3)            180.0            estimate D2E/DX2                !
 ! D22   D(7,4,6,41)            51.1032         estimate D2E/DX2                !
 ! D23   D(24,4,6,3)           -51.1032         estimate D2E/DX2                !
 ! D24   D(24,4,6,41)          180.0            estimate D2E/DX2                !
 ! D25   D(6,4,7,5)            180.0            estimate D2E/DX2                !
 ! D26   D(6,4,7,42)           -67.2727         estimate D2E/DX2                !
 ! D27   D(24,4,7,5)            51.1032         estimate D2E/DX2                !
 ! D28   D(24,4,7,42)          163.8304         estimate D2E/DX2                !
 ! D29   D(6,4,24,16)           51.1032         estimate D2E/DX2                !
 ! D30   D(6,4,24,19)          180.0            estimate D2E/DX2                !
 ! D31   D(7,4,24,16)          180.0            estimate D2E/DX2                !
 ! D32   D(7,4,24,19)          -51.1032         estimate D2E/DX2                !
 ! D33   D(27,5,7,4)           -51.1032         estimate D2E/DX2                !
 ! D34   D(27,5,7,42)         -165.4227         estimate D2E/DX2                !
 ! D35   D(43,5,7,4)           128.6399         estimate D2E/DX2                !
 ! D36   D(43,5,7,42)           14.3203         estimate D2E/DX2                !
 ! D37   D(7,5,27,19)           51.1032         estimate D2E/DX2                !
 ! D38   D(7,5,27,30)          180.0            estimate D2E/DX2                !
 ! D39   D(43,5,27,19)        -128.5377         estimate D2E/DX2                !
 ! D40   D(43,5,27,30)           0.3591         estimate D2E/DX2                !
 ! D41   D(11,8,10,1)          180.0            estimate D2E/DX2                !
 ! D42   D(11,8,10,13)          51.1032         estimate D2E/DX2                !
 ! D43   D(38,8,10,1)          -51.1032         estimate D2E/DX2                !
 ! D44   D(38,8,10,13)        -180.0            estimate D2E/DX2                !
 ! D45   D(10,8,11,9)          180.0            estimate D2E/DX2                !
 ! D46   D(10,8,11,14)         -51.1032         estimate D2E/DX2                !
 ! D47   D(38,8,11,9)           51.1032         estimate D2E/DX2                !
 ! D48   D(38,8,11,14)         180.0            estimate D2E/DX2                !
 ! D49   D(12,9,11,8)         -180.0            estimate D2E/DX2                !
 ! D50   D(12,9,11,14)          51.1032         estimate D2E/DX2                !
 ! D51   D(37,9,11,8)          -51.1032         estimate D2E/DX2                !
 ! D52   D(37,9,11,14)         180.0            estimate D2E/DX2                !
 ! D53   D(11,9,12,15)         -51.1032         estimate D2E/DX2                !
 ! D54   D(11,9,12,36)        -180.0            estimate D2E/DX2                !
 ! D55   D(37,9,12,15)         180.0            estimate D2E/DX2                !
 ! D56   D(37,9,12,36)          51.1032         estimate D2E/DX2                !
 ! D57   D(1,10,13,22)          51.1032         estimate D2E/DX2                !
 ! D58   D(1,10,13,44)         180.0            estimate D2E/DX2                !
 ! D59   D(8,10,13,22)         180.0            estimate D2E/DX2                !
 ! D60   D(8,10,13,44)         -51.1032         estimate D2E/DX2                !
 ! D61   D(8,11,14,23)         180.0            estimate D2E/DX2                !
 ! D62   D(8,11,14,44)          51.1032         estimate D2E/DX2                !
 ! D63   D(9,11,14,23)         -51.1032         estimate D2E/DX2                !
 ! D64   D(9,11,14,44)         180.0            estimate D2E/DX2                !
 ! D65   D(9,12,15,23)          51.1032         estimate D2E/DX2                !
 ! D66   D(9,12,15,35)         180.0            estimate D2E/DX2                !
 ! D67   D(36,12,15,23)        180.0            estimate D2E/DX2                !
 ! D68   D(36,12,15,35)        -51.1032         estimate D2E/DX2                !
 ! D69   D(10,13,22,3)         -51.1032         estimate D2E/DX2                !
 ! D70   D(10,13,22,16)        180.0            estimate D2E/DX2                !
 ! D71   D(44,13,22,3)         180.0            estimate D2E/DX2                !
 ! D72   D(44,13,22,16)         51.1032         estimate D2E/DX2                !
 ! D73   D(10,13,44,14)         51.1032         estimate D2E/DX2                !
 ! D74   D(10,13,44,17)        180.0            estimate D2E/DX2                !
 ! D75   D(22,13,44,14)       -180.0            estimate D2E/DX2                !
 ! D76   D(22,13,44,17)        -51.1032         estimate D2E/DX2                !
 ! D77   D(11,14,23,15)         51.1032         estimate D2E/DX2                !
 ! D78   D(11,14,23,18)        180.0            estimate D2E/DX2                !
 ! D79   D(44,14,23,15)        180.0            estimate D2E/DX2                !
 ! D80   D(44,14,23,18)        -51.1032         estimate D2E/DX2                !
 ! D81   D(11,14,44,13)        -51.1032         estimate D2E/DX2                !
 ! D82   D(11,14,44,17)        180.0            estimate D2E/DX2                !
 ! D83   D(23,14,44,13)       -180.0            estimate D2E/DX2                !
 ! D84   D(23,14,44,17)         51.1032         estimate D2E/DX2                !
 ! D85   D(12,15,23,14)        -51.1032         estimate D2E/DX2                !
 ! D86   D(12,15,23,18)        180.0            estimate D2E/DX2                !
 ! D87   D(35,15,23,14)        180.0            estimate D2E/DX2                !
 ! D88   D(35,15,23,18)         51.1032         estimate D2E/DX2                !
 ! D89   D(24,16,22,3)          51.1032         estimate D2E/DX2                !
 ! D90   D(24,16,22,13)        180.0            estimate D2E/DX2                !
 ! D91   D(25,16,22,3)         180.0            estimate D2E/DX2                !
 ! D92   D(25,16,22,13)        -51.1032         estimate D2E/DX2                !
 ! D93   D(22,16,24,4)         -51.1032         estimate D2E/DX2                !
 ! D94   D(22,16,24,19)        180.0            estimate D2E/DX2                !
 ! D95   D(25,16,24,4)         180.0            estimate D2E/DX2                !
 ! D96   D(25,16,24,19)         51.1032         estimate D2E/DX2                !
 ! D97   D(22,16,25,17)         51.1032         estimate D2E/DX2                !
 ! D98   D(22,16,25,20)        180.0            estimate D2E/DX2                !
 ! D99   D(24,16,25,17)        180.0            estimate D2E/DX2                !
 ! D100  D(24,16,25,20)        -51.1032         estimate D2E/DX2                !
 ! D101  D(26,17,25,16)       -180.0            estimate D2E/DX2                !
 ! D102  D(26,17,25,20)         51.1032         estimate D2E/DX2                !
 ! D103  D(44,17,25,16)        -51.1032         estimate D2E/DX2                !
 ! D104  D(44,17,25,20)        180.0            estimate D2E/DX2                !
 ! D105  D(25,17,26,18)        180.0            estimate D2E/DX2                !
 ! D106  D(25,17,26,21)        -51.1032         estimate D2E/DX2                !
 ! D107  D(44,17,26,18)         51.1032         estimate D2E/DX2                !
 ! D108  D(44,17,26,21)        180.0            estimate D2E/DX2                !
 ! D109  D(25,17,44,13)         51.1032         estimate D2E/DX2                !
 ! D110  D(25,17,44,14)        180.0            estimate D2E/DX2                !
 ! D111  D(26,17,44,13)        180.0            estimate D2E/DX2                !
 ! D112  D(26,17,44,14)        -51.1032         estimate D2E/DX2                !
 ! D113  D(26,18,23,14)         51.1032         estimate D2E/DX2                !
 ! D114  D(26,18,23,15)        180.0            estimate D2E/DX2                !
 ! D115  D(34,18,23,14)        180.0            estimate D2E/DX2                !
 ! D116  D(34,18,23,15)        -51.1032         estimate D2E/DX2                !
 ! D117  D(23,18,26,17)        -51.1032         estimate D2E/DX2                !
 ! D118  D(23,18,26,21)        180.0            estimate D2E/DX2                !
 ! D119  D(34,18,26,17)        180.0            estimate D2E/DX2                !
 ! D120  D(34,18,26,21)         51.1032         estimate D2E/DX2                !
 ! D121  D(27,19,24,4)          51.1032         estimate D2E/DX2                !
 ! D122  D(27,19,24,16)        180.0            estimate D2E/DX2                !
 ! D123  D(28,19,24,4)         180.0            estimate D2E/DX2                !
 ! D124  D(28,19,24,16)        -51.1032         estimate D2E/DX2                !
 ! D125  D(24,19,27,5)         -51.1032         estimate D2E/DX2                !
 ! D126  D(24,19,27,30)        180.0            estimate D2E/DX2                !
 ! D127  D(28,19,27,5)         180.0            estimate D2E/DX2                !
 ! D128  D(28,19,27,30)         51.1032         estimate D2E/DX2                !
 ! D129  D(24,19,28,20)         51.1032         estimate D2E/DX2                !
 ! D130  D(24,19,28,31)        180.0            estimate D2E/DX2                !
 ! D131  D(27,19,28,20)        180.0            estimate D2E/DX2                !
 ! D132  D(27,19,28,31)        -51.1032         estimate D2E/DX2                !
 ! D133  D(28,20,25,16)         51.1032         estimate D2E/DX2                !
 ! D134  D(28,20,25,17)        180.0            estimate D2E/DX2                !
 ! D135  D(29,20,25,16)        180.0            estimate D2E/DX2                !
 ! D136  D(29,20,25,17)        -51.1032         estimate D2E/DX2                !
 ! D137  D(25,20,28,19)        -51.1032         estimate D2E/DX2                !
 ! D138  D(25,20,28,31)        180.0            estimate D2E/DX2                !
 ! D139  D(29,20,28,19)       -180.0            estimate D2E/DX2                !
 ! D140  D(29,20,28,31)         51.1032         estimate D2E/DX2                !
 ! D141  D(25,20,29,21)         51.1032         estimate D2E/DX2                !
 ! D142  D(25,20,29,32)        180.0            estimate D2E/DX2                !
 ! D143  D(28,20,29,21)        180.0            estimate D2E/DX2                !
 ! D144  D(28,20,29,32)        -51.1032         estimate D2E/DX2                !
 ! D145  D(29,21,26,17)         51.1032         estimate D2E/DX2                !
 ! D146  D(29,21,26,18)       -180.0            estimate D2E/DX2                !
 ! D147  D(33,21,26,17)        180.0            estimate D2E/DX2                !
 ! D148  D(33,21,26,18)        -51.1032         estimate D2E/DX2                !
 ! D149  D(26,21,29,20)        -51.1032         estimate D2E/DX2                !
 ! D150  D(26,21,29,32)        180.0            estimate D2E/DX2                !
 ! D151  D(33,21,29,20)        180.0            estimate D2E/DX2                !
 ! D152  D(33,21,29,32)         51.1032         estimate D2E/DX2                !
 --------------------------------------------------------------------------------
 Trust Radius=3.00D-01 FncErr=1.00D-07 GrdErr=1.00D-07
 Number of steps in this run=    264 maximum allowed number of steps=    264.
 GradGradGradGradGradGradGradGradGradGradGradGradGradGradGradGradGradGrad

                          Input orientation:                          
 ---------------------------------------------------------------------
 Center     Atomic      Atomic             Coordinates (Angstroms)
 Number     Number       Type             X           Y           Z
 ---------------------------------------------------------------------
      1          6           0        0.176948    1.023714    2.994967
      2          6           0        1.434948    0.297407    2.577810
      3          6           0        2.692948    1.023714    2.994967
      4          6           0        5.208948    1.023714    2.994967
      5          6           0        7.724948    1.023714    2.994967
      6          6           0        3.950948    0.297407    2.577810
      7          6           0        6.466948    0.297407    2.577810
      8          6           0       -1.081052    3.202634    2.994967
      9          6           0       -2.339052    5.381554    2.994967
     10          6           0        0.176948    2.476327    2.577810
     11          6           0       -1.081052    4.655247    2.577810
     12          6           0       -2.339052    6.834167    2.577810
     13          6           0        1.434948    3.202634    2.994967
     14          6           0        0.176948    5.381554    2.994967
     15          6           0       -1.081052    7.560474    2.994967
     16          6           0        3.950948    3.202634    2.994967
     17          6           0        2.692948    5.381554    2.994967
     18          6           0        1.434948    7.560474    2.994967
     19          6           0        6.466948    3.202634    2.994967
     20          6           0        5.208948    5.381554    2.994967
     21          6           0        3.950948    7.560474    2.994967
     22          6           0        2.692948    2.476327    2.577810
     23          6           0        0.176948    6.834167    2.577810
     24          6           0        5.208948    2.476327    2.577810
     25          6           0        3.950948    4.655247    2.577810
     26          6           0        2.692948    6.834167    2.577810
     27          6           0        7.724948    2.476327    2.577810
     28          6           0        6.466948    4.655247    2.577810
     29          6           0        5.208948    6.834167    2.577810
     30          1           0        8.615597    2.990544    2.873152
     31          1           0        7.357597    5.169464    2.873152
     32          1           0        6.099597    7.348383    2.873152
     33          1           0        3.950948    8.588906    2.699625
     34          1           0        1.434948    8.588906    2.699625
     35          1           0       -1.081052    8.588906    2.699625
     36          1           0       -3.229701    7.348383    2.873152
     37          1           0       -3.229701    4.867338    2.699625
     38          1           0       -1.971701    2.688418    2.699625
     39          1           0       -0.713701    0.509498    2.699625
     40          1           0        1.434948   -0.731025    2.873152
     41          1           0        3.950948   -0.731025    2.873152
     42          1           0        6.495217   -0.604546    3.152772
     43          1           0        8.373408    0.350713    3.515994
     44         40           0        1.434948    4.655247    2.577810
 ---------------------------------------------------------------------
                    Distance matrix (angstroms):
                    1          2          3          4          5
     1  C    0.000000
     2  C    1.511326   0.000000
     3  C    2.516000   1.511326   0.000000
     4  C    5.032000   3.865827   2.516000   0.000000
     5  C    7.548000   6.345521   5.032000   2.516000   0.000000
     6  C    3.865827   2.516000   1.511326   1.511326   3.865827
     7  C    6.345521   5.032000   3.865827   1.511326   1.511326
     8  C    2.516000   3.865827   4.357840   6.656710   9.071567
     9  C    5.032000   6.345521   6.656710   8.715680  10.966990
    10  C    1.511326   2.516000   2.935023   5.254058   7.697818
    11  C    3.865827   5.032000   5.254058   7.275036   9.534552
    12  C    6.345521   7.548000   7.697818   9.534552  11.628391
    13  C    2.516000   2.935023   2.516000   4.357840   6.656710
    14  C    4.357840   5.254058   5.032000   6.656710   8.715680
    15  C    6.656710   7.697818   7.548000   9.071567  10.966990
    16  C    4.357840   3.865827   2.516000   2.516000   4.357840
    17  C    5.032000   5.254058   4.357840   5.032000   6.656710
    18  C    6.656710   7.275036   6.656710   7.548000   9.071567
    19  C    6.656710   5.825409   4.357840   2.516000   2.516000
    20  C    6.656710   6.345521   5.032000   4.357840   5.032000
    21  C    7.548000   7.697818   6.656710   6.656710   7.548000
    22  C    2.935023   2.516000   1.511326   2.935023   5.254058
    23  C    5.825409   6.656710   6.345521   7.697818   9.534552
    24  C    5.254058   4.357840   2.935023   1.511326   2.935023
    25  C    5.254058   5.032000   3.865827   3.865827   5.254058
    26  C    6.345521   6.656710   5.825409   6.345521   7.697818
    27  C    7.697818   6.656710   5.254058   2.935023   1.511326
    28  C    7.275036   6.656710   5.254058   3.865827   3.865827
    29  C    7.697818   7.548000   6.345521   5.825409   6.345521
    30  H    8.665682   7.674759   6.241877   3.935545   2.162524
    31  H    8.292394   7.674759   6.241877   4.671056   4.163775
    32  H    8.665682   8.459458   7.184813   6.388234   6.531313
    33  H    8.459458   8.665682   7.674759   7.674759   8.459458
    34  H    7.674759   8.292394   7.674759   8.459458   9.842940
    35  H    7.674759   8.665682   8.459458   9.842940  11.613139
    36  H    7.184813   8.459458   8.665682  10.546425  12.649925
    37  H    5.144504   6.531313   7.066713   9.277471  11.613139
    38  H    2.734073   4.163775   4.961594   7.377003   9.842940
    39  H    1.070000   2.162524   3.457875   5.952261   8.459458
    40  H    2.162524   1.070000   2.162524   4.163775   6.531313
    41  H    4.163775   2.734073   2.162524   2.162524   4.163775
    42  H    6.526612   5.172082   4.139249   2.081015   2.046551
    43  H    8.240531   7.001804   5.743868   3.276920   1.070000
    44  Zr   3.865827   4.357840   3.865827   5.254058   7.275036
                    6          7          8          9         10
     6  C    0.000000
     7  C    2.516000   0.000000
     8  C    5.825409   8.098559   0.000000
     9  C    8.098559  10.176846   2.516000   0.000000
    10  C    4.357840   6.656710   1.511326   3.865827   0.000000
    11  C    6.656710   8.715680   1.511326   1.511326   2.516000
    12  C    9.071567  10.966990   3.865827   1.511326   5.032000
    13  C    3.865827   5.825409   2.516000   4.357840   1.511326
    14  C    6.345521   8.098559   2.516000   2.516000   2.935023
    15  C    8.845743  10.483246   4.357840   2.516000   5.254058
    16  C    2.935023   3.865827   5.032000   6.656710   3.865827
    17  C    5.254058   6.345521   4.357840   5.032000   3.865827
    18  C    7.697818   8.845743   5.032000   4.357840   5.254058
    19  C    3.865827   2.935023   7.548000   9.071567   6.345521
    20  C    5.254058   5.254058   6.656710   7.548000   5.825409
    21  C    7.275036   7.697818   6.656710   6.656710   6.345521
    22  C    2.516000   4.357840   3.865827   5.825409   2.516000
    23  C    7.548000   9.071567   3.865827   2.935023   4.357840
    24  C    2.516000   2.516000   6.345521   8.098559   5.032000
    25  C    4.357840   5.032000   5.254058   6.345521   4.357840
    26  C    6.656710   7.548000   5.254058   5.254058   5.032000
    27  C    4.357840   2.516000   8.845743  10.483246   7.548000
    28  C    5.032000   4.357840   7.697818   8.845743   6.656710
    29  C    6.656710   6.656710   7.275036   7.697818   6.656710
    30  H    5.394363   3.457875   9.699733  11.213211   8.459458
    31  H    5.952261   4.961594   8.665682   9.699733   7.674759
    32  H    7.377003   7.066713   8.292394   8.665682   7.674759
    33  H    8.292394   8.665682   7.377003   7.066713   7.184813
    34  H    8.665682   9.699733   5.952261   4.961594   6.241877
    35  H    9.699733  11.213211   5.394363   3.457875   6.241877
    36  H   10.068029  11.992851   4.671056   2.162524   5.952261
    37  H    8.512392  10.720266   2.734073   1.070000   4.163775
    38  H    6.388234   8.771691   1.070000   2.734073   2.162524
    39  H    4.671056   7.184813   2.734073   5.144504   2.162524
    40  H    2.734073   5.144504   4.671056   7.184813   3.457875
    41  H    1.070000   2.734073   6.388234   8.771691   4.961594
    42  H    2.759965   1.070000   8.480529  10.672516   7.052864
    43  H    4.521192   2.125469   9.888970  11.846418   8.519412
    44  Zr   5.032000   6.656710   2.935023   3.865827   2.516000
                   11         12         13         14         15
    11  C    0.000000
    12  C    2.516000   0.000000
    13  C    2.935023   5.254058   0.000000
    14  C    1.511326   2.935023   2.516000   0.000000
    15  C    2.935023   1.511326   5.032000   2.516000   0.000000
    16  C    5.254058   7.275036   2.516000   4.357840   6.656710
    17  C    3.865827   5.254058   2.516000   2.516000   4.357840
    18  C    3.865827   3.865827   4.357840   2.516000   2.516000
    19  C    7.697818   9.534552   5.032000   6.656710   8.715680
    20  C    6.345521   7.697818   4.357840   5.032000   6.656710
    21  C    5.825409   6.345521   5.032000   4.357840   5.032000
    22  C    4.357840   6.656710   1.511326   3.865827   6.345521
    23  C    2.516000   2.516000   3.865827   1.511326   1.511326
    24  C    6.656710   8.715680   3.865827   5.825409   8.098559
    25  C    5.032000   6.656710   2.935023   3.865827   5.825409
    26  C    4.357840   5.032000   3.865827   2.935023   3.865827
    27  C    9.071567  10.966990   6.345521   8.098559  10.176846
    28  C    7.548000   9.071567   5.254058   6.345521   8.098559
    29  C    6.656710   7.548000   5.254058   5.254058   6.345521
    30  H    9.842940  11.613139   7.184813   8.771691  10.720266
    31  H    8.459458   9.842940   6.241877   7.184813   8.771691
    32  H    7.674759   8.459458   6.241877   6.241877   7.184813
    33  H    6.388234   6.531313   5.952261   4.961594   5.144504
    34  H    4.671056   4.163775   5.394363   3.457875   2.734073
    35  H    3.935545   2.162524   5.952261   3.457875   1.070000
    36  H    3.457875   1.070000   6.241877   3.935545   2.162524
    37  H    2.162524   2.162524   4.961594   3.457875   3.457875
    38  H    2.162524   4.163775   3.457875   3.457875   4.961594
    39  H    4.163775   6.531313   3.457875   4.961594   7.066713
    40  H    5.952261   8.459458   3.935545   6.241877   8.665682
    41  H    7.377003   9.842940   4.671056   7.184813   9.699733
    42  H    9.240988  11.563276   6.334497   8.705103  11.139673
    43  H   10.430533  12.556757   7.519784   9.631344  11.901215
    44  Zr   2.516000   4.357840   1.511326   1.511326   3.865827
                   16         17         18         19         20
    16  C    0.000000
    17  C    2.516000   0.000000
    18  C    5.032000   2.516000   0.000000
    19  C    2.516000   4.357840   6.656710   0.000000
    20  C    2.516000   2.516000   4.357840   2.516000   0.000000
    21  C    4.357840   2.516000   2.516000   5.032000   2.516000
    22  C    1.511326   2.935023   5.254058   3.865827   3.865827
    23  C    5.254058   2.935023   1.511326   7.275036   5.254058
    24  C    1.511326   3.865827   6.345521   1.511326   2.935023
    25  C    1.511326   1.511326   3.865827   2.935023   1.511326
    26  C    3.865827   1.511326   1.511326   5.254058   2.935023
    27  C    3.865827   5.825409   8.098559   1.511326   3.865827
    28  C    2.935023   3.865827   5.825409   1.511326   1.511326
    29  C    3.865827   2.935023   3.865827   3.865827   1.511326
    30  H    4.671056   6.388234   8.512392   2.162524   4.163775
    31  H    3.935545   4.671056   6.388234   2.162524   2.162524
    32  H    4.671056   3.935545   4.671056   4.163775   2.162524
    33  H    5.394363   3.457875   2.734073   5.952261   3.457875
    34  H    5.952261   3.457875   1.070000   7.377003   4.961594
    35  H    7.377003   4.961594   2.734073   9.277471   7.066713
    36  H    8.292394   6.241877   4.671056  10.546425   8.665682
    37  H    7.377003   5.952261   5.394363   9.842940   8.459458
    38  H    5.952261   5.394363   5.952261   8.459458   7.674759
    39  H    5.394363   5.952261   7.377003   7.674759   7.674759
    40  H    4.671056   6.241877   8.292394   6.388234   7.184813
    41  H    3.935545   6.241877   8.665682   4.671056   6.241877
    42  H    4.581793   7.093345   9.607225   3.810554   6.124768
    43  H    5.288012   7.605817  10.019698   3.469800   5.966124
    44  Zr   2.935023   1.511326   2.935023   5.254058   3.865827
                   21         22         23         24         25
    21  C    0.000000
    22  C    5.254058   0.000000
    23  C    3.865827   5.032000   0.000000
    24  C    5.254058   2.516000   6.656710   0.000000
    25  C    2.935023   2.516000   4.357840   2.516000   0.000000
    26  C    1.511326   4.357840   2.516000   5.032000   2.516000
    27  C    6.345521   5.032000   8.715680   2.516000   4.357840
    28  C    3.865827   4.357840   6.656710   2.516000   2.516000
    29  C    1.511326   5.032000   5.032000   4.357840   2.516000
    30  H    6.531313   5.952261   9.277471   3.457875   4.961594
    31  H    4.163775   5.394363   7.377003   3.457875   3.457875
    32  H    2.162524   5.952261   5.952261   4.961594   3.457875
    33  H    1.070000   6.241877   4.163775   6.241877   3.935545
    34  H    2.734073   6.241877   2.162524   7.184813   4.671056
    35  H    5.144504   7.184813   2.162524   8.771691   6.388234
    36  H    7.184813   7.674759   3.457875   9.748587   7.674759
    37  H    7.674759   6.388234   3.935545   8.771691   7.184813
    38  H    7.674759   4.671056   4.671056   7.184813   6.241877
    39  H    8.459458   3.935545   6.388234   6.241877   6.241877
    40  H    8.665682   3.457875   7.674759   4.961594   5.952261
    41  H    8.292394   3.457875   8.459458   3.457875   5.394363
    42  H    8.553698   4.927435   9.776787   3.387750   5.871057
    43  H    8.474094   6.137267  10.492727   3.925841   6.242384
    44  Zr   3.865827   2.516000   2.516000   4.357840   2.516000
                   26         27         28         29         30
    26  C    0.000000
    27  C    6.656710   0.000000
    28  C    4.357840   2.516000   0.000000
    29  C    2.516000   5.032000   2.516000   0.000000
    30  H    7.066713   1.070000   2.734073   5.144504   0.000000
    31  H    4.961594   2.734073   1.070000   2.734073   2.516000
    32  H    3.457875   5.144504   2.734073   1.070000   5.032000
    33  H    2.162524   7.184813   4.671056   2.162524   7.289082
    34  H    2.162524   8.771691   6.388234   4.163775   9.106783
    35  H    4.163775  10.720266   8.512392   6.531313  11.198070
    36  H    5.952261  11.992851  10.068029   8.459458  12.621483
    37  H    6.241877  11.213211   9.699733   8.665682  11.994313
    38  H    6.241877   9.699733   8.665682   8.292394  10.593029
    39  H    7.184813   8.665682   8.292394   8.665682   9.655127
    40  H    7.674759   7.066713   7.377003   8.459458   8.087755
    41  H    7.674759   4.961594   5.952261   7.674759   5.967329
    42  H    8.373905   3.366689   5.291201   7.570966   4.183164
    43  H    8.670812   2.412245   4.800395   7.275244   2.727747
    44  Zr   2.516000   6.656710   5.032000   4.357840   7.377003
                   31         32         33         34         35
    31  H    0.000000
    32  H    2.516000   0.000000
    33  H    4.829902   2.487107   0.000000
    34  H    6.841087   4.829902   2.516000   0.000000
    35  H    9.106783   7.289082   5.032000   2.516000   0.000000
    36  H   10.809188   9.329297   7.289082   4.829902   2.487107
    37  H   10.593029   9.655127   8.087755   5.967329   4.297297
    38  H    9.655127   9.321547   8.360235   6.813297   5.967329
    39  H    9.321547   9.655127   9.329297   8.360235   8.087755
    40  H    8.360235   9.329297   9.655127   9.321547   9.655127
    41  H    6.813297   8.360235   9.321547   9.655127  10.593029
    42  H    5.844747   7.967671   9.549775  10.503867  11.921609
    43  H    4.966435   7.385855   9.385757  10.801690  12.566666
    44  Zr   5.952261   5.394363   4.671056   3.935545   4.671056
                   36         37         38         39         40
    36  H    0.000000
    37  H    2.487107   0.000000
    38  H    4.829902   2.516000   0.000000
    39  H    7.289082   5.032000   2.516000   0.000000
    40  H    9.329297   7.289082   4.829902   2.487107   0.000000
    41  H   10.809188   9.106783   6.841087   4.829902   2.516000
    42  H   12.565878  11.167850   9.096024   7.308552   5.069567
    43  H   13.565130  12.477920  10.637321   9.125087   7.051640
    44  Zr   5.394363   4.671056   3.935545   4.671056   5.394363
                   41         42         43         44
    41  H    0.000000
    42  H    2.562712   0.000000
    43  H    4.597995   2.138235   0.000000
    44  Zr   5.952261   7.321361   8.218967   0.000000
 Stoichiometry    C29H14Zr
 Framework group  C1[X(C29H14Zr)]
 Deg. of freedom   126
 Full point group                 C1      NOp   1
 Largest Abelian subgroup         C1      NOp   1
 Largest concise Abelian subgroup C1      NOp   1
                         Standard orientation:                         
 ---------------------------------------------------------------------
 Center     Atomic      Atomic             Coordinates (Angstroms)
 Number     Number       Type             X           Y           Z
 ---------------------------------------------------------------------
      1          6           0       -0.504870   -3.774035    0.233604
      2          6           0        0.946220   -3.772447   -0.188820
      3          6           0        1.672961   -2.514169    0.226738
      4          6           0        3.850792   -1.254303    0.219871
      5          6           0        6.028623    0.005563    0.213004
      6          6           0        3.124050   -2.512581   -0.195686
      7          6           0        5.301881   -1.252715   -0.202553
      8          6           0       -2.684848   -2.517902    0.242548
      9          6           0       -4.864827   -1.261770    0.251493
     10          6           0       -1.233759   -2.516315   -0.179875
     11          6           0       -3.413738   -1.260182   -0.170931
     12          6           0       -5.593717   -0.004050   -0.161987
     13          6           0       -0.507018   -1.258037    0.235682
     14          6           0       -2.686997   -0.001904    0.244626
     15          6           0       -4.866975    1.254228    0.253570
     16          6           0        1.670813    0.001829    0.228815
     17          6           0       -0.509166    1.257962    0.237759
     18          6           0       -2.689145    2.514094    0.246703
     19          6           0        3.848644    1.261695    0.221948
     20          6           0        1.668665    2.517828    0.230892
     21          6           0       -0.511314    3.773960    0.239836
     22          6           0        0.944072   -1.256449   -0.186742
     23          6           0       -3.415886    1.255816   -0.168854
     24          6           0        3.121902    0.003417   -0.193609
     25          6           0        0.941924    1.259549   -0.184665
     26          6           0       -1.238055    2.515682   -0.175721
     27          6           0        5.299733    1.263283   -0.200476
     28          6           0        3.119754    2.519415   -0.191531
     29          6           0        0.939775    3.775548   -0.182587
     30          1           0        5.814257    2.154129    0.093734
     31          1           0        3.634278    3.410261    0.102678
     32          1           0        1.454299    4.666393    0.111622
     33          1           0       -1.027359    4.664410   -0.052902
     34          1           0       -3.205189    3.404544   -0.046035
     35          1           0       -5.383020    2.144678   -0.039169
     36          1           0       -6.621070   -0.005174    0.137084
     37          1           0       -5.379351   -2.152616   -0.042717
     38          1           0       -3.199372   -3.408748   -0.051661
     39          1           0       -1.019394   -4.664880   -0.060605
     40          1           0        1.462265   -4.662897    0.103919
     41          1           0        3.640095   -3.403032    0.097052
     42          1           0        5.780078   -2.019760    0.370047
     43          1           0        6.928811   -0.252702    0.730556
     44         40           0       -1.235907   -0.000317   -0.177798
 ---------------------------------------------------------------------
 Rotational constants (GHZ):      0.2988264      0.1288798      0.0906680
 Standard basis: VSTO-6G (5D, 7F)
 There are   140 symmetry adapted cartesian basis functions of A   symmetry.
 There are   139 symmetry adapted basis functions of A   symmetry.
   139 basis functions,   840 primitive gaussians,   140 cartesian basis functions
    67 alpha electrons       67 beta electrons
       nuclear repulsion energy      1232.1954550758 Hartrees.
 Integral buffers will be    262144 words long.
 Regular integral format.
 Two-electron integral symmetry is turned off.
 Do NDO integrals.
 One-electron integrals computed using PRISM.
 NBasis=   139 RedAO= F EigKep=  0.00D+00  NBF=   139
 NBsUse=   139 1.00D-04 EigRej=  0.00D+00 NBFU=   139
 Simple Huckel Guess.
 Keep J ints in memory in canonical form, NReq=2092071.
 Gradient too large for Newton-Raphson -- use scaled steepest descent instead.
 Gradient too large for Newton-Raphson -- use scaled steepest descent instead.
     Accept linear search using points  4 and  5.
 Gradient too large for Newton-Raphson -- use scaled steepest descent instead.
     Accept linear search using points  2 and  3.
 Gradient too large for Newton-Raphson -- use scaled steepest descent instead.
     Minimum is close to point  2 DX= -1.91D-02 DF= -1.68D-05 DXR=  1.38D-02 DFR=  1.92D-04 which will be used.
 Gradient too large for Newton-Raphson -- use scaled steepest descent instead.
     Accept linear search using points  1 and  2.
     Minimum is close to point  2 DX= -4.30D-02 DF= -5.48D-05 DXR=  3.17D-02 DFR=  1.65D-03 which will be used.
 Gradient too large for Newton-Raphson -- use scaled steepest descent instead.
     Accept linear search using points  1 and  2.
     Minimum is close to point  2 DX= -5.81D-02 DF= -5.32D-05 DXR=  4.33D-02 DFR=  3.17D-03 which will be used.
 Gradient too large for Newton-Raphson -- use scaled steepest descent instead.
     Accept linear search using points  1 and  2.
     Minimum is close to point  2 DX= -2.14D-02 DF= -3.72D-06 DXR=  1.68D-02 DFR=  4.29D-04 which will be used.
 Gradient too large for Newton-Raphson -- use scaled steepest descent instead.
 Gradient too large for Newton-Raphson -- use scaled steepest descent instead.
     Accept linear search using points  1 and  2.
     Minimum is close to point  2 DX= -2.19D-02 DF= -1.42D-06 DXR=  1.59D-02 DFR=  4.33D-04 which will be used.
 Gradient too large for Newton-Raphson -- use scaled steepest descent instead.
     Accept linear search using points  1 and  2.
     Minimum is close to point  2 DX= -6.24D-03 DF= -7.69D-08 DXR=  4.48D-03 DFR=  3.53D-05 which will be used.
 Gradient too large for Newton-Raphson -- use scaled steepest descent instead.
     Minimum is close to point  2 DX=  2.58D-02 DF= -4.77D-07 DXR=  1.81D-02 DFR=  3.26D-04 which will be used.
 Gradient too large for Newton-Raphson -- use scaled steepest descent instead.
     Minimum is close to point  2 DX=  8.83D-02 DF= -3.64D-06 DXR=  5.94D-02 DFR=  3.54D-03 which will be used.
 Gradient too large for Newton-Raphson -- use scaled steepest descent instead.
     Minimum is close to point  2 DX=  8.62D-02 DF= -2.24D-06 DXR=  5.44D-02 DFR=  2.96D-03 which will be used.
 Gradient too large for Newton-Raphson -- use scaled steepest descent instead.
     Accept linear search using points  1 and  2.
     Minimum is close to point  2 DX= -2.62D-03 DF= -3.51D-09 DXR=  1.75D-03 DFR=  6.11D-06 which will be used.
 Gradient too large for Newton-Raphson -- use scaled steepest descent instead.
     Accept linear search using points  1 and  2.
     Minimum is close to point  2 DX= -2.19D-02 DF= -1.95D-07 DXR=  1.48D-02 DFR=  4.22D-04 which will be used.
 Gradient too large for Newton-Raphson -- use scaled steepest descent instead.
     Accept linear search using points  1 and  2.
     Minimum is close to point  2 DX= -2.96D-02 DF= -3.01D-07 DXR=  2.01D-02 DFR=  7.70D-04 which will be used.
 Gradient too large for Newton-Raphson -- use scaled steepest descent instead.
     Accept linear search using points  1 and  2.
     Minimum is close to point  2 DX= -2.57D-02 DF= -2.01D-07 DXR=  1.75D-02 DFR=  5.81D-04 which will be used.
 Gradient too large for Newton-Raphson -- use scaled steepest descent instead.
     Accept linear search using points  1 and  2.
     Minimum is close to point  2 DX= -1.33D-02 DF= -4.99D-08 DXR=  8.97D-03 DFR=  1.57D-04 which will be used.
 Gradient too large for Newton-Raphson -- use scaled steepest descent instead.
     Minimum is close to point  2 DX=  1.62D-02 DF= -3.43D-08 DXR=  1.07D-02 DFR=  1.14D-04 which will be used.
 Gradient too large for Newton-Raphson -- use scaled steepest descent instead.
     Minimum is close to point  2 DX=  8.58D-02 DF= -8.51D-07 DXR=  5.41D-02 DFR=  2.93D-03 which will be used.
 LinEq1:  Iter=  0 NonCon=     1 RMS=4.58D-04 Max=2.95D-02 NDo=     1
 AX will form     1 AO Fock derivatives at one time.
 LinEq1:  Iter=  1 NonCon=     1 RMS=2.33D-04 Max=5.54D-03 NDo=     1
 LinEq1:  Iter=  2 NonCon=     1 RMS=4.40D-05 Max=1.14D-03 NDo=     1
 LinEq1:  Iter=  3 NonCon=     1 RMS=1.94D-05 Max=8.72D-04 NDo=     1
 LinEq1:  Iter=  4 NonCon=     1 RMS=8.39D-06 Max=2.35D-04 NDo=     1
 LinEq1:  Iter=  5 NonCon=     1 RMS=2.80D-06 Max=4.32D-05 NDo=     1
 LinEq1:  Iter=  6 NonCon=     1 RMS=9.18D-07 Max=1.60D-05 NDo=     1
 LinEq1:  Iter=  7 NonCon=     1 RMS=2.68D-07 Max=6.96D-06 NDo=     1
 LinEq1:  Iter=  8 NonCon=     1 RMS=1.08D-07 Max=1.98D-06 NDo=     1
 LinEq1:  Iter=  9 NonCon=     1 RMS=4.98D-08 Max=1.73D-06 NDo=     1
 LinEq1:  Iter= 10 NonCon=     1 RMS=1.62D-08 Max=3.36D-07 NDo=     1
 LinEq1:  Iter= 11 NonCon=     1 RMS=7.16D-09 Max=1.77D-07 NDo=     1
 LinEq1:  Iter= 12 NonCon=     0 RMS=2.76D-09 Max=4.26D-08 NDo=     1
 Linear equations converged to 9.822D-09 9.822D-08 after    12 iterations.
 Incorrect curvature in search direction -- initial direction reversed.
 Gradient too large for Newton-Raphson -- use scaled steepest descent instead.
     Accept linear search using points  1 and  2.
     Minimum is close to point  2 DX= -1.10D-01 DF= -9.78D-06 DXR=  7.39D-02 DFR=  1.01D-02 which will be used.
 Gradient too large for Newton-Raphson -- use scaled steepest descent instead.
     Accept linear search using points  1 and  2.
 Gradient too large for Newton-Raphson -- use scaled steepest descent instead.
     Minimum is close to point  2 DX=  5.06D-02 DF= -8.55D-07 DXR=  4.05D-02 DFR=  1.64D-03 which will be used.
 Gradient too large for Newton-Raphson -- use scaled steepest descent instead.
 Gradient too large for Newton-Raphson -- use scaled steepest descent instead.
     Accept linear search using points  1 and  2.
     Minimum is close to point  2 DX= -9.75D-02 DF= -4.25D-06 DXR=  8.11D-02 DFR=  9.61D-03 which will be used.
 Gradient too large for Newton-Raphson -- use scaled steepest descent instead.
     Accept linear search using points  1 and  2.
 Gradient too large for Newton-Raphson -- use scaled steepest descent instead.
 Gradient too large for Newton-Raphson -- use scaled steepest descent instead.
     Accept linear search using points  1 and  2.
     Minimum is close to point  2 DX= -6.98D-03 DF= -1.92D-08 DXR=  6.39D-03 DFR=  4.88D-05 which will be used.
 Gradient too large for Newton-Raphson -- use scaled steepest descent instead.
     Minimum is close to point  2 DX=  4.62D-02 DF= -5.15D-07 DXR=  3.71D-02 DFR=  1.38D-03 which will be used.
 Gradient too large for Newton-Raphson -- use scaled steepest descent instead.
     Accept linear search using points  1 and  2.
     Minimum is close to point  2 DX= -9.89D-03 DF= -3.42D-08 DXR=  8.31D-03 DFR=  9.52D-05 which will be used.
 Gradient too large for Newton-Raphson -- use scaled steepest descent instead.
     Accept linear search using points  1 and  2.
     Minimum is close to point  2 DX= -4.90D-02 DF= -8.37D-07 DXR=  4.26D-02 DFR=  2.44D-03 which will be used.
 Gradient too large for Newton-Raphson -- use scaled steepest descent instead.
     Accept linear search using points  1 and  2.
     Minimum is close to point  2 DX= -9.08D-02 DF= -2.92D-06 DXR=  8.19D-02 DFR=  8.88D-03 which will be used.
 Gradient too large for Newton-Raphson -- use scaled steepest descent instead.
     Accept linear search using points  1 and  2.
     Minimum is close to point  2 DX= -6.93D-02 DF= -1.71D-06 DXR=  6.72D-02 DFR=  5.31D-03 which will be used.
 LinEq1:  Iter=  0 NonCon=     1 RMS=3.26D-04 Max=1.40D-02 NDo=     1
 LinEq1:  Iter=  1 NonCon=     1 RMS=2.74D-04 Max=9.22D-03 NDo=     1
 LinEq1:  Iter=  2 NonCon=     1 RMS=1.07D-05 Max=1.94D-04 NDo=     1
 LinEq1:  Iter=  3 NonCon=     1 RMS=4.22D-06 Max=8.29D-05 NDo=     1
 LinEq1:  Iter=  4 NonCon=     1 RMS=1.59D-06 Max=4.06D-05 NDo=     1
 LinEq1:  Iter=  5 NonCon=     1 RMS=4.45D-07 Max=7.69D-06 NDo=     1
 LinEq1:  Iter=  6 NonCon=     1 RMS=1.58D-07 Max=3.22D-06 NDo=     1
 LinEq1:  Iter=  7 NonCon=     1 RMS=7.29D-08 Max=2.09D-06 NDo=     1
 LinEq1:  Iter=  8 NonCon=     1 RMS=2.75D-08 Max=3.83D-07 NDo=     1
 LinEq1:  Iter=  9 NonCon=     1 RMS=8.22D-09 Max=1.45D-07 NDo=     1
 LinEq1:  Iter= 10 NonCon=     0 RMS=2.56D-09 Max=7.64D-08 NDo=     1
 Linear equations converged to 9.822D-09 9.822D-08 after    10 iterations.
 LinEq1:  Iter=  0 NonCon=     1 RMS=2.05D-04 Max=3.60D-03 NDo=     1
 LinEq1:  Iter=  1 NonCon=     1 RMS=1.49D-04 Max=4.58D-03 NDo=     1
 LinEq1:  Iter=  2 NonCon=     1 RMS=6.62D-05 Max=2.86D-03 NDo=     1
 LinEq1:  Iter=  3 NonCon=     1 RMS=2.30D-05 Max=3.89D-04 NDo=     1
 LinEq1:  Iter=  4 NonCon=     1 RMS=8.55D-06 Max=2.02D-04 NDo=     1
 LinEq1:  Iter=  5 NonCon=     1 RMS=3.56D-06 Max=6.15D-05 NDo=     1
 LinEq1:  Iter=  6 NonCon=     1 RMS=9.92D-07 Max=3.01D-05 NDo=     1
 LinEq1:  Iter=  7 NonCon=     1 RMS=3.01D-07 Max=5.50D-06 NDo=     1
 LinEq1:  Iter=  8 NonCon=     1 RMS=1.12D-07 Max=2.13D-06 NDo=     1
 LinEq1:  Iter=  9 NonCon=     1 RMS=5.35D-08 Max=8.65D-07 NDo=     1
 LinEq1:  Iter= 10 NonCon=     1 RMS=2.11D-08 Max=4.44D-07 NDo=     1
 LinEq1:  Iter= 11 NonCon=     1 RMS=6.85D-09 Max=1.38D-07 NDo=     1
 LinEq1:  Iter= 12 NonCon=     0 RMS=1.82D-09 Max=3.40D-08 NDo=     1
 Linear equations converged to 9.822D-09 9.822D-08 after    12 iterations.
     Accept linear search using points  1 and  2.
 LinEq1:  Iter=  0 NonCon=     1 RMS=8.46D-05 Max=1.50D-03 NDo=     1
 LinEq1:  Iter=  1 NonCon=     1 RMS=3.99D-05 Max=8.30D-04 NDo=     1
 LinEq1:  Iter=  2 NonCon=     1 RMS=1.51D-05 Max=3.91D-04 NDo=     1
 LinEq1:  Iter=  3 NonCon=     1 RMS=6.03D-06 Max=1.61D-04 NDo=     1
 LinEq1:  Iter=  4 NonCon=     1 RMS=2.80D-06 Max=7.67D-05 NDo=     1
 LinEq1:  Iter=  5 NonCon=     1 RMS=1.43D-06 Max=4.36D-05 NDo=     1
 LinEq1:  Iter=  6 NonCon=     1 RMS=4.38D-07 Max=9.08D-06 NDo=     1
 LinEq1:  Iter=  7 NonCon=     1 RMS=1.46D-07 Max=2.24D-06 NDo=     1
 LinEq1:  Iter=  8 NonCon=     1 RMS=4.63D-08 Max=7.32D-07 NDo=     1
 LinEq1:  Iter=  9 NonCon=     1 RMS=1.53D-08 Max=2.82D-07 NDo=     1
 LinEq1:  Iter= 10 NonCon=     1 RMS=7.11D-09 Max=1.45D-07 NDo=     1
 LinEq1:  Iter= 11 NonCon=     0 RMS=3.17D-09 Max=7.01D-08 NDo=     1
 Linear equations converged to 9.822D-09 9.822D-08 after    11 iterations.
     Accept linear search using points  1 and  2.
     Minimum is close to point  2 DX= -1.19D-03 DF= -7.07D-11 DXR=  1.19D-03 DFR=  1.42D-06 which will be used.
 LinEq1:  Iter=  0 NonCon=     1 RMS=9.55D-07 Max=2.48D-05 NDo=     1
 LinEq1:  Iter=  1 NonCon=     1 RMS=5.55D-07 Max=1.90D-05 NDo=     1
 LinEq1:  Iter=  2 NonCon=     1 RMS=2.22D-07 Max=4.23D-06 NDo=     1
 LinEq1:  Iter=  3 NonCon=     1 RMS=9.51D-08 Max=2.11D-06 NDo=     1
 LinEq1:  Iter=  4 NonCon=     1 RMS=3.55D-08 Max=8.35D-07 NDo=     1
 LinEq1:  Iter=  5 NonCon=     1 RMS=1.66D-08 Max=4.02D-07 NDo=     1
 LinEq1:  Iter=  6 NonCon=     1 RMS=6.44D-09 Max=1.36D-07 NDo=     1
 LinEq1:  Iter=  7 NonCon=     1 RMS=2.76D-09 Max=5.76D-08 NDo=     1
 LinEq1:  Iter=  8 NonCon=     1 RMS=1.09D-09 Max=1.90D-08 NDo=     1
 LinEq1:  Iter=  9 NonCon=     1 RMS=4.64D-10 Max=8.82D-09 NDo=     1
 LinEq1:  Iter= 10 NonCon=     0 RMS=1.32D-10 Max=2.10D-09 NDo=     1
 Linear equations converged to 3.593D-10 3.593D-09 after    10 iterations.
 SCF Done:  E(RPM6) =   2.27104004221     a.u. after   39 cycles
            Convg  =    0.9352D-06                   126 Fock formations.
              S**2 =  0.0000                  -V/T =  1.0247

 **********************************************************************

            Population analysis using the SCF density.

 **********************************************************************

 Orbital symmetries:
       Occupied  (A) (A) (A) (A) (A) (A) (A) (A) (A) (A) (A) (A)
                 (A) (A) (A) (A) (A) (A) (A) (A) (A) (A) (A) (A)
                 (A) (A) (A) (A) (A) (A) (A) (A) (A) (A) (A) (A)
                 (A) (A) (A) (A) (A) (A) (A) (A) (A) (A) (A) (A)
                 (A) (A) (A) (A) (A) (A) (A) (A) (A) (A) (A) (A)
                 (A) (A) (A) (A) (A) (A) (A)
       Virtual   (A) (A) (A) (A) (A) (A) (A) (A) (A) (A) (A) (A)
                 (A) (A) (A) (A) (A) (A) (A) (A) (A) (A) (A) (A)
                 (A) (A) (A) (A) (A) (A) (A) (A) (A) (A) (A) (A)
                 (A) (A) (A) (A) (A) (A) (A) (A) (A) (A) (A) (A)
                 (A) (A) (A) (A) (A) (A) (A) (A) (A) (A) (A) (A)
                 (A) (A) (A) (A) (A) (A) (A) (A) (A) (A) (A) (A)
 The electronic state is 1-A.
 Alpha  occ. eigenvalues --   -1.14497  -1.14477  -1.09308  -1.06201  -1.04516
 Alpha  occ. eigenvalues --   -1.03014  -0.99599  -0.98324  -0.97542  -0.95740
 Alpha  occ. eigenvalues --   -0.93249  -0.92228  -0.89564  -0.87429  -0.85067
 Alpha  occ. eigenvalues --   -0.81315  -0.79786  -0.79217  -0.78835  -0.74370
 Alpha  occ. eigenvalues --   -0.73742  -0.72306  -0.70103  -0.67813  -0.66555
 Alpha  occ. eigenvalues --   -0.62246  -0.61498  -0.60943  -0.58720  -0.58140
 Alpha  occ. eigenvalues --   -0.57154  -0.56813  -0.55521  -0.55152  -0.54197
 Alpha  occ. eigenvalues --   -0.53748  -0.52177  -0.51954  -0.51518  -0.50453
 Alpha  occ. eigenvalues --   -0.50010  -0.49813  -0.49152  -0.48328  -0.47639
 Alpha  occ. eigenvalues --   -0.47185  -0.46914  -0.45972  -0.45745  -0.45437
 Alpha  occ. eigenvalues --   -0.44484  -0.44322  -0.44111  -0.42921  -0.42299
 Alpha  occ. eigenvalues --   -0.41490  -0.40428  -0.40037  -0.39588  -0.39233
 Alpha  occ. eigenvalues --   -0.35928  -0.35006  -0.34740  -0.33781  -0.31538
 Alpha  occ. eigenvalues --   -0.29178  -0.27812
 Alpha virt. eigenvalues --   -0.11111  -0.09607  -0.07273  -0.06121  -0.05669
 Alpha virt. eigenvalues --   -0.04826  -0.03786  -0.02636  -0.02255  -0.01160
 Alpha virt. eigenvalues --   -0.00823   0.00432   0.01345   0.01543   0.02482
 Alpha virt. eigenvalues --    0.03136   0.03150   0.05434   0.05850   0.05993
 Alpha virt. eigenvalues --    0.09116   0.10227   0.10312   0.10793   0.11128
 Alpha virt. eigenvalues --    0.11241   0.12221   0.12336   0.12442   0.12591
 Alpha virt. eigenvalues --    0.12792   0.12900   0.12968   0.13467   0.13656
 Alpha virt. eigenvalues --    0.13751   0.13846   0.13890   0.14021   0.14262
 Alpha virt. eigenvalues --    0.14394   0.14462   0.14697   0.14869   0.15037
 Alpha virt. eigenvalues --    0.15208   0.15242   0.15532   0.15753   0.16122
 Alpha virt. eigenvalues --    0.16310   0.16378   0.17002   0.17252   0.17425
 Alpha virt. eigenvalues --    0.17575   0.18437   0.18578   0.19547   0.19977
 Alpha virt. eigenvalues --    0.20255   0.20316   0.20438   0.20472   0.20709
 Alpha virt. eigenvalues --    0.20760   0.20815   0.20843   0.21120   0.21246
 Alpha virt. eigenvalues --    0.21357   0.22048
          Condensed to atoms (all electrons):
               1          2          3          4          5          6
     1  C    4.123885   0.000000   0.000000   0.000000   0.000000   0.000000
     2  C    0.000000   4.117713   0.000000   0.000000   0.000000   0.000000
     3  C    0.000000   0.000000   3.974257   0.000000   0.000000   0.000000
     4  C    0.000000   0.000000   0.000000   3.999076   0.000000   0.000000
     5  C    0.000000   0.000000   0.000000   0.000000   4.131726   0.000000
     6  C    0.000000   0.000000   0.000000   0.000000   0.000000   4.113270
     7  C    0.000000   0.000000   0.000000   0.000000   0.000000   0.000000
     8  C    0.000000   0.000000   0.000000   0.000000   0.000000   0.000000
     9  C    0.000000   0.000000   0.000000   0.000000   0.000000   0.000000
    10  C    0.000000   0.000000   0.000000   0.000000   0.000000   0.000000
    11  C    0.000000   0.000000   0.000000   0.000000   0.000000   0.000000
    12  C    0.000000   0.000000   0.000000   0.000000   0.000000   0.000000
    13  C    0.000000   0.000000   0.000000   0.000000   0.000000   0.000000
    14  C    0.000000   0.000000   0.000000   0.000000   0.000000   0.000000
    15  C    0.000000   0.000000   0.000000   0.000000   0.000000   0.000000
    16  C    0.000000   0.000000   0.000000   0.000000   0.000000   0.000000
    17  C    0.000000   0.000000   0.000000   0.000000   0.000000   0.000000
    18  C    0.000000   0.000000   0.000000   0.000000   0.000000   0.000000
    19  C    0.000000   0.000000   0.000000   0.000000   0.000000   0.000000
    20  C    0.000000   0.000000   0.000000   0.000000   0.000000   0.000000
    21  C    0.000000   0.000000   0.000000   0.000000   0.000000   0.000000
    22  C    0.000000   0.000000   0.000000   0.000000   0.000000   0.000000
    23  C    0.000000   0.000000   0.000000   0.000000   0.000000   0.000000
    24  C    0.000000   0.000000   0.000000   0.000000   0.000000   0.000000
    25  C    0.000000   0.000000   0.000000   0.000000   0.000000   0.000000
    26  C    0.000000   0.000000   0.000000   0.000000   0.000000   0.000000
    27  C    0.000000   0.000000   0.000000   0.000000   0.000000   0.000000
    28  C    0.000000   0.000000   0.000000   0.000000   0.000000   0.000000
    29  C    0.000000   0.000000   0.000000   0.000000   0.000000   0.000000
    30  H    0.000000   0.000000   0.000000   0.000000   0.000000   0.000000
    31  H    0.000000   0.000000   0.000000   0.000000   0.000000   0.000000
    32  H    0.000000   0.000000   0.000000   0.000000   0.000000   0.000000
    33  H    0.000000   0.000000   0.000000   0.000000   0.000000   0.000000
    34  H    0.000000   0.000000   0.000000   0.000000   0.000000   0.000000
    35  H    0.000000   0.000000   0.000000   0.000000   0.000000   0.000000
    36  H    0.000000   0.000000   0.000000   0.000000   0.000000   0.000000
    37  H    0.000000   0.000000   0.000000   0.000000   0.000000   0.000000
    38  H    0.000000   0.000000   0.000000   0.000000   0.000000   0.000000
    39  H    0.000000   0.000000   0.000000   0.000000   0.000000   0.000000
    40  H    0.000000   0.000000   0.000000   0.000000   0.000000   0.000000
    41  H    0.000000   0.000000   0.000000   0.000000   0.000000   0.000000
    42  H    0.000000   0.000000   0.000000   0.000000   0.000000   0.000000
    43  H    0.000000   0.000000   0.000000   0.000000   0.000000   0.000000
    44  Zr   0.000000   0.000000   0.000000   0.000000   0.000000   0.000000
               7          8          9         10         11         12
     1  C    0.000000   0.000000   0.000000   0.000000   0.000000   0.000000
     2  C    0.000000   0.000000   0.000000   0.000000   0.000000   0.000000
     3  C    0.000000   0.000000   0.000000   0.000000   0.000000   0.000000
     4  C    0.000000   0.000000   0.000000   0.000000   0.000000   0.000000
     5  C    0.000000   0.000000   0.000000   0.000000   0.000000   0.000000
     6  C    0.000000   0.000000   0.000000   0.000000   0.000000   0.000000
     7  C    4.155695   0.000000   0.000000   0.000000   0.000000   0.000000
     8  C    0.000000   4.024330   0.000000   0.000000   0.000000   0.000000
     9  C    0.000000   0.000000   4.058441   0.000000   0.000000   0.000000
    10  C    0.000000   0.000000   0.000000   4.077729   0.000000   0.000000
    11  C    0.000000   0.000000   0.000000   0.000000   4.080034   0.000000
    12  C    0.000000   0.000000   0.000000   0.000000   0.000000   4.160732
    13  C    0.000000   0.000000   0.000000   0.000000   0.000000   0.000000
    14  C    0.000000   0.000000   0.000000   0.000000   0.000000   0.000000
    15  C    0.000000   0.000000   0.000000   0.000000   0.000000   0.000000
    16  C    0.000000   0.000000   0.000000   0.000000   0.000000   0.000000
    17  C    0.000000   0.000000   0.000000   0.000000   0.000000   0.000000
    18  C    0.000000   0.000000   0.000000   0.000000   0.000000   0.000000
    19  C    0.000000   0.000000   0.000000   0.000000   0.000000   0.000000
    20  C    0.000000   0.000000   0.000000   0.000000   0.000000   0.000000
    21  C    0.000000   0.000000   0.000000   0.000000   0.000000   0.000000
    22  C    0.000000   0.000000   0.000000   0.000000   0.000000   0.000000
    23  C    0.000000   0.000000   0.000000   0.000000   0.000000   0.000000
    24  C    0.000000   0.000000   0.000000   0.000000   0.000000   0.000000
    25  C    0.000000   0.000000   0.000000   0.000000   0.000000   0.000000
    26  C    0.000000   0.000000   0.000000   0.000000   0.000000   0.000000
    27  C    0.000000   0.000000   0.000000   0.000000   0.000000   0.000000
    28  C    0.000000   0.000000   0.000000   0.000000   0.000000   0.000000
    29  C    0.000000   0.000000   0.000000   0.000000   0.000000   0.000000
    30  H    0.000000   0.000000   0.000000   0.000000   0.000000   0.000000
    31  H    0.000000   0.000000   0.000000   0.000000   0.000000   0.000000
    32  H    0.000000   0.000000   0.000000   0.000000   0.000000   0.000000
    33  H    0.000000   0.000000   0.000000   0.000000   0.000000   0.000000
    34  H    0.000000   0.000000   0.000000   0.000000   0.000000   0.000000
    35  H    0.000000   0.000000   0.000000   0.000000   0.000000   0.000000
    36  H    0.000000   0.000000   0.000000   0.000000   0.000000   0.000000
    37  H    0.000000   0.000000   0.000000   0.000000   0.000000   0.000000
    38  H    0.000000   0.000000   0.000000   0.000000   0.000000   0.000000
    39  H    0.000000   0.000000   0.000000   0.000000   0.000000   0.000000
    40  H    0.000000   0.000000   0.000000   0.000000   0.000000   0.000000
    41  H    0.000000   0.000000   0.000000   0.000000   0.000000   0.000000
    42  H    0.000000   0.000000   0.000000   0.000000   0.000000   0.000000
    43  H    0.000000   0.000000   0.000000   0.000000   0.000000   0.000000
    44  Zr   0.000000   0.000000   0.000000   0.000000   0.000000   0.000000
              13         14         15         16         17         18
     1  C    0.000000   0.000000   0.000000   0.000000   0.000000   0.000000
     2  C    0.000000   0.000000   0.000000   0.000000   0.000000   0.000000
     3  C    0.000000   0.000000   0.000000   0.000000   0.000000   0.000000
     4  C    0.000000   0.000000   0.000000   0.000000   0.000000   0.000000
     5  C    0.000000   0.000000   0.000000   0.000000   0.000000   0.000000
     6  C    0.000000   0.000000   0.000000   0.000000   0.000000   0.000000
     7  C    0.000000   0.000000   0.000000   0.000000   0.000000   0.000000
     8  C    0.000000   0.000000   0.000000   0.000000   0.000000   0.000000
     9  C    0.000000   0.000000   0.000000   0.000000   0.000000   0.000000
    10  C    0.000000   0.000000   0.000000   0.000000   0.000000   0.000000
    11  C    0.000000   0.000000   0.000000   0.000000   0.000000   0.000000
    12  C    0.000000   0.000000   0.000000   0.000000   0.000000   0.000000
    13  C    3.319261   0.000000   0.000000   0.000000   0.000000   0.000000
    14  C    0.000000   3.426674   0.000000   0.000000   0.000000   0.000000
    15  C    0.000000   0.000000   4.059000   0.000000   0.000000   0.000000
    16  C    0.000000   0.000000   0.000000   3.885671   0.000000   0.000000
    17  C    0.000000   0.000000   0.000000   0.000000   3.329376   0.000000
    18  C    0.000000   0.000000   0.000000   0.000000   0.000000   4.022435
    19  C    0.000000   0.000000   0.000000   0.000000   0.000000   0.000000
    20  C    0.000000   0.000000   0.000000   0.000000   0.000000   0.000000
    21  C    0.000000   0.000000   0.000000   0.000000   0.000000   0.000000
    22  C    0.000000   0.000000   0.000000   0.000000   0.000000   0.000000
    23  C    0.000000   0.000000   0.000000   0.000000   0.000000   0.000000
    24  C    0.000000   0.000000   0.000000   0.000000   0.000000   0.000000
    25  C    0.000000   0.000000   0.000000   0.000000   0.000000   0.000000
    26  C    0.000000   0.000000   0.000000   0.000000   0.000000   0.000000
    27  C    0.000000   0.000000   0.000000   0.000000   0.000000   0.000000
    28  C    0.000000   0.000000   0.000000   0.000000   0.000000   0.000000
    29  C    0.000000   0.000000   0.000000   0.000000   0.000000   0.000000
    30  H    0.000000   0.000000   0.000000   0.000000   0.000000   0.000000
    31  H    0.000000   0.000000   0.000000   0.000000   0.000000   0.000000
    32  H    0.000000   0.000000   0.000000   0.000000   0.000000   0.000000
    33  H    0.000000   0.000000   0.000000   0.000000   0.000000   0.000000
    34  H    0.000000   0.000000   0.000000   0.000000   0.000000   0.000000
    35  H    0.000000   0.000000   0.000000   0.000000   0.000000   0.000000
    36  H    0.000000   0.000000   0.000000   0.000000   0.000000   0.000000
    37  H    0.000000   0.000000   0.000000   0.000000   0.000000   0.000000
    38  H    0.000000   0.000000   0.000000   0.000000   0.000000   0.000000
    39  H    0.000000   0.000000   0.000000   0.000000   0.000000   0.000000
    40  H    0.000000   0.000000   0.000000   0.000000   0.000000   0.000000
    41  H    0.000000   0.000000   0.000000   0.000000   0.000000   0.000000
    42  H    0.000000   0.000000   0.000000   0.000000   0.000000   0.000000
    43  H    0.000000   0.000000   0.000000   0.000000   0.000000   0.000000
    44  Zr   0.000000   0.000000   0.000000   0.000000   0.000000   0.000000
              19         20         21         22         23         24
     1  C    0.000000   0.000000   0.000000   0.000000   0.000000   0.000000
     2  C    0.000000   0.000000   0.000000   0.000000   0.000000   0.000000
     3  C    0.000000   0.000000   0.000000   0.000000   0.000000   0.000000
     4  C    0.000000   0.000000   0.000000   0.000000   0.000000   0.000000
     5  C    0.000000   0.000000   0.000000   0.000000   0.000000   0.000000
     6  C    0.000000   0.000000   0.000000   0.000000   0.000000   0.000000
     7  C    0.000000   0.000000   0.000000   0.000000   0.000000   0.000000
     8  C    0.000000   0.000000   0.000000   0.000000   0.000000   0.000000
     9  C    0.000000   0.000000   0.000000   0.000000   0.000000   0.000000
    10  C    0.000000   0.000000   0.000000   0.000000   0.000000   0.000000
    11  C    0.000000   0.000000   0.000000   0.000000   0.000000   0.000000
    12  C    0.000000   0.000000   0.000000   0.000000   0.000000   0.000000
    13  C    0.000000   0.000000   0.000000   0.000000   0.000000   0.000000
    14  C    0.000000   0.000000   0.000000   0.000000   0.000000   0.000000
    15  C    0.000000   0.000000   0.000000   0.000000   0.000000   0.000000
[...]
 ,0.00017990,-0.00035192,-0.00271093,0.00506195,-0.03760609,0.02868916,
 0.00000445,0.00007210,0.00008118,-0.00114217,0.00090110,0.00005623,-0.
 00623485,0.02822709,-0.00787161,-0.00662791,-0.02754118,0.00343713,-0.
 00005439,-0.00024895,0.00002196,-0.03414044,0.00218892,0.00073803,-0.0
 0147679,-0.00091417,0.00006032,-0.00009209,0.00005673,0.00005212,-0.00
 003250,0.00004606,0.00004439,0.00020764,-0.00003878,-0.00007681,0.0000
 2534,-0.00008197,-0.00003105,-0.00004319,-0.00006451,0.00000514,-0.000
 26302,0.00053487,-0.00025785,-0.00002455,-0.00003446,-0.00004198,0.000
 06294,-0.00000272,-0.00003128,-0.00028244,-0.00016716,-0.00005505,0.00
 015211,-0.00004806,0.00006544,0.00003270,0.00000495,-0.00000987,0.0002
 8626,-0.00060627,0.00012660,0.00011928,0.00002257,0.00004774,0.0000103
 4,0.00001237,-0.00000147,-0.00172785,0.00080384,-0.00148365,-0.0000270
 0,0.00005608,0.00005186,-0.00228579,-0.00123979,-0.00057293,-0.0002030
 7,0.00017576,-0.00002113,-0.00000771,0.00003461,-0.00001154,-0.0001751
 3,0.00028624,-0.00005979,-0.00017592,0.00006557,-0.00006715,-0.0000004
 2,-0.00000160,0.00000744,0.00000561,0.00000617,-0.00000170,0.00001032,
 -0.00002164,0.00000142,-0.00000013,0.00000067,-0.00000160,0.00000263,-
 0.00000267,-0.00000286,0.00000055,-0.00000849,0.00000425,-0.00000038,0
 .00000090,-0.00000195,0.00000194,-0.00000083,-0.00000358,0.00000144,0.
 00000690,-0.00000376,-0.00000688,0.00001368,-0.00000297,-0.00002221,-0
 .00004373,-0.00005607,-0.00087020,-0.00015960,-0.00020637,0.05585050,-
 0.00031209,-0.00039051,-0.00011368,0.00087727,0.00005774,-0.00036018,0
 .01583974,-0.02673747,0.00927381,-0.01522068,-0.02461511,0.00363257,0.
 00018323,-0.00029823,0.00005007,0.00176585,-0.21236578,0.03596867,-0.0
 0045681,-0.00029103,-0.00013079,-0.00009265,-0.00020010,-0.00015864,-0
 .00003922,-0.00007992,-0.00002017,-0.00010403,0.00018123,0.00015982,-0
 .00000950,-0.00002525,0.00007741,0.00010804,0.00012936,-0.00001576,0.0
 0030495,-0.00058792,-0.00016558,-0.00012679,0.00025224,-0.00012512,-0.
 00017397,0.00009993,0.00014031,-0.00023396,-0.00004280,-0.00013038,0.0
 0013882,0.00028582,-0.00032007,-0.00006181,0.00012289,-0.00002501,0.00
 009812,-0.00016141,-0.00001484,0.00001244,0.00009700,0.00005098,-0.000
 00436,0.00004838,0.00002648,0.00066441,0.00103436,0.00123183,0.0001081
 2,-0.00013633,-0.00005649,-0.00121376,-0.00041475,0.00028354,-0.000275
 64,0.00009809,-0.00023215,0.00001591,-0.00026626,-0.00007929,-0.000043
 14,0.00000829,-0.00001822,0.00006230,-0.00005169,0.00003047,0.00009238
 ,-0.00000756,0.00001945,-0.00000305,0.00000004,0.00000704,-0.00002364,
 -0.00001568,-0.00000544,-0.00002989,-0.00001696,-0.00000989,0.00001000
 ,-0.00001233,0.00000110,-0.00000817,-0.00005062,-0.00000138,-0.0000014
 5,-0.00006610,-0.00003009,0.00002617,-0.00001292,-0.00002469,0.0000595
 5,0.00002549,-0.00003532,0.00013039,0.00007344,0.00001186,0.00009836,0
 .00015088,0.00001580,0.00005040,0.00038792,0.00002061,-0.00227431,0.26
 351683,0.00018788,-0.00008006,-0.00008650,-0.00008576,-0.00043911,-0.0
 0250084,-0.00573931,0.01192472,0.00267395,0.00030120,0.00129260,0.0064
 1355,-0.00004131,-0.00003429,-0.00008342,0.00151214,0.03588328,-0.0470
 5199,0.00003927,-0.00026464,-0.00079413,0.00010079,-0.00022309,-0.0000
 1775,0.00005445,-0.00012556,-0.00007861,-0.00015898,0.00039572,0.00016
 412,-0.00006053,0.00021479,0.00009430,0.00007410,0.00010984,-0.0000158
 9,0.00062881,-0.00056761,-0.00016481,0.00000796,-0.00004173,0.00009637
 ,-0.00013175,-0.00002589,0.00004487,0.00070185,0.00036524,0.00031361,-
 0.00024389,0.00002292,-0.00007981,-0.00008098,0.00000878,-0.00001748,0
 .00012689,-0.00003764,-0.00017448,0.00003351,-0.00001703,-0.00001618,0
 .00000721,-0.00000817,-0.00000400,-0.00225949,0.00111110,0.00619660,0.
 00009961,-0.00005689,-0.00010144,-0.00078600,0.00055391,0.00188994,0.0
 0018491,-0.00036587,-0.00045327,-0.00002669,-0.00012146,0.00001287,-0.
 00001433,0.00006052,-0.00010242,-0.00005434,-0.00003028,0.00002416,-0.
 00001708,-0.00001733,-0.00001908,-0.00000635,0.00000480,0.00004605,0.0
 0000552,0.00000165,0.00002825,0.00000342,0.00000060,0.00000759,-0.0000
 0329,-0.00000217,0.00000244,-0.00000175,-0.00000159,-0.00000155,0.0000
 0475,0.00000775,0.00000655,-0.00000690,0.00000182,0.00001094,-0.000002
 81,-0.00000457,0.00001341,-0.00003491,-0.00000981,-0.00002655,-0.00005
 483,0.00002018,0.00029047,-0.00024029,-0.00005316,0.00038697,0.0061681
 3,-0.04989384,0.03293885,0.00002022,0.00004642,0.00002836,0.00000723,-
 0.00008358,-0.00000845,-0.00004832,0.00025124,-0.00007295,-0.00576163,
 0.02762175,-0.00630994,-0.00704532,-0.02881805,0.00162634,-0.00128777,
 0.00082173,-0.00003709,-0.03453774,-0.00103882,0.00144867,0.00000147,0
 .00003404,0.00003802,-0.00000073,0.00002097,0.00001199,0.00003519,-0.0
 0001895,-0.00003752,0.00000429,-0.00000159,-0.00001742,-0.00002736,-0.
 00003284,0.00000532,-0.00006473,0.00003427,0.00004920,0.00002526,-0.00
 005906,0.00004238,0.00004118,-0.00001804,-0.00003075,0.00017918,0.0004
 0221,0.00000386,0.00005734,-0.00007601,0.00012230,0.00003482,-0.000023
 80,0.00000271,-0.00004401,-0.00000233,-0.00004386,-0.00000453,-0.00003
 842,-0.00000344,0.00000730,-0.00000199,-0.00000457,0.00002513,-0.00018
 266,0.00005689,-0.00003629,0.00002405,0.00001676,-0.00213684,0.0008918
 6,-0.00153966,-0.00010739,0.00012398,-0.00002981,-0.00001903,0.0000775
 3,0.00000963,-0.00219270,-0.00133412,-0.00134134,-0.00004491,0.0000422
 2,0.00014669,-0.00001617,0.00001323,-0.00002120,0.00003106,-0.00043427
 ,0.00004741,0.00000005,0.00000297,-0.00000725,0.00000560,0.00000328,0.
 00000145,-0.00000214,0.00000074,0.00000178,0.00000141,0.00000980,0.000
 00005,-0.00000005,0.00001143,0.00000406,-0.00000311,0.00000177,0.00000
 233,-0.00000874,-0.00000108,0.00000351,-0.00002160,-0.00000759,-0.0000
 0768,-0.00002212,-0.00001581,0.00000360,-0.00002435,0.00001640,-0.0000
 1365,-0.00092092,-0.00013166,-0.00016713,0.05433916,-0.00008581,-0.000
 07903,-0.00000373,0.00010994,-0.00001979,0.00004076,-0.00001636,-0.000
 62511,0.00014668,0.01489019,-0.02430406,0.00724030,-0.01557901,-0.0285
 3342,0.00153147,0.00010012,-0.00023460,-0.00020522,-0.00115315,-0.2163
 8167,0.02542744,-0.00011298,-0.00003528,-0.00004761,-0.00009634,0.0000
 3349,0.00006785,0.00011259,0.00008295,-0.00000986,0.00006546,-0.000051
 84,-0.00000346,-0.00001035,-0.00004530,-0.00000711,-0.00010715,-0.0001
 8770,-0.00023616,-0.00016676,0.00005247,-0.00009728,-0.00001200,0.0000
 5945,0.00002316,-0.00022240,-0.00010987,-0.00011888,0.00028202,0.00000
 900,-0.00010807,0.00005782,0.00009457,-0.00008321,0.00066013,-0.000594
 86,0.00012286,0.00079913,0.00014506,0.00022195,0.00006391,0.00011945,-
 0.00003151,-0.00008316,0.00041832,-0.00014600,0.00002074,-0.00001382,0
 .00003113,0.00125544,-0.00073706,0.00118949,-0.00064047,-0.00010137,-0
 .00022870,-0.00006471,-0.00001965,0.00001652,-0.00227226,0.00081067,0.
 00020221,-0.00041537,0.00068153,-0.00024544,-0.00000811,-0.00008705,0.
 00003506,0.00001179,-0.00021155,-0.00000500,-0.00000624,0.00000558,0.0
 0000325,-0.00003367,-0.00001547,-0.00000790,-0.00000277,-0.00006578,-0
 .00001706,0.00000232,-0.00007790,0.00001370,0.00000426,-0.00004736,-0.
 00002489,0.00002260,-0.00001236,-0.00002134,0.00004589,0.00002605,-0.0
 0002701,0.00006148,0.00004175,0.00000165,0.00004329,0.00003303,-0.0000
 1725,-0.00003450,0.00010356,-0.00002298,0.00008167,0.00036892,0.000006
 21,0.00265338,0.26920252,0.00000852,0.00004953,0.00000642,0.00000477,0
 .00000821,0.00006429,-0.00014396,0.00029858,-0.00006348,-0.00554268,0.
 01060029,0.00311912,-0.00107571,-0.00193326,0.00536737,0.00034873,-0.0
 0011013,-0.00162613,0.00286788,0.02542069,-0.04295611,0.00001158,0.000
 04700,0.00001179,0.00000571,0.00002259,-0.00000091,0.00003270,-0.00004
 384,-0.00001005,-0.00000303,0.00000979,-0.00001540,-0.00002019,-0.0000
 2622,-0.00000081,-0.00015894,0.00013421,0.00000333,0.00003721,-0.00006
 004,0.00006848,0.00003867,-0.00001569,-0.00003312,-0.00005149,-0.00005
 656,-0.00015792,0.00009370,-0.00017478,0.00020497,0.00006974,-0.000041
 10,-0.00000647,0.00060474,-0.00016093,0.00041968,0.00008877,-0.0000244
 2,0.00003020,0.00000051,-0.00001360,-0.00000262,0.00028081,-0.00025122
 ,0.00008119,-0.00005900,-0.00000039,-0.00000391,-0.00182068,0.00034421
 ,0.00426488,-0.00010215,0.00011853,-0.00015469,-0.00000122,0.00013821,
 -0.00003579,-0.00147829,0.00101939,0.00462873,0.00014907,0.00009340,-0
 .00083373,-0.00003799,0.00002906,0.00007960,0.00002758,-0.00003764,-0.
 00013913,-0.00000685,-0.00000192,0.00004607,0.00000712,0.00000393,0.00
 000599,0.00000268,0.00001131,-0.00000828,0.00000426,0.00001463,0.00001
 582,0.00000107,0.00001179,0.00000874,-0.00000493,0.00000267,0.00000758
 ,-0.00001133,-0.00000668,0.00000879,-0.00002159,-0.00001300,-0.0000006
 3,-0.00001274,-0.00001004,0.00000036,-0.00000340,-0.00000856,0.0000307
 3,-0.00019945,-0.00001323,0.00035651,0.00596295,-0.03503921,0.02863327
 ,0.00000742,-0.00001747,-0.00001806,0.00002509,0.00002648,-0.00000614,
 -0.00012335,-0.00017738,0.00009982,-0.00189416,-0.00173178,-0.00126454
 ,-0.16536377,0.07596925,-0.03428206,-0.00029239,0.00029109,-0.00002594
 ,-0.03912822,0.00428427,-0.00958506,-0.00010184,0.00003968,-0.00001132
 ,-0.00001124,0.00000254,0.00001859,0.00019479,0.00013520,0.00004246,0.
 00004103,-0.00009071,0.00000858,0.00003054,-0.00000636,-0.00002108,-0.
 00027445,-0.00005885,-0.00046247,-0.00015537,0.00009716,-0.00028201,-0
 .00002392,0.00000740,0.00002767,-0.00041331,0.00026760,0.00000458,-0.0
 0015559,0.00032647,-0.00050165,-0.00011409,0.00007221,-0.00000563,-0.0
 0005707,0.00005225,-0.00119667,-0.00004818,0.00012813,0.00005467,0.000
 00466,-0.00001300,-0.00001387,0.00026961,0.00024067,0.00001945,0.00011
 625,0.00000877,0.00000204,0.00060107,-0.00024270,0.00018632,0.00002205
 ,-0.00039019,0.00005788,-0.00000253,-0.00027339,0.00003795,-0.00200042
 ,0.01090167,-0.00278283,0.00010799,-0.00029529,0.00013070,0.00002403,-
 0.00006389,0.00000215,0.00076376,-0.00014252,0.00043041,0.00006782,0.0
 0004389,-0.00001007,0.00001592,0.00001060,0.00000615,0.00000800,0.0000
 1195,0.00000839,-0.00000288,-0.00001508,0.00000384,0.00000323,0.000001
 31,0.00000374,-0.00001080,0.00000631,0.00000784,0.00000102,-0.00000325
 ,0.00000384,0.00001394,0.00001023,0.00000658,-0.00000464,-0.00000863,0
 .00000766,-0.00000069,-0.00001230,0.00000593,0.00000642,-0.00002792,-0
 .00001871,-0.00039030,-0.00042957,0.00022491,0.20798790,-0.00001139,-0
 .00001278,0.00000567,-0.00006325,0.00000258,-0.00000579,0.00008489,-0.
 00007682,-0.00000646,-0.00100227,-0.00101482,0.00066476,0.07596818,-0.
 07803531,0.01981841,-0.00052521,0.00010507,-0.00016550,-0.01040868,0.0
 0672461,-0.00231697,0.00007921,-0.00004986,-0.00000005,0.00001461,-0.0
 0001830,-0.00002120,-0.00016015,-0.00008189,-0.00001840,-0.00003437,0.
 00006919,0.00000229,-0.00000631,0.00002329,0.00001215,0.00025912,-0.00
 000022,0.00031198,0.00009767,-0.00004281,0.00016318,-0.00000477,-0.000
 00560,-0.00000555,0.00026761,-0.00010629,-0.00000425,0.00001030,-0.000
 11917,0.00024601,0.00003269,-0.00003757,0.00000985,-0.00067739,-0.0028
 5143,0.00079252,-0.00013416,-0.00015188,-0.00008314,-0.00001899,-0.000
 01001,0.00001290,-0.00024804,-0.00006382,-0.00005420,-0.00004756,-0.00
 000604,-0.00000848,-0.00024291,0.00032152,-0.00010795,0.00009845,0.000
 18354,0.00000935,0.00002185,0.00011529,-0.00002806,0.02559607,-0.03036
 326,0.00952765,0.00052082,-0.00029456,0.00010369,0.00002586,0.00000364
 ,0.00000818,0.00023298,-0.00071943,-0.00001251,0.00000735,0.00001565,0
 .00001606,-0.00000278,-0.00000168,-0.00000325,-0.00000139,-0.00000276,
 -0.00000398,0.00000057,0.00001113,-0.00000543,-0.00000199,-0.00000010,
 -0.00000227,0.00000629,-0.00000358,-0.00000453,0.00000004,0.00000209,-
 0.00000211,-0.00000543,-0.00000567,-0.00000058,0.00000468,0.00000987,-
 0.00000533,0.00000105,0.00001492,-0.00000374,0.00000865,0.00007703,0.0
 0000075,-0.00080514,0.00043330,-0.00037071,-0.08880242,0.10586174,0.00
 000353,-0.00000529,-0.00000056,0.00000689,0.00001378,0.00001331,0.0000
 1351,-0.00011206,-0.00015659,-0.00136461,0.00066491,0.00526083,-0.0341
 5958,0.01974732,-0.05187851,-0.00000600,-0.00001224,-0.00037289,-0.007
 76587,0.00075260,0.00408852,-0.00001519,-0.00000104,-0.00001337,-0.000
 00236,0.00000299,0.00000254,0.00003241,0.00003129,0.00000393,0.0000117
 8,-0.00000998,-0.00000249,0.00000731,-0.00000431,-0.00000828,-0.000064
 29,0.00000078,-0.00007635,-0.00003867,0.00002224,-0.00005664,-0.000003
 69,0.00000057,0.00000250,0.00001161,-0.00000840,-0.00071417,-0.0000324
 4,0.00005482,-0.00007626,-0.00000653,0.00001364,-0.00001343,-0.0012436
 8,0.00087772,0.00526077,0.00010430,0.00004381,-0.00015672,0.00000641,-
 0.00000037,-0.00000059,0.00008630,0.00008053,0.00000226,0.00001443,-0.
 00000526,-0.00000247,0.00014649,-0.00008512,0.00015996,-0.00002740,-0.
 00011470,0.00000246,-0.00001109,-0.00004349,0.00000411,-0.00458624,0.0
 0644904,0.00405134,0.00000500,0.00001183,-0.00037350,-0.00000864,-0.00
 001267,0.00001333,0.00041850,-0.00009896,-0.00118547,-0.00000281,0.000
 00519,0.00008442,0.00000259,0.00000207,0.00000828,0.00000101,0.0000028
 8,0.00000185,0.00000038,-0.00000281,0.00000687,0.00000189,0.00000133,0
 .00000316,-0.00000338,0.00000197,0.00000431,-0.00000021,-0.00000229,0.
 00000317,0.00000262,0.00000109,0.00000685,-0.00000200,-0.00000232,0.00
 000186,-0.00000050,-0.00000327,0.00000829,-0.00000580,-0.00000008,0.00
 008446,0.00029514,-0.00031805,-0.00118409,0.04812137,-0.02790688,0.036
 91933,-0.00028405,-0.00052784,0.00031801,-0.00034344,0.00044546,0.0001
 2342,-0.00103032,0.00586141,-0.00300387,-0.00442871,-0.00003618,-0.000
 76076,-0.00283005,-0.00246494,-0.00022108,0.00373616,-0.00033577,0.000
 89483,0.00398100,-0.00073003,0.00089436,-0.00567702,0.00312564,0.00037
 367,-0.00344256,0.00297139,0.00074049,0.00186185,-0.00500761,-0.001060
 55,-0.01209763,-0.00801528,0.00917841,-0.00085410,-0.00353548,-0.00049
 310,0.00573821,0.01331638,-0.00599483,-0.04483238,0.02908769,0.0687452
 2,0.00246854,0.00164436,-0.00277823,-0.00656872,-0.00622288,-0.0028134
 7,-0.06734212,-0.04021224,-0.06609149,0.00428153,-0.00177689,0.0000648
 0,0.00275712,-0.00081200,0.00085994,-0.00192600,-0.00187685,0.00230522
 ,-0.00048955,-0.00017548,0.00067697,0.00266801,0.00005463,0.00178068,-
 0.00156734,0.01045427,0.00774794,-0.00214998,-0.00072358,0.00046587,-0
 .02138235,0.01776812,-0.01119790,0.00063192,-0.00738936,-0.00380897,-0
 .00085739,0.00304683,-0.00063492,-0.00040938,0.00226912,-0.00028558,-0
 .00034077,0.00082558,-0.00016791,-0.00021756,-0.00006935,-0.00008915,-
 0.00016494,-0.00023945,-0.00037263,0.00017547,0.00014896,-0.00013833,-
 0.00003316,0.00011532,-0.00024822,0.00019055,0.00053909,0.00021811,0.0
 0004207,0.00014899,0.00028006,-0.00020672,0.00013623,0.00062909,-0.000
 15816,-0.00014631,0.00020261,-0.00064181,-0.00021772,-0.00059735,-0.00
 006904,0.00002667,-0.00004231,-0.00004164,-0.00033335,-0.00011957,0.00
 006346,0.00022516,-0.00000190,-0.00004729,0.00021114,-0.00011605,0.000
 25945,-0.00013343,0.00006028,0.15156669,-0.00005551,-0.00088833,-0.000
 59368,0.00082015,0.00038850,0.00026123,-0.00136853,0.00037166,-0.00437
 306,-0.00494558,0.00226129,-0.00142946,-0.00247265,-0.00565350,0.00014
 104,0.00465383,0.00069873,0.00083553,0.00582838,0.00046895,0.00123645,
 -0.00746144,0.00505441,0.00013442,-0.00172863,0.00512551,0.00361441,-0
 .00668204,-0.00646653,0.00380049,0.00441738,-0.00016852,-0.00372114,-0
 .00354029,-0.00490638,0.00030394,0.00185268,-0.08238174,0.07292753,0.0
 2909656,-0.01178235,-0.03997112,0.00636989,-0.00080733,-0.00245392,-0.
 00622224,-0.01369817,0.00165824,-0.02874897,-0.00975145,-0.03119110,0.
 00885513,-0.00493015,-0.00039575,0.00409044,-0.00490293,0.00138017,0.0
 0533643,0.00125760,0.00476536,-0.00065089,-0.00069529,0.00002693,0.031
 56767,-0.01112394,0.01391371,-0.00200535,-0.01076399,-0.00610265,-0.00
 072840,-0.00297957,-0.00026306,-0.01375541,0.01291597,-0.00848450,-0.0
 0571591,-0.00524270,-0.00095620,-0.00350211,0.00530676,-0.00140041,-0.
 00271223,0.00483929,-0.00120176,0.00044509,0.00038955,-0.00024052,0.00
 011206,0.00003413,0.00008152,0.00009247,0.00005405,-0.00021321,-0.0002
 0813,-0.00014700,0.00005941,0.00004663,0.00001359,-0.00009441,0.000261
 96,-0.00044999,0.00081659,-0.00003249,-0.00015447,-0.00007161,0.000134
 90,-0.00005263,-0.00036548,0.00003072,0.00004172,-0.00020681,0.0000568
 3,0.00037083,-0.00059591,0.00009399,0.00004933,0.00026074,0.00002485,0
 .00006982,0.00008958,-0.00010743,-0.00016982,0.00042915,0.00002807,-0.
 00013437,0.00003642,-0.00013154,0.00010497,-0.00003442,-0.01142248,0.1
 3844277,0.00164864,0.00350180,0.00129277,-0.00205206,-0.00030619,-0.00
 046940,-0.00043887,0.00945661,-0.00100744,-0.00391880,-0.00311993,0.00
 044798,-0.00389456,0.00226802,-0.00082079,0.00252762,-0.00104468,0.000
 05543,0.00172206,-0.00251858,0.00030638,0.01449833,-0.00033622,-0.0012
 6183,0.00638645,-0.00080787,-0.00125786,-0.00300725,0.00058936,-0.0038
 5881,0.01041711,0.01328238,-0.01002904,-0.00280745,0.00164415,0.001912
 10,-0.00294708,0.07815984,-0.05724561,0.07283477,-0.04233883,-0.071731
 68,0.00385307,-0.00514148,-0.00123639,-0.00205695,0.00122040,-0.003284
 65,-0.06914758,-0.03641780,-0.05679123,0.00747023,-0.01239342,-0.00123
 640,0.00073847,0.00496980,0.00042717,-0.00843510,-0.00432955,-0.000998
 01,-0.00221129,-0.00316637,0.00130570,-0.01248529,-0.00418449,0.000064
 08,-0.00634522,-0.01566283,-0.00996367,-0.00210893,0.00122720,-0.00032
 568,-0.00250331,0.01283955,0.00007528,-0.00199881,0.00233300,-0.003852
 33,0.00305471,-0.00026061,0.00030642,0.00217362,-0.00169096,0.00006054
 ,-0.00075734,0.00192831,-0.00047312,-0.00076719,-0.00016798,-0.0002277
 4,-0.00079331,-0.00058149,-0.00030531,0.00018772,0.00000032,-0.0001842
 0,-0.00035020,0.00048816,-0.00038586,0.00039794,0.00255889,0.00029961,
 -0.00030293,0.00139317,0.00021738,-0.00000362,0.00000096,-0.00052447,-
 0.00135861,-0.00042986,0.00022141,-0.00201987,-0.00161848,0.00031104,-
 0.00059852,0.00005940,-0.00038566,0.00009281,-0.00016315,-0.00018390,0
 .00010923,0.00097670,-0.00030992,-0.00023659,0.00074847,-0.00022954,0.
 00096385,-0.00055771,0.00027218,0.00447686,-0.00241203,0.22094243||-0.
 00001949,0.00000737,-0.00001281,0.00001438,-0.00000391,0.00000831,0.00
 000236,-0.00000504,-0.00001814,-0.00000639,0.00001096,0.00001946,0.000
 00257,0.00001167,0.00002737,0.00000365,0.00000793,0.00001185,0.0000013
 4,0.00001493,-0.00003903,-0.00001185,-0.00001652,0.00000384,-0.0000027
 0,-0.00000842,0.00001107,0.00000781,-0.00005026,0.00001116,-0.00003439
 ,-0.00000057,-0.00001720,-0.00001404,0.00000972,-0.00000066,0.00001078
 ,0.00002747,-0.00001588,0.00000919,-0.00000626,0.00003225,0.00000520,0
 .00000573,0.00001625,0.00001022,-0.00000600,-0.00005269,-0.00001608,-0
 .00001776,-0.00001045,0.00001195,0.00001776,0.00001287,-0.00001526,-0.
 00000750,-0.00000101,0.00000623,0.00000083,-0.00001088,-0.00001372,0.0
 0001004,-0.00001673,-0.00000616,-0.00000473,0.00002501,-0.00001716,0.0
 0003049,-0.00002586,0.00001393,-0.00000517,0.00002780,0.00000149,0.000
 00641,0.00002470,0.00004594,0.00001764,0.00000910,-0.00000909,-0.00001
 294,-0.00002896,-0.00000828,-0.00000490,0.00001383,0.00000843,-0.00000
 925,0.00000183,0.00000548,0.00000235,0.00000824,0.00000492,0.00000545,
 -0.00000384,0.00000270,0.00000053,0.00000435,-0.00000401,-0.00000525,0
 .00000377,-0.00000405,-0.00001155,-0.00000089,0.00000171,0.00000470,0.
 00000311,-0.00001014,0.00000549,0.00000361,-0.00000326,-0.00000399,0.0
 0000424,0.00000820,0.00000845,0.00000205,0.00000278,0.00000596,0.00000
 158,0.00000112,-0.00000237,0.00000286,-0.00000235,-0.00000482,-0.00000
 724,-0.00000070,-0.00000670,0.00000966,-0.00000514,-0.00000187,-0.0000
 0480,0.00002190,-0.00001612,-0.00003310|||@


 BE NOT THE FIRST BY WHOM THE NEW ARE TRIED,
 NOR YET THE THE LAST TO LAY THE OLD ASIDE.

                          -- ALEXANDER POPE
 Job cpu time:       0 days  0 hours  0 minutes  6.0 seconds.
 File lengths (MBytes):  RWF=    370 Int=      0 D2E=      0 Chk=      4 Scr=      1
 Normal termination of Gaussian 09 at Sun Mar 15 20:54:12 2026.
